# vtk DataFile Version 2.0
Comment goes here
ASCII

DATASET STRUCTURED_POINTS
FIELD FieldData 1
TIME 1 1 double
0.26000000
DIMENSIONS    32   32   1

ORIGIN    0.000   0.000   0.000
SPACING   0.03125 0.03125   1.000

POINT_DATA   1024
SCALARS Omega double
LOOKUP_TABLE default

-8.532243e-14 -9.011136e-14 -7.260019e-14 -4.484505e-14 -2.613666e-14 -2.767340e-14 -3.565584e-14 -1.672361e-14 -2.294267e-14 -8.158265e-15 -1.228811e-14 -4.143388e-14 -6.893098e-14 -2.874166e-13 -5.006099e-13 1.573588e-13 8.638437e-13 2.099493e-13 -1.478798e-13 -1.255516e-13 -2.257053e-14 2.591884e-14 3.421392e-14 4.109719e-14 4.139707e-14 -7.997110e-15 -3.956156e-15 -4.328661e-14 -3.446348e-14 -5.825475e-14 -6.506021e-14 -7.722304e-14 
-8.952893e-14 -8.540621e-04 -7.897883e-04 4.624616e-04 5.927908e-03 1.524801e-02 3.214057e-02 5.370778e-02 5.936739e-02 3.955118e-02 -9.045513e-02 -5.398277e-01 -1.642451e+00 -4.263831e+00 -9.102442e+00 -1.249308e+01 6.880633e-13 1.249308e+01 9.102442e+00 4.263831e+00 1.642451e+00 5.398277e-01 9.045513e-02 -3.955118e-02 -5.936739e-02 -5.370778e-02 -3.214057e-02 -1.524801e-02 -5.927908e-03 -4.624616e-04 7.897883e-04 8.540621e-04 
-8.588202e-14 -6.004199e-04 1.519929e-03 8.373922e-03 2.739908e-02 5.853020e-02 1.112679e-01 1.737014e-01 1.769234e-01 1.537887e-01 -6.754219e-02 -9.770639e-01 -3.572131e+00 -9.548948e+00 -1.964994e+01 -2.528388e+01 6.460803e-13 2.528388e+01 1.964994e+01 9.548948e+00 3.572131e+00 9.770639e-01 6.754219e-02 -1.537887e-01 -1.769234e-01 -1.737014e-01 -1.112679e-01 -5.853020e-02 -2.739908e-02 -8.373922e-03 -1.519929e-03 6.004199e-04 
-8.072754e-14 3.575769e-03 1.457791e-02 3.878563e-02 9.321494e-02 1.763471e-01 3.034646e-01 4.378925e-01 3.996440e-01 3.934093e-01 2.141219e-01 -7.433702e-01 -4.754776e+00 -1.371269e+01 -2.803949e+01 -3.231175e+01 3.570758e-13 3.231175e+01 2.803949e+01 1.371269e+01 4.754776e+00 7.433702e-01 -2.141219e-01 -3.934093e-01 -3.996440e-01 -4.378925e-01 -3.034646e-01 -1.763471e-01 -9.321494e-02 -3.878563e-02 -1.457791e-02 -3.575769e-03 
-7.174922e-14 1.966142e-02 5.560060e-02 1.211184e-01 2.461449e-01 4.222838e-01 6.374486e-01 8.127874e-01 6.610245e-01 7.144056e-01 8.969612e-01 1.118881e+00 -9.258855e-01 -9.713930e+00 -2.857042e+01 -2.941731e+01 -1.449209e-13 2.941731e+01 2.857042e+01 9.713930e+00 9.258855e-01 -1.118881e+00 -8.969612e-01 -7.144056e-01 -6.610245e-01 -8.127874e-01 -6.374486e-01 -4.222838e-01 -2.461449e-01 -1.211184e-01 -5.560060e-02 -1.966142e-02 
-7.185684e-14 6.571027e-02 1.588114e-01 2.951168e-01 5.257036e-01 8.089828e-01 1.033687e+00 1.139636e+00 1.294465e+00 2.176421e+00 3.687308e+00 5.904010e+00 6.461177e+00 -4.192503e+00 -2.293992e+01 -1.738292e+01 1.132956e-13 1.738292e+01 2.293992e+01 4.192503e+00 -6.461177e+00 -5.904010e+00 -3.687308e+00 -2.176421e+00 -1.294465e+00 -1.139636e+00 -1.033687e+00 -8.089828e-01 -5.257036e-01 -2.951168e-01 -1.588114e-01 -6.571027e-02 
-6.003880e-14 1.905966e-01 3.942369e-01 6.084330e-01 9.082146e-01 1.198732e+00 1.269874e+00 1.566318e+00 3.771032e+00 6.680004e+00 8.208735e+00 8.405016e+00 8.526111e+00 6.142167e-01 -4.117621e+00 3.889264e+00 2.807568e-13 -3.889264e+00 4.117621e+00 -6.142167e-01 -8.526111e+00 -8.405016e+00 -8.208735e+00 -6.680004e+00 -3.771032e+00 -1.566318e+00 -1.269874e+00 -1.198732e+00 -9.082146e-01 -6.084330e-01 -3.942369e-01 -1.905966e-01 
-2.483552e-14 4.973981e-01 8.890089e-01 1.106333e+00 1.345124e+00 1.600828e+00 2.217381e+00 4.383639e+00 7.288117e+00 5.572243e+00 1.590138e-01 -2.776599e+00 3.653765e+00 6.049289e+00 9.068878e+00 8.584216e+00 2.825644e-12 -8.584216e+00 -9.068878e+00 -6.049289e+00 -3.653765e+00 2.776599e+00 -1.590138e-01 -5.572243e+00 -7.288117e+00 -4.383639e+00 -2.217381e+00 -1.600828e+00 -1.345124e+00 -1.106333e+00 -8.890089e-01 -4.973981e-01 
-2.912765e-14 1.203662e+00 1.913283e+00 1.957541e+00 1.994193e+00 2.690205e+00 4.799741e+00 4.237145e+00 -1.326569e+01 -3.503460e+01 -3.405624e+01 -1.499550e+01 6.915379e+00 9.169582e+00 5.156665e+00 -1.610637e+00 5.721599e-12 1.610637e+00 -5.156665e+00 -9.169582e+00 -6.915379e+00 1.499550e+01 3.405624e+01 3.503460e+01 1.326569e+01 -4.237145e+00 -4.799741e+00 -2.690205e+00 -1.994193e+00 -1.957541e+00 -1.913283e+00 -1.203662e+00 
-4.339533e-14 2.609533e+00 3.891877e+00 3.621260e+00 3.704191e+00 4.665063e+00 -2.373597e+00 -3.534021e+01 -5.901545e+01 -3.898846e+01 -2.186608e+01 -2.374975e+01 -2.508158e+01 -3.123696e+01 -2.352282e+01 -1.268726e+01 6.012092e-14 1.268726e+01 2.352282e+01 3.123696e+01 2.508158e+01 2.374975e+01 2.186608e+01 3.898846e+01 5.901545e+01 3.534021e+01 2.373597e+00 -4.665063e+00 -3.704191e+00 -3.621260e+00 -3.891877e+00 -2.609533e+00 
-7.930020e-14 4.934535e+00 7.206211e+00 6.764646e+00 6.450205e+00 9.431370e-01 -2.518460e+01 -5.508491e+01 -4.739987e+01 -3.728729e+01 -4.381844e+01 -3.955343e+01 -3.506187e+01 -3.224753e+01 -1.565595e+01 -1.514391e+00 -4.502407e-12 1.514391e+00 1.565595e+01 3.224753e+01 3.506187e+01 3.955343e+01 4.381844e+01 3.728729e+01 4.739987e+01 5.508491e+01 2.518460e+01 -9.431370e-01 -6.450205e+00 -6.764646e+00 -7.206211e+00 -4.934535e+00 
-1.467855e-13 7.972617e+00 1.184101e+01 1.235763e+01 2.022590e+01 5.150599e+00 -6.381487e+01 -7.043780e+01 -3.719781e+01 -2.821416e+01 -2.874587e+01 -5.160585e+00 1.474537e+01 2.233406e+01 2.506068e+01 1.778100e+01 -2.691990e-12 -1.778100e+01 -2.506068e+01 -2.233406e+01 -1.474537e+01 5.160585e+00 2.874587e+01 2.821416e+01 3.719781e+01 7.043780e+01 6.381487e+01 -5.150599e+00 -2.022590e+01 -1.235763e+01 -1.184101e+01 -7.972617e+00 
-1.752546e-13 1.101576e+01 1.747567e+01 2.352231e+01 4.232116e+01 -2.971746e+01 -9.919451e+01 -5.399287e+01 -2.636918e+01 6.304525e+00 2.162564e+01 2.567536e+01 2.654637e+01 2.426568e+01 2.160734e+01 1.359605e+01 -8.345669e-13 -1.359605e+01 -2.160734e+01 -2.426568e+01 -2.654637e+01 -2.567536e+01 -2.162564e+01 -6.304525e+00 2.636918e+01 5.399287e+01 9.919451e+01 2.971746e+01 -4.232116e+01 -2.352231e+01 -1.747567e+01 -1.101576e+01 
-1.726168e-13 1.271917e+01 2.293974e+01 4.619576e+01 2.683659e+01 -1.129813e+02 -7.213101e+01 1.786301e+01 1.000124e+01 -6.662749e+00 -1.349512e+01 -4.246818e+00 5.459832e+00 9.950178e+00 1.127099e+01 8.168498e+00 -3.650534e-13 -8.168498e+00 -1.127099e+01 -9.950178e+00 -5.459832e+00 4.246818e+00 1.349512e+01 6.662749e+00 -1.000124e+01 -1.786301e+01 7.213101e+01 1.129813e+02 -2.683659e+01 -4.619576e+01 -2.293974e+01 -1.271917e+01 
-8.097165e-14 1.156515e+01 2.414306e+01 6.677779e+01 -4.001217e+01 -1.237753e+02 2.041571e+01 3.862844e+01 -8.507059e+00 -3.137915e+01 -2.649395e+01 -1.432142e+01 -4.926322e+00 5.878905e-01 3.512343e+00 3.437395e+00 -2.168340e-13 -3.437395e+00 -3.512343e+00 -5.878905e-01 4.926322e+00 1.432142e+01 2.649395e+01 3.137915e+01 8.507059e+00 -3.862844e+01 -2.041571e+01 1.237753e+02 4.001217e+01 -6.677779e+01 -2.414306e+01 -1.156515e+01 
1.430770e-13 7.198838e+00 1.709069e+01 4.789045e+01 -5.971460e+01 -4.158610e+01 5.687122e+01 1.279970e+01 -1.684602e+01 -2.538135e+01 -2.045315e+01 -1.297597e+01 -6.624458e+00 -2.497425e+00 -8.010485e-02 7.352582e-01 -1.148975e-13 -7.352582e-01 8.010485e-02 2.497425e+00 6.624458e+00 1.297597e+01 2.045315e+01 2.538135e+01 1.684602e+01 -1.279970e+01 -5.687122e+01 4.158610e+01 5.971460e+01 -4.789045e+01 -1.709069e+01 -7.198838e+00 
3.429844e-13 2.820942e-13 4.811916e-13 2.526448e-12 3.189929e-12 -6.415426e-13 -9.060535e-13 -7.923379e-13 -5.691294e-13 9.631015e-14 1.492044e-13 -1.025896e-13 -1.399463e-13 -1.529258e-13 -1.365585e-13 -1.902201e-14 -6.477605e-14 -1.188681e-13 -6.601867e-14 -1.644423e-13 -2.316011e-13 -3.061549e-13 -3.557485e-13 -5.499011e-13 -7.587852e-13 1.531439e-12 2.846746e-12 3.551839e-12 3.070335e-12 1.430764e-12 1.022997e-12 4.230735e-13 
1.148991e-13 -7.198838e+00 -1.709069e+01 -4.789045e+01 5.971460e+01 4.158610e+01 -5.687122e+01 -1.279970e+01 1.684602e+01 2.538135e+01 2.045315e+01 1.297597e+01 6.624458e+00 2.497425e+00 8.010485e-02 -7.352582e-01 -3.901625e-14 7.352582e-01 -8.010485e-02 -2.497425e+00 -6.624458e+00 -1.297597e+01 -2.045315e+01 -2.538135e+01 -1.684602e+01 1.279970e+01 5.687122e+01 -4.158610e+01 -5.971460e+01 4.789045e+01 1.709069e+01 7.198838e+00 
-2.811910e-14 -1.156515e+01 -2.414306e+01 -6.677779e+01 4.001217e+01 1.237753e+02 -2.041571e+01 -3.862844e+01 8.507059e+00 3.137915e+01 2.649395e+01 1.432142e+01 4.926322e+00 -5.878905e-01 -3.512343e+00 -3.437395e+00 5.153818e-14 3.437395e+00 3.512343e+00 5.878905e-01 -4.926322e+00 -1.432142e+01 -2.649395e+01 -3.137915e+01 -8.507059e+00 3.862844e+01 2.041571e+01 -1.237753e+02 -4.001217e+01 6.677779e+01 2.414306e+01 1.156515e+01 
-9.664620e-14 -1.271917e+01 -2.293974e+01 -4.619576e+01 -2.683659e+01 1.129813e+02 7.213101e+01 -1.786301e+01 -1.000124e+01 6.662749e+00 1.349512e+01 4.246818e+00 -5.459832e+00 -9.950178e+00 -1.127099e+01 -8.168498e+00 1.738114e-13 8.168498e+00 1.127099e+01 9.950178e+00 5.459832e+00 -4.246818e+00 -1.349512e+01 -6.662749e+00 1.000124e+01 1.786301e+01 -7.213101e+01 -1.129813e+02 2.683659e+01 4.619576e+01 2.293974e+01 1.271917e+01 
-1.034766e-13 -1.101576e+01 -1.747567e+01 -2.352231e+01 -4.232116e+01 2.971746e+01 9.919451e+01 5.399287e+01 2.636918e+01 -6.304525e+00 -2.162564e+01 -2.567536e+01 -2.654637e+01 -2.426568e+01 -2.160734e+01 -1.359605e+01 1.696578e-13 1.359605e+01 2.160734e+01 2.426568e+01 2.654637e+01 2.567536e+01 2.162564e+01 6.304525e+00 -2.636918e+01 -5.399287e+01 -9.919451e+01 -2.971746e+01 4.232116e+01 2.352231e+01 1.747567e+01 1.101576e+01 
-4.147235e-14 -7.972617e+00 -1.184101e+01 -1.235763e+01 -2.022590e+01 -5.150599e+00 6.381487e+01 7.043780e+01 3.719781e+01 2.821416e+01 2.874587e+01 5.160585e+00 -1.474537e+01 -2.233406e+01 -2.506068e+01 -1.778100e+01 4.207313e-13 1.778100e+01 2.506068e+01 2.233406e+01 1.474537e+01 -5.160585e+00 -2.874587e+01 -2.821416e+01 -3.719781e+01 -7.043780e+01 -6.381487e+01 5.150599e+00 2.022590e+01 1.235763e+01 1.184101e+01 7.972617e+00 
1.218789e-14 -4.934535e+00 -7.206211e+00 -6.764646e+00 -6.450205e+00 -9.431370e-01 2.518460e+01 5.508491e+01 4.739987e+01 3.728729e+01 4.381844e+01 3.955343e+01 3.506187e+01 3.224753e+01 1.565595e+01 1.514391e+00 -2.358645e-12 -1.514391e+00 -1.565595e+01 -3.224753e+01 -3.506187e+01 -3.955343e+01 -4.381844e+01 -3.728729e+01 -4.739987e+01 -5.508491e+01 -2.518460e+01 9.431370e-01 6.450205e+00 6.764646e+00 7.206211e+00 4.934535e+00 
5.870289e-14 -2.609533e+00 -3.891877e+00 -3.621260e+00 -3.704191e+00 -4.665063e+00 2.373597e+00 3.534021e+01 5.901545e+01 3.898846e+01 2.186608e+01 2.374975e+01 2.508158e+01 3.123696e+01 2.352282e+01 1.268726e+01 -4.465364e-12 -1.268726e+01 -2.352282e+01 -3.123696e+01 -2.508158e+01 -2.374975e+01 -2.186608e+01 -3.898846e+01 -5.901545e+01 -3.534021e+01 -2.373597e+00 4.665063e+00 3.704191e+00 3.621260e+00 3.891877e+00 2.609533e+00 
7.414115e-14 -1.203662e+00 -1.913283e+00 -1.957541e+00 -1.994193e+00 -2.690205e+00 -4.799741e+00 -4.237145e+00 1.326569e+01 3.503460e+01 3.405624e+01 1.499550e+01 -6.915379e+00 -9.169582e+00 -5.156665e+00 1.610637e+00 1.551758e-12 -1.610637e+00 5.156665e+00 9.169582e+00 6.915379e+00 -1.499550e+01 -3.405624e+01 -3.503460e+01 -1.326569e+01 4.237145e+00 4.799741e+00 2.690205e+00 1.994193e+00 1.957541e+00 1.913283e+00 1.203662e+00 
5.568986e-14 -4.973981e-01 -8.890089e-01 -1.106333e+00 -1.345124e+00 -1.600828e+00 -2.217381e+00 -4.383639e+00 -7.288117e+00 -5.572243e+00 -1.590138e-01 2.776599e+00 -3.653765e+00 -6.049289e+00 -9.068878e+00 -8.584216e+00 3.955502e-12 8.584216e+00 9.068878e+00 6.049289e+00 3.653765e+00 -2.776599e+00 1.590138e-01 5.572243e+00 7.288117e+00 4.383639e+00 2.217381e+00 1.600828e+00 1.345124e+00 1.106333e+00 8.890089e-01 4.973981e-01 
5.082099e-14 -1.905966e-01 -3.942369e-01 -6.084330e-01 -9.082146e-01 -1.198732e+00 -1.269874e+00 -1.566318e+00 -3.771032e+00 -6.680004e+00 -8.208735e+00 -8.405016e+00 -8.526111e+00 -6.142167e-01 4.117621e+00 -3.889264e+00 3.340402e-13 3.889264e+00 -4.117621e+00 6.142167e-01 8.526111e+00 8.405016e+00 8.208735e+00 6.680004e+00 3.771032e+00 1.566318e+00 1.269874e+00 1.198732e+00 9.082146e-01 6.084330e-01 3.942369e-01 1.905966e-01 
3.654462e-14 -6.571027e-02 -1.588114e-01 -2.951168e-01 -5.257036e-01 -8.089828e-01 -1.033687e+00 -1.139636e+00 -1.294465e+00 -2.176421e+00 -3.687308e+00 -5.904010e+00 -6.461177e+00 4.192503e+00 2.293992e+01 1.738292e+01 6.313853e-13 -1.738292e+01 -2.293992e+01 -4.192503e+00 6.461177e+00 5.904010e+00 3.687308e+00 2.176421e+00 1.294465e+00 1.139636e+00 1.033687e+00 8.089828e-01 5.257036e-01 2.951168e-01 1.588114e-01 6.571027e-02 
-3.132288e-15 -1.966142e-02 -5.560060e-02 -1.211184e-01 -2.461449e-01 -4.222838e-01 -6.374486e-01 -8.127874e-01 -6.610245e-01 -7.144056e-01 -8.969612e-01 -1.118881e+00 9.258855e-01 9.713930e+00 2.857042e+01 2.941731e+01 1.773190e-12 -2.941731e+01 -2.857042e+01 -9.713930e+00 -9.258855e-01 1.118881e+00 8.969612e-01 7.144056e-01 6.610245e-01 8.127874e-01 6.374486e-01 4.222838e-01 2.461449e-01 1.211184e-01 5.560060e-02 1.966142e-02 
-3.139659e-14 -3.575769e-03 -1.457791e-02 -3.878563e-02 -9.321494e-02 -1.763471e-01 -3.034646e-01 -4.378925e-01 -3.996440e-01 -3.934093e-01 -2.141219e-01 7.433702e-01 4.754776e+00 1.371269e+01 2.803949e+01 3.231175e+01 1.554703e-12 -3.231175e+01 -2.803949e+01 -1.371269e+01 -4.754776e+00 -7.433702e-01 2.141219e-01 3.934093e-01 3.996440e-01 4.378925e-01 3.034646e-01 1.763471e-01 9.321494e-02 3.878563e-02 1.457791e-02 3.575769e-03 
-6.217760e-14 6.004199e-04 -1.519929e-03 -8.373922e-03 -2.739908e-02 -5.853020e-02 -1.112679e-01 -1.737014e-01 -1.769234e-01 -1.537887e-01 6.754219e-02 9.770639e-01 3.572131e+00 9.548948e+00 1.964994e+01 2.528388e+01 1.562142e-12 -2.528388e+01 -1.964994e+01 -9.548948e+00 -3.572131e+00 -9.770639e-01 -6.754219e-02 1.537887e-01 1.769234e-01 1.737014e-01 1.112679e-01 5.853020e-02 2.739908e-02 8.373922e-03 1.519929e-03 -6.004199e-04 
-7.439117e-14 8.540621e-04 7.897883e-04 -4.624616e-04 -5.927908e-03 -1.524801e-02 -3.214057e-02 -5.370778e-02 -5.936739e-02 -3.955118e-02 9.045513e-02 5.398277e-01 1.642451e+00 4.263831e+00 9.102442e+00 1.249308e+01 1.300909e-12 -1.249308e+01 -9.102442e+00 -4.263831e+00 -1.642451e+00 -5.398277e-01 -9.045513e-02 3.955118e-02 5.936739e-02 5.370778e-02 3.214057e-02 1.524801e-02 5.927908e-03 4.624616e-04 -7.897883e-04 -8.540621e-04 
