# vtk DataFile Version 2.0
Comment goes here
ASCII

DATASET STRUCTURED_POINTS
FIELD FieldData 1
TIME 1 1 double
1.10000000
DIMENSIONS    32   32   1

ORIGIN    0.000   0.000   0.000
SPACING   0.03125 0.03125   1.000

POINT_DATA   1024
SCALARS Omega double
LOOKUP_TABLE default

-5.745113e-14 -4.073954e-14 -2.455842e-14 -2.679439e-14 -1.498452e-14 9.561159e-14 4.820608e-13 1.140336e-12 2.173333e-12 3.320315e-12 4.317644e-12 4.863153e-12 4.885940e-12 4.231423e-12 2.656722e-12 5.981940e-16 -1.719385e-12 -1.393048e-12 1.067159e-13 1.851198e-12 3.147518e-12 3.852316e-12 4.016448e-12 3.631506e-12 2.825005e-12 1.849594e-12 9.928450e-13 3.999041e-13 1.270469e-13 -2.144692e-14 -6.098008e-14 -7.331318e-14 
-5.723191e-14 4.001371e-02 8.201287e-04 -1.840061e-01 -5.903327e-01 -1.284083e+00 -2.311935e+00 -3.641743e+00 -5.174565e+00 -6.751224e+00 -8.209593e+00 -9.469925e+00 -1.046148e+01 -1.098480e+01 -1.031466e+01 -6.784272e+00 -1.564145e-12 6.784272e+00 1.031466e+01 1.098480e+01 1.046148e+01 9.469925e+00 8.209593e+00 6.751224e+00 5.174565e+00 3.641743e+00 2.311935e+00 1.284083e+00 5.903327e-01 1.840061e-01 -8.201287e-04 -4.001371e-02 
-1.087428e-13 1.490687e-01 1.360546e-01 -1.544291e-01 -8.408753e-01 -2.027854e+00 -3.800484e+00 -6.111300e+00 -8.788253e+00 -1.156727e+01 -1.416816e+01 -1.647827e+01 -1.841652e+01 -1.963577e+01 -1.862913e+01 -1.216479e+01 -2.353603e-12 1.216479e+01 1.862913e+01 1.963577e+01 1.841652e+01 1.647827e+01 1.416816e+01 1.156727e+01 8.788253e+00 6.111300e+00 3.800484e+00 2.027854e+00 8.408753e-01 1.544291e-01 -1.360546e-01 -1.490687e-01 
-2.339408e-13 3.985802e-01 5.276431e-01 2.387716e-01 -5.791466e-01 -2.018572e+00 -4.183612e+00 -7.031914e+00 -1.033494e+01 -1.373843e+01 -1.683266e+01 -1.951548e+01 -2.188685e+01 -2.388089e+01 -2.325698e+01 -1.521254e+01 -4.046032e-12 1.521254e+01 2.325698e+01 2.388089e+01 2.188685e+01 1.951548e+01 1.683266e+01 1.373843e+01 1.033494e+01 7.031914e+00 4.183612e+00 2.018572e+00 5.791466e-01 -2.387716e-01 -5.276431e-01 -3.985802e-01 
-3.918771e-13 8.500176e-01 1.273495e+00 1.089893e+00 2.475473e-01 -1.254949e+00 -3.484196e+00 -6.417894e+00 -9.812957e+00 -1.329032e+01 -1.633982e+01 -1.889734e+01 -2.155673e+01 -2.486777e+01 -2.530211e+01 -1.652780e+01 -5.641408e-12 1.652780e+01 2.530211e+01 2.486777e+01 2.155673e+01 1.889734e+01 1.633982e+01 1.329032e+01 9.812957e+00 6.417894e+00 3.484196e+00 1.254949e+00 -2.475473e-01 -1.089893e+00 -1.273495e+00 -8.500176e-01 
-6.068319e-13 1.574892e+00 2.495838e+00 2.521994e+00 1.678161e+00 1.310636e-01 -2.070393e+00 -4.898733e+00 -8.136726e+00 -1.144531e+01 -1.437235e+01 -1.712580e+01 -2.005829e+01 -2.595868e+01 -2.837598e+01 -1.754233e+01 -5.827299e-12 1.754233e+01 2.837598e+01 2.595868e+01 2.005829e+01 1.712580e+01 1.437235e+01 1.144531e+01 8.136726e+00 4.898733e+00 2.070393e+00 -1.310636e-01 -1.678161e+00 -2.521994e+00 -2.495838e+00 -1.574892e+00 
-8.960018e-13 2.568687e+00 4.200845e+00 4.553983e+00 3.719082e+00 2.068472e+00 -1.387112e-01 -2.821909e+00 -5.803703e+00 -8.835076e+00 -1.191951e+01 -1.804439e+01 -2.069828e+01 -3.797657e+01 -4.224509e+01 -1.504241e+01 -2.068494e-12 1.504241e+01 4.224509e+01 3.797657e+01 2.069828e+01 1.804439e+01 1.191951e+01 8.835076e+00 5.803703e+00 2.821909e+00 1.387112e-01 -2.068472e+00 -3.719082e+00 -4.553983e+00 -4.200845e+00 -2.568687e+00 
-1.215471e-12 3.815346e+00 6.373024e+00 7.182195e+00 6.369349e+00 4.517606e+00 2.123075e+00 -5.873891e-01 -3.449804e+00 -6.803473e+00 -1.266569e+01 -2.394188e+01 -3.342812e+01 -1.053664e+01 3.857316e+01 4.242809e+01 1.712278e-11 -4.242809e+01 -3.857316e+01 1.053664e+01 3.342812e+01 2.394188e+01 1.266569e+01 6.803473e+00 3.449804e+00 5.873891e-01 -2.123075e+00 -4.517606e+00 -6.369349e+00 -7.182195e+00 -6.373024e+00 -3.815346e+00 
-1.603832e-12 5.208800e+00 8.820023e+00 1.017005e+01 9.423823e+00 7.348096e+00 4.713604e+00 1.815195e+00 -1.141860e+00 -6.534164e+00 -1.723260e+01 -6.831862e+00 3.020281e+01 7.785542e+01 5.729857e+01 4.177593e+00 -1.425837e-12 -4.177593e+00 -5.729857e+01 -7.785542e+01 -3.020281e+01 6.831862e+00 1.723260e+01 6.534164e+00 1.141860e+00 -1.815195e+00 -4.713604e+00 -7.348096e+00 -9.423823e+00 -1.017005e+01 -8.820023e+00 -5.208800e+00 
-2.047684e-12 6.678741e+00 1.138413e+01 1.324682e+01 1.254076e+01 1.021524e+01 7.218874e+00 3.963863e+00 -1.346740e+00 -6.927568e+00 -1.729442e+00 3.721210e+01 4.830323e+01 9.618698e+00 -4.653248e+01 -4.612753e+01 -1.308461e-11 4.612753e+01 4.653248e+01 -9.618698e+00 -4.830323e+01 -3.721210e+01 1.729442e+00 6.927568e+00 1.346740e+00 -3.963863e+00 -7.218874e+00 -1.021524e+01 -1.254076e+01 -1.324682e+01 -1.138413e+01 -6.678741e+00 
-2.517830e-12 8.127637e+00 1.388855e+01 1.624133e+01 1.554164e+01 1.311568e+01 9.747401e+00 6.045971e+00 1.193296e+01 1.747414e+01 1.208189e+00 8.305850e+00 -8.820323e+00 -3.522355e+01 -2.230920e+01 2.459967e+00 -7.196286e-12 -2.459967e+00 2.230920e+01 3.522355e+01 8.820323e+00 -8.305850e+00 -1.208189e+00 -1.747414e+01 -1.193296e+01 -6.045971e+00 -9.747401e+00 -1.311568e+01 -1.554164e+01 -1.624133e+01 -1.388855e+01 -8.127637e+00 
-2.749025e-12 9.376493e+00 1.605525e+01 1.880037e+01 1.808345e+01 1.544759e+01 1.292942e+01 1.504065e+01 3.549916e+01 -7.969429e+00 -3.412653e+01 1.248051e+00 4.897591e+00 1.055152e+01 1.408666e+01 1.638739e+01 -5.550397e-12 -1.638739e+01 -1.408666e+01 -1.055152e+01 -4.897591e+00 -1.248051e+00 3.412653e+01 7.969429e+00 -3.549916e+01 -1.504065e+01 -1.292942e+01 -1.544759e+01 -1.808345e+01 -1.880037e+01 -1.605525e+01 -9.376493e+00 
-2.849615e-12 1.019993e+01 1.763680e+01 2.102748e+01 2.103557e+01 1.839837e+01 1.328076e+01 7.908940e+00 1.662953e+01 -4.851553e+01 -1.127999e+01 2.727787e+01 -6.002916e+00 3.225163e+00 9.151868e+00 7.888533e+00 -1.443079e-12 -7.888533e+00 -9.151868e+00 -3.225163e+00 6.002916e+00 -2.727787e+01 1.127999e+01 4.851553e+01 -1.662953e+01 -7.908940e+00 -1.328076e+01 -1.839837e+01 -2.103557e+01 -2.102748e+01 -1.763680e+01 -1.019993e+01 
-2.654093e-12 1.023365e+01 1.809771e+01 2.259442e+01 2.478116e+01 2.368918e+01 2.104624e+01 2.708570e+01 -8.513935e+00 -4.447552e+01 1.510146e+01 7.707637e+00 -1.336964e+01 -1.348199e+00 2.268233e+00 2.512583e+00 -5.294030e-13 -2.512583e+00 -2.268233e+00 1.348199e+00 1.336964e+01 -7.707637e+00 -1.510146e+01 4.447552e+01 8.513935e+00 -2.708570e+01 -2.104624e+01 -2.368918e+01 -2.478116e+01 -2.259442e+01 -1.809771e+01 -1.023365e+01 
-2.237887e-12 8.929917e+00 1.643657e+01 2.235415e+01 2.797834e+01 3.206192e+01 3.452571e+01 3.584845e+01 -4.200641e+01 -2.810873e+01 2.068087e+01 -6.892879e+00 -8.062515e+00 -3.282292e+00 -5.017591e-01 5.688871e-01 2.863758e-14 -5.688871e-01 5.017591e-01 3.282292e+00 8.062515e+00 6.892879e+00 -2.068087e+01 2.810873e+01 4.200641e+01 -3.584845e+01 -3.452571e+01 -3.206192e+01 -2.797834e+01 -2.235415e+01 -1.643657e+01 -8.929917e+00 
-1.581320e-12 5.835243e+00 1.132714e+01 1.687675e+01 2.300001e+01 2.733251e+01 2.729763e+01 1.620305e+01 -3.386464e+01 -2.012471e-01 1.375794e+01 -1.503850e+01 -9.214530e+00 -3.892261e+00 -1.155175e+00 -1.361729e-01 -9.140405e-15 1.361729e-01 1.155175e+00 3.892261e+00 9.214530e+00 1.503850e+01 -1.375794e+01 2.012471e-01 3.386464e+01 -1.620305e+01 -2.729763e+01 -2.733251e+01 -2.300001e+01 -1.687675e+01 -1.132714e+01 -5.835243e+00 
-1.318190e-12 -7.817118e-13 3.710276e-13 2.326083e-12 4.757208e-12 6.916536e-12 7.242113e-12 9.308397e-13 -1.495809e-11 9.261851e-13 1.286017e-11 1.188519e-12 -2.217451e-12 -1.548717e-12 -7.294973e-13 -1.720212e-13 1.232949e-15 1.179637e-13 5.385111e-13 3.057750e-12 9.410410e-12 1.619121e-11 4.336475e-12 -3.211121e-11 -4.954671e-11 8.078535e-12 3.153249e-11 2.862529e-11 1.996440e-11 1.094862e-11 3.822954e-12 -2.082329e-13 
-1.831977e-12 -5.835243e+00 -1.132714e+01 -1.687675e+01 -2.300001e+01 -2.733251e+01 -2.729763e+01 -1.620305e+01 3.386464e+01 2.012471e-01 -1.375794e+01 1.503850e+01 9.214530e+00 3.892261e+00 1.155175e+00 1.361729e-01 -2.393704e-13 -1.361729e-01 -1.155175e+00 -3.892261e+00 -9.214530e+00 -1.503850e+01 1.375794e+01 -2.012471e-01 -3.386464e+01 1.620305e+01 2.729763e+01 2.733251e+01 2.300001e+01 1.687675e+01 1.132714e+01 5.835243e+00 
-2.719459e-12 -8.929917e+00 -1.643657e+01 -2.235415e+01 -2.797834e+01 -3.206192e+01 -3.452571e+01 -3.584845e+01 4.200641e+01 2.810873e+01 -2.068087e+01 6.892879e+00 8.062515e+00 3.282292e+00 5.017591e-01 -5.688871e-01 -5.528073e-13 5.688871e-01 -5.017591e-01 -3.282292e+00 -8.062515e+00 -6.892879e+00 2.068087e+01 -2.810873e+01 -4.200641e+01 3.584845e+01 3.452571e+01 3.206192e+01 2.797834e+01 2.235415e+01 1.643657e+01 8.929917e+00 
-3.394926e-12 -1.023365e+01 -1.809771e+01 -2.259442e+01 -2.478116e+01 -2.368918e+01 -2.104624e+01 -2.708570e+01 8.513935e+00 4.447552e+01 -1.510146e+01 -7.707637e+00 1.336964e+01 1.348199e+00 -2.268233e+00 -2.512583e+00 -2.720800e-12 2.512583e+00 2.268233e+00 -1.348199e+00 -1.336964e+01 7.707637e+00 1.510146e+01 -4.447552e+01 -8.513935e+00 2.708570e+01 2.104624e+01 2.368918e+01 2.478116e+01 2.259442e+01 1.809771e+01 1.023365e+01 
-3.851473e-12 -1.019993e+01 -1.763680e+01 -2.102748e+01 -2.103557e+01 -1.839837e+01 -1.328076e+01 -7.908940e+00 -1.662953e+01 4.851553e+01 1.127999e+01 -2.727787e+01 6.002916e+00 -3.225163e+00 -9.151868e+00 -7.888533e+00 -8.184234e-12 7.888533e+00 9.151868e+00 3.225163e+00 -6.002916e+00 2.727787e+01 -1.127999e+01 -4.851553e+01 1.662953e+01 7.908940e+00 1.328076e+01 1.839837e+01 2.103557e+01 2.102748e+01 1.763680e+01 1.019993e+01 
-3.920673e-12 -9.376493e+00 -1.605525e+01 -1.880037e+01 -1.808345e+01 -1.544759e+01 -1.292942e+01 -1.504065e+01 -3.549916e+01 7.969429e+00 3.412653e+01 -1.248051e+00 -4.897591e+00 -1.055152e+01 -1.408666e+01 -1.638739e+01 -2.722186e-11 1.638739e+01 1.408666e+01 1.055152e+01 4.897591e+00 1.248051e+00 -3.412653e+01 -7.969429e+00 3.549916e+01 1.504065e+01 1.292942e+01 1.544759e+01 1.808345e+01 1.880037e+01 1.605525e+01 9.376493e+00 
-3.702856e-12 -8.127637e+00 -1.388855e+01 -1.624133e+01 -1.554164e+01 -1.311568e+01 -9.747401e+00 -6.045971e+00 -1.193296e+01 -1.747414e+01 -1.208189e+00 -8.305850e+00 8.820323e+00 3.522355e+01 2.230920e+01 -2.459967e+00 -2.257159e-11 2.459967e+00 -2.230920e+01 -3.522355e+01 -8.820323e+00 8.305850e+00 1.208189e+00 1.747414e+01 1.193296e+01 6.045971e+00 9.747401e+00 1.311568e+01 1.554164e+01 1.624133e+01 1.388855e+01 8.127637e+00 
-3.128284e-12 -6.678741e+00 -1.138413e+01 -1.324682e+01 -1.254076e+01 -1.021524e+01 -7.218874e+00 -3.963863e+00 1.346740e+00 6.927568e+00 1.729442e+00 -3.721210e+01 -4.830323e+01 -9.618698e+00 4.653248e+01 4.612753e+01 -6.163978e-12 -4.612753e+01 -4.653248e+01 9.618698e+00 4.830323e+01 3.721210e+01 -1.729442e+00 -6.927568e+00 -1.346740e+00 3.963863e+00 7.218874e+00 1.021524e+01 1.254076e+01 1.324682e+01 1.138413e+01 6.678741e+00 
-2.556016e-12 -5.208800e+00 -8.820023e+00 -1.017005e+01 -9.423823e+00 -7.348096e+00 -4.713604e+00 -1.815195e+00 1.141860e+00 6.534164e+00 1.723260e+01 6.831862e+00 -3.020281e+01 -7.785542e+01 -5.729857e+01 -4.177593e+00 1.918030e-11 4.177593e+00 5.729857e+01 7.785542e+01 3.020281e+01 -6.831862e+00 -1.723260e+01 -6.534164e+00 -1.141860e+00 1.815195e+00 4.713604e+00 7.348096e+00 9.423823e+00 1.017005e+01 8.820023e+00 5.208800e+00 
-1.945020e-12 -3.815346e+00 -6.373024e+00 -7.182195e+00 -6.369349e+00 -4.517606e+00 -2.123075e+00 5.873891e-01 3.449804e+00 6.803473e+00 1.266569e+01 2.394188e+01 3.342812e+01 1.053664e+01 -3.857316e+01 -4.242809e+01 4.998065e-11 4.242809e+01 3.857316e+01 -1.053664e+01 -3.342812e+01 -2.394188e+01 -1.266569e+01 -6.803473e+00 -3.449804e+00 -5.873891e-01 2.123075e+00 4.517606e+00 6.369349e+00 7.182195e+00 6.373024e+00 3.815346e+00 
-1.405498e-12 -2.568687e+00 -4.200845e+00 -4.553983e+00 -3.719082e+00 -2.068472e+00 1.387112e-01 2.821909e+00 5.803703e+00 8.835076e+00 1.191951e+01 1.804439e+01 2.069828e+01 3.797657e+01 4.224509e+01 1.504241e+01 -1.107014e-11 -1.504241e+01 -4.224509e+01 -3.797657e+01 -2.069828e+01 -1.804439e+01 -1.191951e+01 -8.835076e+00 -5.803703e+00 -2.821909e+00 -1.387112e-01 2.068472e+00 3.719082e+00 4.553983e+00 4.200845e+00 2.568687e+00 
-9.115280e-13 -1.574892e+00 -2.495838e+00 -2.521994e+00 -1.678161e+00 -1.310636e-01 2.070393e+00 4.898733e+00 8.136726e+00 1.144531e+01 1.437235e+01 1.712580e+01 2.005829e+01 2.595868e+01 2.837598e+01 1.754233e+01 -2.222865e-11 -1.754233e+01 -2.837598e+01 -2.595868e+01 -2.005829e+01 -1.712580e+01 -1.437235e+01 -1.144531e+01 -8.136726e+00 -4.898733e+00 -2.070393e+00 1.310636e-01 1.678161e+00 2.521994e+00 2.495838e+00 1.574892e+00 
-5.480527e-13 -8.500176e-01 -1.273495e+00 -1.089893e+00 -2.475473e-01 1.254949e+00 3.484196e+00 6.417894e+00 9.812957e+00 1.329032e+01 1.633982e+01 1.889734e+01 2.155673e+01 2.486777e+01 2.530211e+01 1.652780e+01 -2.217281e-11 -1.652780e+01 -2.530211e+01 -2.486777e+01 -2.155673e+01 -1.889734e+01 -1.633982e+01 -1.329032e+01 -9.812957e+00 -6.417894e+00 -3.484196e+00 -1.254949e+00 2.475473e-01 1.089893e+00 1.273495e+00 8.500176e-01 
-2.768408e-13 -3.985802e-01 -5.276431e-01 -2.387716e-01 5.791466e-01 2.018572e+00 4.183612e+00 7.031914e+00 1.033494e+01 1.373843e+01 1.683266e+01 1.951548e+01 2.188685e+01 2.388089e+01 2.325698e+01 1.521254e+01 -1.673311e-11 -1.521254e+01 -2.325698e+01 -2.388089e+01 -2.188685e+01 -1.951548e+01 -1.683266e+01 -1.373843e+01 -1.033494e+01 -7.031914e+00 -4.183612e+00 -2.018572e+00 -5.791466e-01 2.387716e-01 5.276431e-01 3.985802e-01 
-1.222097e-13 -1.490687e-01 -1.360546e-01 1.544291e-01 8.408753e-01 2.027854e+00 3.800484e+00 6.111300e+00 8.788253e+00 1.156727e+01 1.416816e+01 1.647827e+01 1.841652e+01 1.963577e+01 1.862913e+01 1.216479e+01 -8.965424e-12 -1.216479e+01 -1.862913e+01 -1.963577e+01 -1.841652e+01 -1.647827e+01 -1.416816e+01 -1.156727e+01 -8.788253e+00 -6.111300e+00 -3.800484e+00 -2.027854e+00 -8.408753e-01 -1.544291e-01 1.360546e-01 1.490687e-01 
-5.046868e-14 -4.001371e-02 -8.201287e-04 1.840061e-01 5.903327e-01 1.284083e+00 2.311935e+00 3.641743e+00 5.174565e+00 6.751224e+00 8.209593e+00 9.469925e+00 1.046148e+01 1.098480e+01 1.031466e+01 6.784272e+00 -3.706400e-12 -6.784272e+00 -1.031466e+01 -1.098480e+01 -1.046148e+01 -9.469925e+00 -8.209593e+00 -6.751224e+00 -5.174565e+00 -3.641743e+00 -2.311935e+00 -1.284083e+00 -5.903327e-01 -1.840061e-01 8.201287e-04 4.001371e-02 
