# vtk DataFile Version 2.0
Comment goes here
ASCII

DATASET STRUCTURED_POINTS
FIELD FieldData 1
TIME 1 1 double
0.10000000
DIMENSIONS    32   32   1

ORIGIN    0.000   0.000   0.000
SPACING   0.03125 0.03125   1.000

POINT_DATA   1024
SCALARS Omega double
LOOKUP_TABLE default

-1.082601e-13 -1.132643e-13 -1.025743e-13 -9.276209e-14 -4.173304e-14 -5.039721e-14 -6.005588e-14 -2.594409e-14 -2.060174e-14 -1.113202e-14 4.370299e-14 4.480604e-14 5.502906e-14 3.787254e-14 3.964228e-14 6.247482e-14 5.363780e-14 4.753288e-14 6.563249e-14 6.373597e-14 4.263970e-14 3.530457e-14 4.937909e-14 1.388088e-14 3.350619e-14 -2.476643e-14 -3.594396e-14 -5.520724e-14 -7.847114e-14 -8.747053e-14 -1.004424e-13 -1.026796e-13 
-8.063700e-14 -1.800800e-03 -2.901633e-03 -5.726100e-03 -5.466954e-03 -9.311404e-03 -1.205970e-02 -6.279109e-03 -4.708295e-03 -1.276377e-02 -4.693680e-02 -8.111123e-02 -1.468237e-02 4.367536e-01 6.488319e-01 -8.306509e-01 8.512039e-14 8.306509e-01 -6.488319e-01 -4.367536e-01 1.468237e-02 8.111123e-02 4.693680e-02 1.276377e-02 4.708295e-03 6.279109e-03 1.205970e-02 9.311404e-03 5.466954e-03 5.726100e-03 2.901633e-03 1.800800e-03 
-6.142446e-14 -3.515703e-03 -5.877866e-03 -1.142168e-02 -1.051290e-02 -2.159313e-02 -2.901637e-02 -7.740494e-04 3.217136e-03 -4.115848e-02 -1.176850e-01 -2.116565e-01 1.751068e-02 1.048023e-01 -2.859852e+00 -6.838113e+00 1.584320e-13 6.838113e+00 2.859852e+00 -1.048023e-01 -1.751068e-02 2.116565e-01 1.176850e-01 4.115848e-02 -3.217136e-03 7.740494e-04 2.901637e-02 2.159313e-02 1.051290e-02 1.142168e-02 5.877866e-03 3.515703e-03 
-7.038141e-14 -5.323992e-03 -9.888460e-03 -1.803746e-02 -1.665383e-02 -3.831187e-02 -4.130830e-02 7.521780e-02 8.658268e-02 -1.149805e-02 -8.602362e-02 3.211724e-02 8.716339e-01 -5.334691e-01 -8.498325e+00 -1.252407e+01 2.028841e-13 1.252407e+01 8.498325e+00 5.334691e-01 -8.716339e-01 -3.211724e-02 8.602362e-02 1.149805e-02 -8.658268e-02 -7.521780e-02 4.130830e-02 3.831187e-02 1.665383e-02 1.803746e-02 9.888460e-03 5.323992e-03 
-6.142433e-14 -7.009851e-03 -1.452193e-02 -2.360941e-02 -2.318243e-02 -4.987035e-02 -1.057616e-02 2.962912e-01 3.679295e-01 4.178350e-01 9.507178e-01 2.265118e+00 3.665617e+00 7.519322e-01 -7.905029e+00 -9.166399e+00 8.268364e-14 9.166399e+00 7.905029e+00 -7.519322e-01 -3.665617e+00 -2.265118e+00 -9.507178e-01 -4.178350e-01 -3.679295e-01 -2.962912e-01 1.057616e-02 4.987035e-02 2.318243e-02 2.360941e-02 1.452193e-02 7.009851e-03 
-2.322773e-14 -8.846017e-03 -2.132183e-02 -2.630761e-02 -2.157195e-02 1.628874e-02 2.782993e-01 9.664754e-01 1.844573e+00 3.476539e+00 6.127168e+00 9.305666e+00 9.983566e+00 4.367462e+00 -1.800786e+00 -1.105772e+00 -2.824683e-14 1.105772e+00 1.800786e+00 -4.367462e+00 -9.983566e+00 -9.305666e+00 -6.127168e+00 -3.476539e+00 -1.844573e+00 -9.664754e-01 -2.782993e-01 -1.628874e-02 2.157195e-02 2.630761e-02 2.132183e-02 8.846017e-03 
2.704524e-14 -1.033319e-02 -2.824865e-02 -1.614255e-02 4.173097e-02 3.729535e-01 1.306098e+00 3.046443e+00 6.970519e+00 1.253712e+01 1.698507e+01 1.735417e+01 1.122066e+01 3.405347e+00 2.028018e+00 3.102764e+00 1.877352e-14 -3.102764e+00 -2.028018e+00 -3.405347e+00 -1.122066e+01 -1.735417e+01 -1.698507e+01 -1.253712e+01 -6.970519e+00 -3.046443e+00 -1.306098e+00 -3.729535e-01 -4.173097e-02 1.614255e-02 2.824865e-02 1.033319e-02 
4.719142e-14 -8.795518e-03 -2.560874e-02 8.165027e-02 4.867400e-01 1.893607e+00 4.822450e+00 8.673348e+00 1.394707e+01 1.714156e+01 1.290547e+01 9.902264e-02 -1.554849e+01 -1.997040e+01 -1.655095e+01 -1.174970e+01 -4.444733e-13 1.174970e+01 1.655095e+01 1.997040e+01 1.554849e+01 -9.902264e-02 -1.290547e+01 -1.714156e+01 -1.394707e+01 -8.673348e+00 -4.822450e+00 -1.893607e+00 -4.867400e-01 -8.165027e-02 2.560874e-02 8.795518e-03 
8.927842e-14 6.641681e-03 2.243849e-02 4.694586e-01 1.950306e+00 5.402653e+00 9.610209e+00 8.804490e+00 -3.827071e+00 -2.683422e+01 -4.615787e+01 -5.319537e+01 -4.894655e+01 -3.563170e+01 -2.575563e+01 -1.891742e+01 8.064822e-13 1.891742e+01 2.575563e+01 3.563170e+01 4.894655e+01 5.319537e+01 4.615787e+01 2.683422e+01 3.827071e+00 -8.804490e+00 -9.610209e+00 -5.402653e+00 -1.950306e+00 -4.694586e-01 -2.243849e-02 -6.641681e-03 
9.209960e-14 8.733907e-02 3.440899e-01 1.986557e+00 5.530443e+00 7.589678e+00 -5.965407e+00 -3.996940e+01 -7.062744e+01 -7.286034e+01 -5.689961e+01 -4.666125e+01 -3.099003e+01 -1.510219e+01 -5.013717e+00 1.451167e-01 1.699839e-12 -1.451167e-01 5.013717e+00 1.510219e+01 3.099003e+01 4.666125e+01 5.689961e+01 7.286034e+01 7.062744e+01 3.996940e+01 5.965407e+00 -7.589678e+00 -5.530443e+00 -1.986557e+00 -3.440899e-01 -8.733907e-02 
1.109882e-13 4.100147e-01 1.540326e+00 5.468849e+00 7.169660e+00 -8.446448e+00 -5.771894e+01 -9.348803e+01 -1.034991e+02 -7.064025e+01 -2.008585e+01 1.344984e-01 1.318531e+01 2.039450e+01 2.072821e+01 1.954305e+01 5.680761e-13 -1.954305e+01 -2.072821e+01 -2.039450e+01 -1.318531e+01 -1.344984e-01 2.008585e+01 7.064025e+01 1.034991e+02 9.348803e+01 5.771894e+01 8.446448e+00 -7.169660e+00 -5.468849e+00 -1.540326e+00 -4.100147e-01 
1.125465e-13 1.655643e+00 5.518873e+00 1.405836e+01 1.002406e+01 -5.368179e+01 -1.179786e+02 -1.033567e+02 -5.297844e+01 8.627080e+00 4.223673e+01 3.830393e+01 3.499277e+01 3.293966e+01 2.492529e+01 1.740829e+01 -1.812045e-13 -1.740829e+01 -2.492529e+01 -3.293966e+01 -3.499277e+01 -3.830393e+01 -4.223673e+01 -8.627080e+00 5.297844e+01 1.033567e+02 1.179786e+02 5.368179e+01 -1.002406e+01 -1.405836e+01 -5.518873e+00 -1.655643e+00 
1.129213e-13 6.049220e+00 1.641858e+01 3.373631e+01 -8.112504e+00 -1.280476e+02 -1.211961e+02 -4.330697e+01 2.687066e+01 5.312752e+01 3.941616e+01 2.623400e+01 3.058566e+01 2.480094e+01 1.085811e+01 4.485055e+00 -1.664641e-13 -4.485055e+00 -1.085811e+01 -2.480094e+01 -3.058566e+01 -2.623400e+01 -3.941616e+01 -5.312752e+01 -2.687066e+01 4.330697e+01 1.211961e+02 1.280476e+02 8.112504e+00 -3.373631e+01 -1.641858e+01 -6.049220e+00 
1.468356e-13 1.554929e+01 3.629566e+01 3.773279e+01 -1.076844e+02 -1.623756e+02 -5.083217e+01 8.645770e+00 3.823194e+01 1.521105e+01 -2.509887e+01 -2.267184e+01 1.902654e+00 7.091594e+00 2.142385e+00 1.305263e+00 -1.687711e-13 -1.305263e+00 -2.142385e+00 -7.091594e+00 -1.902654e+00 2.267184e+01 2.509887e+01 -1.521105e+01 -3.823194e+01 -8.645770e+00 5.083217e+01 1.623756e+02 1.076844e+02 -3.773279e+01 -3.629566e+01 -1.554929e+01 
-2.679288e-13 2.181788e+01 6.799305e+01 -1.890200e+00 -1.944603e+02 -8.990033e+01 3.361281e+01 2.529487e+01 6.804538e+00 -1.873767e+01 -4.116886e+01 -3.261671e+01 -1.138770e+01 -9.006216e-01 -8.239810e-02 1.726368e-01 -1.211141e-13 -1.726368e-01 8.239810e-02 9.006216e-01 1.138770e+01 3.261671e+01 4.116886e+01 1.873767e+01 -6.804538e+00 -2.529487e+01 -3.361281e+01 8.990033e+01 1.944603e+02 1.890200e+00 -6.799305e+01 -2.181788e+01 
-3.041632e-13 1.830978e+01 7.119169e+01 -4.036037e+01 -1.254072e+02 2.058103e+01 4.623177e+01 5.215782e+00 2.737925e-01 -1.053752e+01 -2.510846e+01 -2.387430e+01 -1.271136e+01 -3.810049e+00 -8.160608e-01 -8.767106e-02 -1.139608e-13 8.767106e-02 8.160608e-01 3.810049e+00 1.271136e+01 2.387430e+01 2.510846e+01 1.053752e+01 -2.737925e-01 -5.215782e+00 -4.623177e+01 -2.058103e+01 1.254072e+02 4.036037e+01 -7.119169e+01 -1.830978e+01 
9.548497e-13 1.919694e-12 1.165016e-12 4.743178e-13 7.330546e-13 8.664348e-13 -5.786361e-13 -3.059295e-13 2.164835e-13 -5.706775e-14 -3.280283e-13 -4.724834e-13 -2.412528e-13 -1.407180e-13 -7.254433e-14 -1.154671e-13 -7.420560e-14 -9.972312e-14 -7.447082e-14 -1.026077e-13 -4.885178e-14 -7.945057e-14 -7.299645e-14 -8.594574e-14 5.661063e-15 4.848817e-14 7.477559e-13 3.574316e-12 3.083261e-12 4.834186e-13 8.345338e-13 7.798187e-13 
-1.621977e-13 -1.830978e+01 -7.119169e+01 4.036037e+01 1.254072e+02 -2.058103e+01 -4.623177e+01 -5.215782e+00 -2.737925e-01 1.053752e+01 2.510846e+01 2.387430e+01 1.271136e+01 3.810049e+00 8.160608e-01 8.767106e-02 -3.982382e-14 -8.767106e-02 -8.160608e-01 -3.810049e+00 -1.271136e+01 -2.387430e+01 -2.510846e+01 -1.053752e+01 2.737925e-01 5.215782e+00 4.623177e+01 2.058103e+01 -1.254072e+02 -4.036037e+01 7.119169e+01 1.830978e+01 
-3.076172e-13 -2.181788e+01 -6.799305e+01 1.890200e+00 1.944603e+02 8.990033e+01 -3.361281e+01 -2.529487e+01 -6.804538e+00 1.873767e+01 4.116886e+01 3.261671e+01 1.138770e+01 9.006216e-01 8.239810e-02 -1.726368e-01 3.604521e-15 1.726368e-01 -8.239810e-02 -9.006216e-01 -1.138770e+01 -3.261671e+01 -4.116886e+01 -1.873767e+01 6.804538e+00 2.529487e+01 3.361281e+01 -8.990033e+01 -1.944603e+02 -1.890200e+00 6.799305e+01 2.181788e+01 
-9.551779e-15 -1.554929e+01 -3.629566e+01 -3.773279e+01 1.076844e+02 1.623756e+02 5.083217e+01 -8.645770e+00 -3.823194e+01 -1.521105e+01 2.509887e+01 2.267184e+01 -1.902654e+00 -7.091594e+00 -2.142385e+00 -1.305263e+00 -3.933178e-14 1.305263e+00 2.142385e+00 7.091594e+00 1.902654e+00 -2.267184e+01 -2.509887e+01 1.521105e+01 3.823194e+01 8.645770e+00 -5.083217e+01 -1.623756e+02 -1.076844e+02 3.773279e+01 3.629566e+01 1.554929e+01 
-2.314057e-15 -6.049220e+00 -1.641858e+01 -3.373631e+01 8.112504e+00 1.280476e+02 1.211961e+02 4.330697e+01 -2.687066e+01 -5.312752e+01 -3.941616e+01 -2.623400e+01 -3.058566e+01 -2.480094e+01 -1.085811e+01 -4.485055e+00 -1.197238e-13 4.485055e+00 1.085811e+01 2.480094e+01 3.058566e+01 2.623400e+01 3.941616e+01 5.312752e+01 2.687066e+01 -4.330697e+01 -1.211961e+02 -1.280476e+02 -8.112504e+00 3.373631e+01 1.641858e+01 6.049220e+00 
6.698341e-14 -1.655643e+00 -5.518873e+00 -1.405836e+01 -1.002406e+01 5.368179e+01 1.179786e+02 1.033567e+02 5.297844e+01 -8.627080e+00 -4.223673e+01 -3.830393e+01 -3.499277e+01 -3.293966e+01 -2.492529e+01 -1.740829e+01 -3.975384e-12 1.740829e+01 2.492529e+01 3.293966e+01 3.499277e+01 3.830393e+01 4.223673e+01 8.627080e+00 -5.297844e+01 -1.033567e+02 -1.179786e+02 -5.368179e+01 1.002406e+01 1.405836e+01 5.518873e+00 1.655643e+00 
2.545832e-14 -4.100147e-01 -1.540326e+00 -5.468849e+00 -7.169660e+00 8.446448e+00 5.771894e+01 9.348803e+01 1.034991e+02 7.064025e+01 2.008585e+01 -1.344984e-01 -1.318531e+01 -2.039450e+01 -2.072821e+01 -1.954305e+01 -8.867368e-12 1.954305e+01 2.072821e+01 2.039450e+01 1.318531e+01 1.344984e-01 -2.008585e+01 -7.064025e+01 -1.034991e+02 -9.348803e+01 -5.771894e+01 -8.446448e+00 7.169660e+00 5.468849e+00 1.540326e+00 4.100147e-01 
5.821208e-14 -8.733907e-02 -3.440899e-01 -1.986557e+00 -5.530443e+00 -7.589678e+00 5.965407e+00 3.996940e+01 7.062744e+01 7.286034e+01 5.689961e+01 4.666125e+01 3.099003e+01 1.510219e+01 5.013717e+00 -1.451167e-01 -2.203894e-13 1.451167e-01 -5.013717e+00 -1.510219e+01 -3.099003e+01 -4.666125e+01 -5.689961e+01 -7.286034e+01 -7.062744e+01 -3.996940e+01 -5.965407e+00 7.589678e+00 5.530443e+00 1.986557e+00 3.440899e-01 8.733907e-02 
5.420284e-14 -6.641681e-03 -2.243849e-02 -4.694586e-01 -1.950306e+00 -5.402653e+00 -9.610209e+00 -8.804490e+00 3.827071e+00 2.683422e+01 4.615787e+01 5.319537e+01 4.894655e+01 3.563170e+01 2.575563e+01 1.891742e+01 8.306354e-12 -1.891742e+01 -2.575563e+01 -3.563170e+01 -4.894655e+01 -5.319537e+01 -4.615787e+01 -2.683422e+01 -3.827071e+00 8.804490e+00 9.610209e+00 5.402653e+00 1.950306e+00 4.694586e-01 2.243849e-02 6.641681e-03 
2.569189e-14 8.795518e-03 2.560874e-02 -8.165027e-02 -4.867400e-01 -1.893607e+00 -4.822450e+00 -8.673348e+00 -1.394707e+01 -1.714156e+01 -1.290547e+01 -9.902264e-02 1.554849e+01 1.997040e+01 1.655095e+01 1.174970e+01 4.776374e-12 -1.174970e+01 -1.655095e+01 -1.997040e+01 -1.554849e+01 9.902264e-02 1.290547e+01 1.714156e+01 1.394707e+01 8.673348e+00 4.822450e+00 1.893607e+00 4.867400e-01 8.165027e-02 -2.560874e-02 -8.795518e-03 
7.700650e-15 1.033319e-02 2.824865e-02 1.614255e-02 -4.173097e-02 -3.729535e-01 -1.306098e+00 -3.046443e+00 -6.970519e+00 -1.253712e+01 -1.698507e+01 -1.735417e+01 -1.122066e+01 -3.405347e+00 -2.028018e+00 -3.102764e+00 9.827129e-13 3.102764e+00 2.028018e+00 3.405347e+00 1.122066e+01 1.735417e+01 1.698507e+01 1.253712e+01 6.970519e+00 3.046443e+00 1.306098e+00 3.729535e-01 4.173097e-02 -1.614255e-02 -2.824865e-02 -1.033319e-02 
-3.819174e-14 8.846017e-03 2.132183e-02 2.630761e-02 2.157195e-02 -1.628874e-02 -2.782993e-01 -9.664754e-01 -1.844573e+00 -3.476539e+00 -6.127168e+00 -9.305666e+00 -9.983566e+00 -4.367462e+00 1.800786e+00 1.105772e+00 4.945891e-13 -1.105772e+00 -1.800786e+00 4.367462e+00 9.983566e+00 9.305666e+00 6.127168e+00 3.476539e+00 1.844573e+00 9.664754e-01 2.782993e-01 1.628874e-02 -2.157195e-02 -2.630761e-02 -2.132183e-02 -8.846017e-03 
-4.237824e-14 7.009851e-03 1.452193e-02 2.360941e-02 2.318243e-02 4.987035e-02 1.057616e-02 -2.962912e-01 -3.679295e-01 -4.178350e-01 -9.507178e-01 -2.265118e+00 -3.665617e+00 -7.519322e-01 7.905029e+00 9.166399e+00 5.160614e-13 -9.166399e+00 -7.905029e+00 7.519322e-01 3.665617e+00 2.265118e+00 9.507178e-01 4.178350e-01 3.679295e-01 2.962912e-01 -1.057616e-02 -4.987035e-02 -2.318243e-02 -2.360941e-02 -1.452193e-02 -7.009851e-03 
-7.894771e-14 5.323992e-03 9.888460e-03 1.803746e-02 1.665383e-02 3.831187e-02 4.130830e-02 -7.521780e-02 -8.658268e-02 1.149805e-02 8.602362e-02 -3.211724e-02 -8.716339e-01 5.334691e-01 8.498325e+00 1.252407e+01 1.594436e-13 -1.252407e+01 -8.498325e+00 -5.334691e-01 8.716339e-01 3.211724e-02 -8.602362e-02 -1.149805e-02 8.658268e-02 7.521780e-02 -4.130830e-02 -3.831187e-02 -1.665383e-02 -1.803746e-02 -9.888460e-03 -5.323992e-03 
-7.694390e-14 3.515703e-03 5.877866e-03 1.142168e-02 1.051290e-02 2.159313e-02 2.901637e-02 7.740494e-04 -3.217136e-03 4.115848e-02 1.176850e-01 2.116565e-01 -1.751068e-02 -1.048023e-01 2.859852e+00 6.838113e+00 -6.436133e-14 -6.838113e+00 -2.859852e+00 1.048023e-01 1.751068e-02 -2.116565e-01 -1.176850e-01 -4.115848e-02 3.217136e-03 -7.740494e-04 -2.901637e-02 -2.159313e-02 -1.051290e-02 -1.142168e-02 -5.877866e-03 -3.515703e-03 
-9.490108e-14 1.800800e-03 2.901633e-03 5.726100e-03 5.466954e-03 9.311404e-03 1.205970e-02 6.279109e-03 4.708295e-03 1.276377e-02 4.693680e-02 8.111123e-02 1.468237e-02 -4.367536e-01 -6.488319e-01 8.306509e-01 3.123426e-15 -8.306509e-01 6.488319e-01 4.367536e-01 -1.468237e-02 -8.111123e-02 -4.693680e-02 -1.276377e-02 -4.708295e-03 -6.279109e-03 -1.205970e-02 -9.311404e-03 -5.466954e-03 -5.726100e-03 -2.901633e-03 -1.800800e-03 
