# vtk DataFile Version 2.0
Comment goes here
ASCII

DATASET STRUCTURED_POINTS
FIELD FieldData 1
TIME 1 1 double
0.94000000
DIMENSIONS    32   32   1

ORIGIN    0.000   0.000   0.000
SPACING   0.03125 0.03125   1.000

POINT_DATA   1024
SCALARS Omega double
LOOKUP_TABLE default

-4.735169e-14 -3.725758e-14 -3.301422e-14 -5.699897e-14 -8.839226e-14 -1.629733e-13 -2.268480e-13 -2.457295e-13 -2.691352e-13 -2.316155e-13 -1.868897e-13 -8.899829e-14 7.404898e-14 1.049176e-13 1.541201e-13 -7.646435e-14 -5.087511e-13 -6.084661e-13 -6.928565e-13 -4.444854e-13 -7.964975e-14 8.698172e-14 7.170577e-14 1.401991e-14 -1.409126e-13 -2.032720e-13 -2.247942e-13 -1.619455e-13 -1.186482e-13 -6.071142e-14 -5.102721e-14 -4.186848e-14 
-4.070580e-14 3.395775e-02 1.569633e-02 -1.110337e-01 -4.177799e-01 -1.009988e+00 -1.961397e+00 -3.296287e+00 -4.910098e+00 -6.654557e+00 -8.385591e+00 -1.001024e+01 -1.146731e+01 -1.241627e+01 -1.180689e+01 -7.879762e+00 -4.284566e-13 7.879762e+00 1.180689e+01 1.241627e+01 1.146731e+01 1.001024e+01 8.385591e+00 6.654557e+00 4.910098e+00 3.296287e+00 1.961397e+00 1.009988e+00 4.177799e-01 1.110337e-01 -1.569633e-02 -3.395775e-02 
-4.144221e-14 1.170062e-01 1.248811e-01 -7.089625e-02 -5.758269e-01 -1.560571e+00 -3.159958e+00 -5.442260e+00 -8.249779e+00 -1.133722e+01 -1.445737e+01 -1.739459e+01 -2.006732e+01 -2.188770e+01 -2.073073e+01 -1.338835e+01 4.790105e-13 1.338835e+01 2.073073e+01 2.188770e+01 2.006732e+01 1.739459e+01 1.445737e+01 1.133722e+01 8.249779e+00 5.442260e+00 3.159958e+00 1.560571e+00 5.758269e-01 7.089625e-02 -1.248811e-01 -1.170062e-01 
-9.952276e-14 3.038813e-01 4.151188e-01 2.177074e-01 -3.738394e-01 -1.525588e+00 -3.403467e+00 -6.121260e+00 -9.499741e+00 -1.319150e+01 -1.688063e+01 -2.024677e+01 -2.345910e+01 -2.614347e+01 -2.497849e+01 -1.556681e+01 1.364309e-12 1.556681e+01 2.497849e+01 2.614347e+01 2.345910e+01 2.024677e+01 1.688063e+01 1.319150e+01 9.499741e+00 6.121260e+00 3.403467e+00 1.525588e+00 3.738394e-01 -2.177074e-01 -4.151188e-01 -3.038813e-01 
-2.363293e-13 6.678399e-01 1.000304e+00 8.617264e-01 2.420527e-01 -9.216129e-01 -2.762477e+00 -5.429320e+00 -8.769870e+00 -1.239520e+01 -1.601589e+01 -1.929452e+01 -2.298414e+01 -2.688804e+01 -2.608473e+01 -1.545118e+01 1.232390e-12 1.545118e+01 2.608473e+01 2.688804e+01 2.298414e+01 1.929452e+01 1.601589e+01 1.239520e+01 8.769870e+00 5.429320e+00 2.762477e+00 9.216129e-01 -2.420527e-01 -8.617264e-01 -1.000304e+00 -6.678399e-01 
-3.724222e-13 1.293890e+00 2.021706e+00 1.998923e+00 1.317746e+00 1.150630e-01 -1.628090e+00 -4.046253e+00 -7.046514e+00 -1.024630e+01 -1.364024e+01 -1.765843e+01 -2.350342e+01 -2.935245e+01 -2.880001e+01 -1.635613e+01 -4.098863e-13 1.635613e+01 2.880001e+01 2.935245e+01 2.350342e+01 1.765843e+01 1.364024e+01 1.024630e+01 7.046514e+00 4.046253e+00 1.628090e+00 -1.150630e-01 -1.317746e+00 -1.998923e+00 -2.021706e+00 -1.293890e+00 
-5.464550e-13 2.226047e+00 3.567567e+00 3.747865e+00 2.944797e+00 1.586481e+00 -1.549328e-01 -2.334621e+00 -4.937669e+00 -7.753003e+00 -1.208849e+01 -2.394541e+01 -3.360977e+01 -3.735721e+01 -2.551040e+01 -5.600299e+00 1.829249e-13 5.600299e+00 2.551040e+01 3.735721e+01 3.360977e+01 2.394541e+01 1.208849e+01 7.753003e+00 4.937669e+00 2.334621e+00 1.549328e-01 -1.586481e+00 -2.944797e+00 -3.747865e+00 -3.567567e+00 -2.226047e+00 
-6.071951e-13 3.474074e+00 5.674928e+00 6.179442e+00 5.216086e+00 3.527833e+00 1.532914e+00 -6.801690e-01 -2.963733e+00 -6.174620e+00 -1.800945e+01 -4.047531e+01 -2.590191e+01 2.812633e+01 6.159069e+01 3.715575e+01 3.010870e-12 -3.715575e+01 -6.159069e+01 -2.812633e+01 2.590191e+01 4.047531e+01 1.800945e+01 6.174620e+00 2.963733e+00 6.801690e-01 -1.532914e+00 -3.527833e+00 -5.216086e+00 -6.179442e+00 -5.674928e+00 -3.474074e+00 
-5.790214e-13 4.972746e+00 8.222581e+00 9.159415e+00 8.028645e+00 5.961560e+00 3.584852e+00 1.418813e+00 -8.614890e-01 -6.022444e+00 -2.342451e+01 -1.031975e+01 4.524107e+01 6.197202e+01 1.928891e+01 -1.282327e+01 -5.234227e-14 1.282327e+01 -1.928891e+01 -6.197202e+01 -4.524107e+01 1.031975e+01 2.342451e+01 6.022444e+00 8.614890e-01 -1.418813e+00 -3.584852e+00 -5.961560e+00 -8.028645e+00 -9.159415e+00 -8.222581e+00 -4.972746e+00 
-3.173967e-13 6.664840e+00 1.108819e+01 1.248019e+01 1.117390e+01 8.636529e+00 5.711806e+00 1.907059e+00 -5.331373e+00 -1.055241e+01 -1.816615e+01 2.064884e+01 2.610656e+01 -3.177244e+01 -6.711821e+01 -4.262693e+01 -1.420823e-12 4.262693e+01 6.711821e+01 3.177244e+01 -2.610656e+01 -2.064884e+01 1.816615e+01 1.055241e+01 5.331373e+00 -1.907059e+00 -5.711806e+00 -8.636529e+00 -1.117390e+01 -1.248019e+01 -1.108819e+01 -6.664840e+00 
4.075073e-15 8.428444e+00 1.409068e+01 1.595550e+01 1.459137e+01 1.155989e+01 6.943275e+00 2.486548e-01 7.577191e+00 -4.487126e+00 -2.293066e+01 -4.988105e+00 -1.790826e+01 -2.476726e+01 -1.587731e+00 1.128137e+01 -7.042190e-13 -1.128137e+01 1.587731e+00 2.476726e+01 1.790826e+01 4.988105e+00 2.293066e+01 4.487126e+00 -7.577191e+00 -2.486548e-01 -6.943275e+00 -1.155989e+01 -1.459137e+01 -1.595550e+01 -1.409068e+01 -8.428444e+00 
4.225387e-13 1.000961e+01 1.685289e+01 1.926673e+01 1.803154e+01 1.499782e+01 9.867948e+00 1.418932e+01 2.857492e+01 -3.335373e+01 -2.781195e+01 2.799278e+00 3.786679e+00 1.717581e+01 2.141831e+01 1.792924e+01 -1.387262e-12 -1.792924e+01 -2.141831e+01 -1.717581e+01 -3.786679e+00 -2.799278e+00 2.781195e+01 3.335373e+01 -2.857492e+01 -1.418932e+01 -9.867948e+00 -1.499782e+01 -1.803154e+01 -1.926673e+01 -1.685289e+01 -1.000961e+01 
5.543136e-13 1.103261e+01 1.891237e+01 2.216053e+01 2.214722e+01 1.953441e+01 1.382011e+01 2.225413e+01 -1.134590e+01 -5.777045e+01 5.629950e-01 5.255309e+00 -6.738894e+00 5.772501e+00 7.679531e+00 6.342029e+00 -1.297483e-13 -6.342029e+00 -7.679531e+00 -5.772501e+00 6.738894e+00 -5.255309e+00 -5.629950e-01 5.777045e+01 1.134590e+01 -2.225413e+01 -1.382011e+01 -1.953441e+01 -2.214722e+01 -2.216053e+01 -1.891237e+01 -1.103261e+01 
4.100013e-13 1.106915e+01 1.960494e+01 2.433355e+01 2.686526e+01 2.606809e+01 2.616279e+01 3.183301e+01 -5.776143e+01 -3.360359e+01 2.782001e+01 -6.347609e+00 -1.024402e+01 -1.904076e+00 1.415426e+00 2.000376e+00 5.760297e-14 -2.000376e+00 -1.415426e+00 1.904076e+00 1.024402e+01 6.347609e+00 -2.782001e+01 3.360359e+01 5.776143e+01 -3.183301e+01 -2.616279e+01 -2.606809e+01 -2.686526e+01 -2.433355e+01 -1.960494e+01 -1.106915e+01 
-1.172798e-13 9.590333e+00 1.786865e+01 2.442233e+01 3.058688e+01 3.680443e+01 4.294098e+01 1.839115e+01 -6.514681e+01 -7.730526e+00 2.571065e+01 -1.045370e+01 -7.167415e+00 -3.434901e+00 -6.080838e-01 4.527923e-01 9.564813e-14 -4.527923e-01 6.080838e-01 3.434901e+00 7.167415e+00 1.045370e+01 -2.571065e+01 7.730526e+00 6.514681e+01 -1.839115e+01 -4.294098e+01 -3.680443e+01 -3.058688e+01 -2.442233e+01 -1.786865e+01 -9.590333e+00 
-7.717945e-13 5.884494e+00 1.174202e+01 1.786425e+01 2.498425e+01 3.181678e+01 3.185257e+01 -1.083941e+01 -3.636656e+01 7.074823e+00 1.057236e+01 -1.164799e+01 -7.171932e+00 -3.513585e+00 -1.130450e+00 -1.157947e-01 7.716425e-14 1.157947e-01 1.130450e+00 3.513585e+00 7.171932e+00 1.164799e+01 -1.057236e+01 -7.074823e+00 3.636656e+01 1.083941e+01 -3.185257e+01 -3.181678e+01 -2.498425e+01 -1.786425e+01 -1.174202e+01 -5.884494e+00 
-1.546938e-12 -1.648077e-12 -1.689560e-12 -1.405714e-12 -6.257045e-13 6.856901e-13 2.055630e-12 -2.563723e-12 -8.534531e-12 9.083967e-14 4.336127e-12 -1.919265e-13 -3.502991e-13 -1.587505e-13 4.737448e-15 9.452129e-15 1.037952e-13 1.336445e-13 2.752144e-13 3.363730e-13 8.466329e-13 2.868386e-12 9.910166e-12 -4.865279e-12 -2.231767e-11 -9.462016e-12 3.607805e-12 -6.588001e-13 -2.443235e-12 -2.448654e-12 -2.088251e-12 -1.683345e-12 
-1.434021e-12 -5.884494e+00 -1.174202e+01 -1.786425e+01 -2.498425e+01 -3.181678e+01 -3.185257e+01 1.083941e+01 3.636656e+01 -7.074823e+00 -1.057236e+01 1.164799e+01 7.171932e+00 3.513585e+00 1.130450e+00 1.157947e-01 1.272220e-13 -1.157947e-01 -1.130450e+00 -3.513585e+00 -7.171932e+00 -1.164799e+01 1.057236e+01 7.074823e+00 -3.636656e+01 -1.083941e+01 3.185257e+01 3.181678e+01 2.498425e+01 1.786425e+01 1.174202e+01 5.884494e+00 
-7.604743e-13 -9.590333e+00 -1.786865e+01 -2.442233e+01 -3.058688e+01 -3.680443e+01 -4.294098e+01 -1.839115e+01 6.514681e+01 7.730526e+00 -2.571065e+01 1.045370e+01 7.167415e+00 3.434901e+00 6.080838e-01 -4.527923e-01 3.345653e-13 4.527923e-01 -6.080838e-01 -3.434901e+00 -7.167415e+00 -1.045370e+01 2.571065e+01 -7.730526e+00 -6.514681e+01 1.839115e+01 4.294098e+01 3.680443e+01 3.058688e+01 2.442233e+01 1.786865e+01 9.590333e+00 
-3.488665e-13 -1.106915e+01 -1.960494e+01 -2.433355e+01 -2.686526e+01 -2.606809e+01 -2.616279e+01 -3.183301e+01 5.776143e+01 3.360359e+01 -2.782001e+01 6.347609e+00 1.024402e+01 1.904076e+00 -1.415426e+00 -2.000376e+00 5.445082e-13 2.000376e+00 1.415426e+00 -1.904076e+00 -1.024402e+01 -6.347609e+00 2.782001e+01 -3.360359e+01 -5.776143e+01 3.183301e+01 2.616279e+01 2.606809e+01 2.686526e+01 2.433355e+01 1.960494e+01 1.106915e+01 
-1.524144e-13 -1.103261e+01 -1.891237e+01 -2.216053e+01 -2.214722e+01 -1.953441e+01 -1.382011e+01 -2.225413e+01 1.134590e+01 5.777045e+01 -5.629950e-01 -5.255309e+00 6.738894e+00 -5.772501e+00 -7.679531e+00 -6.342029e+00 7.897881e-13 6.342029e+00 7.679531e+00 5.772501e+00 -6.738894e+00 5.255309e+00 5.629950e-01 -5.777045e+01 -1.134590e+01 2.225413e+01 1.382011e+01 1.953441e+01 2.214722e+01 2.216053e+01 1.891237e+01 1.103261e+01 
-2.269641e-13 -1.000961e+01 -1.685289e+01 -1.926673e+01 -1.803154e+01 -1.499782e+01 -9.867948e+00 -1.418932e+01 -2.857492e+01 3.335373e+01 2.781195e+01 -2.799278e+00 -3.786679e+00 -1.717581e+01 -2.141831e+01 -1.792924e+01 -1.049772e-12 1.792924e+01 2.141831e+01 1.717581e+01 3.786679e+00 2.799278e+00 -2.781195e+01 -3.335373e+01 2.857492e+01 1.418932e+01 9.867948e+00 1.499782e+01 1.803154e+01 1.926673e+01 1.685289e+01 1.000961e+01 
-5.504440e-13 -8.428444e+00 -1.409068e+01 -1.595550e+01 -1.459137e+01 -1.155989e+01 -6.943275e+00 -2.486548e-01 -7.577191e+00 4.487126e+00 2.293066e+01 4.988105e+00 1.790826e+01 2.476726e+01 1.587731e+00 -1.128137e+01 -2.465454e-12 1.128137e+01 -1.587731e+00 -2.476726e+01 -1.790826e+01 -4.988105e+00 -2.293066e+01 -4.487126e+00 7.577191e+00 2.486548e-01 6.943275e+00 1.155989e+01 1.459137e+01 1.595550e+01 1.409068e+01 8.428444e+00 
-7.673090e-13 -6.664840e+00 -1.108819e+01 -1.248019e+01 -1.117390e+01 -8.636529e+00 -5.711806e+00 -1.907059e+00 5.331373e+00 1.055241e+01 1.816615e+01 -2.064884e+01 -2.610656e+01 3.177244e+01 6.711821e+01 4.262693e+01 -9.935601e-12 -4.262693e+01 -6.711821e+01 -3.177244e+01 2.610656e+01 2.064884e+01 -1.816615e+01 -1.055241e+01 -5.331373e+00 1.907059e+00 5.711806e+00 8.636529e+00 1.117390e+01 1.248019e+01 1.108819e+01 6.664840e+00 
-9.131627e-13 -4.972746e+00 -8.222581e+00 -9.159415e+00 -8.028645e+00 -5.961560e+00 -3.584852e+00 -1.418813e+00 8.614890e-01 6.022444e+00 2.342451e+01 1.031975e+01 -4.524107e+01 -6.197202e+01 -1.928891e+01 1.282327e+01 -9.792258e-12 -1.282327e+01 1.928891e+01 6.197202e+01 4.524107e+01 -1.031975e+01 -2.342451e+01 -6.022444e+00 -8.614890e-01 1.418813e+00 3.584852e+00 5.961560e+00 8.028645e+00 9.159415e+00 8.222581e+00 4.972746e+00 
-8.308970e-13 -3.474074e+00 -5.674928e+00 -6.179442e+00 -5.216086e+00 -3.527833e+00 -1.532914e+00 6.801690e-01 2.963733e+00 6.174620e+00 1.800945e+01 4.047531e+01 2.590191e+01 -2.812633e+01 -6.159069e+01 -3.715575e+01 7.082601e-12 3.715575e+01 6.159069e+01 2.812633e+01 -2.590191e+01 -4.047531e+01 -1.800945e+01 -6.174620e+00 -2.963733e+00 -6.801690e-01 1.532914e+00 3.527833e+00 5.216086e+00 6.179442e+00 5.674928e+00 3.474074e+00 
-6.355115e-13 -2.226047e+00 -3.567567e+00 -3.747865e+00 -2.944797e+00 -1.586481e+00 1.549328e-01 2.334621e+00 4.937669e+00 7.753003e+00 1.208849e+01 2.394541e+01 3.360977e+01 3.735721e+01 2.551040e+01 5.600299e+00 2.090053e-12 -5.600299e+00 -2.551040e+01 -3.735721e+01 -3.360977e+01 -2.394541e+01 -1.208849e+01 -7.753003e+00 -4.937669e+00 -2.334621e+00 -1.549328e-01 1.586481e+00 2.944797e+00 3.747865e+00 3.567567e+00 2.226047e+00 
-4.316740e-13 -1.293890e+00 -2.021706e+00 -1.998923e+00 -1.317746e+00 -1.150630e-01 1.628090e+00 4.046253e+00 7.046514e+00 1.024630e+01 1.364024e+01 1.765843e+01 2.350342e+01 2.935245e+01 2.880001e+01 1.635613e+01 -3.470442e-12 -1.635613e+01 -2.880001e+01 -2.935245e+01 -2.350342e+01 -1.765843e+01 -1.364024e+01 -1.024630e+01 -7.046514e+00 -4.046253e+00 -1.628090e+00 1.150630e-01 1.317746e+00 1.998923e+00 2.021706e+00 1.293890e+00 
-2.309374e-13 -6.678399e-01 -1.000304e+00 -8.617264e-01 -2.420527e-01 9.216129e-01 2.762477e+00 5.429320e+00 8.769870e+00 1.239520e+01 1.601589e+01 1.929452e+01 2.298414e+01 2.688804e+01 2.608473e+01 1.545118e+01 -1.409542e-12 -1.545118e+01 -2.608473e+01 -2.688804e+01 -2.298414e+01 -1.929452e+01 -1.601589e+01 -1.239520e+01 -8.769870e+00 -5.429320e+00 -2.762477e+00 -9.216129e-01 2.420527e-01 8.617264e-01 1.000304e+00 6.678399e-01 
-1.144731e-13 -3.038813e-01 -4.151188e-01 -2.177074e-01 3.738394e-01 1.525588e+00 3.403467e+00 6.121260e+00 9.499741e+00 1.319150e+01 1.688063e+01 2.024677e+01 2.345910e+01 2.614347e+01 2.497849e+01 1.556681e+01 1.050139e-13 -1.556681e+01 -2.497849e+01 -2.614347e+01 -2.345910e+01 -2.024677e+01 -1.688063e+01 -1.319150e+01 -9.499741e+00 -6.121260e+00 -3.403467e+00 -1.525588e+00 -3.738394e-01 2.177074e-01 4.151188e-01 3.038813e-01 
-3.478432e-14 -1.170062e-01 -1.248811e-01 7.089625e-02 5.758269e-01 1.560571e+00 3.159958e+00 5.442260e+00 8.249779e+00 1.133722e+01 1.445737e+01 1.739459e+01 2.006732e+01 2.188770e+01 2.073073e+01 1.338835e+01 7.611128e-13 -1.338835e+01 -2.073073e+01 -2.188770e+01 -2.006732e+01 -1.739459e+01 -1.445737e+01 -1.133722e+01 -8.249779e+00 -5.442260e+00 -3.159958e+00 -1.560571e+00 -5.758269e-01 -7.089625e-02 1.248811e-01 1.170062e-01 
-3.084982e-14 -3.395775e-02 -1.569633e-02 1.110337e-01 4.177799e-01 1.009988e+00 1.961397e+00 3.296287e+00 4.910098e+00 6.654557e+00 8.385591e+00 1.001024e+01 1.146731e+01 1.241627e+01 1.180689e+01 7.879762e+00 1.984905e-13 -7.879762e+00 -1.180689e+01 -1.241627e+01 -1.146731e+01 -1.001024e+01 -8.385591e+00 -6.654557e+00 -4.910098e+00 -3.296287e+00 -1.961397e+00 -1.009988e+00 -4.177799e-01 -1.110337e-01 1.569633e-02 3.395775e-02 
