# vtk DataFile Version 2.0
Comment goes here
ASCII

DATASET STRUCTURED_POINTS
FIELD FieldData 1
TIME 1 1 double
1.16000000
DIMENSIONS    32   32   1

ORIGIN    0.000   0.000   0.000
SPACING   0.03125 0.03125   1.000

POINT_DATA   1024
SCALARS Omega double
LOOKUP_TABLE default

-6.050661e-14 -3.311824e-14 -3.428337e-14 -4.550342e-14 6.485179e-14 2.912651e-13 1.016031e-12 2.243933e-12 4.111006e-12 6.154891e-12 8.044145e-12 9.084998e-12 8.884452e-12 6.990755e-12 3.174522e-12 -1.204738e-12 -4.319868e-12 -3.427099e-12 4.492015e-13 3.952904e-12 6.634061e-12 7.859106e-12 7.855105e-12 6.710080e-12 5.154334e-12 3.263636e-12 1.913295e-12 8.034284e-13 3.285033e-13 6.282612e-15 -4.284582e-14 -8.820093e-14 
-7.216306e-14 4.666657e-02 1.618711e-02 -1.665003e-01 -5.520524e-01 -1.211939e+00 -2.157514e+00 -3.372357e+00 -4.757162e+00 -6.206936e+00 -7.644815e+00 -8.937075e+00 -9.903900e+00 -1.015727e+01 -8.907114e+00 -5.543824e+00 -4.047422e-12 5.543824e+00 8.907114e+00 1.015727e+01 9.903900e+00 8.937075e+00 7.644815e+00 6.206936e+00 4.757162e+00 3.372357e+00 2.157514e+00 1.211939e+00 5.520524e-01 1.665003e-01 -1.618711e-02 -4.666657e-02 
-1.592481e-13 1.747449e-01 1.909421e-01 -8.702702e-02 -7.305959e-01 -1.854963e+00 -3.481540e+00 -5.601153e+00 -8.040337e+00 -1.060709e+01 -1.314196e+01 -1.541450e+01 -1.723506e+01 -1.797444e+01 -1.612229e+01 -1.029015e+01 -5.317927e-12 1.029015e+01 1.612229e+01 1.797444e+01 1.723506e+01 1.541450e+01 1.314196e+01 1.060709e+01 8.040337e+00 5.601153e+00 3.481540e+00 1.854963e+00 7.305959e-01 8.702702e-02 -1.909421e-01 -1.747449e-01 
-3.128476e-13 4.614434e-01 6.591978e-01 4.091833e-01 -3.444676e-01 -1.701839e+00 -3.692989e+00 -6.310525e+00 -9.360788e+00 -1.251353e+01 -1.555836e+01 -1.817651e+01 -2.048135e+01 -2.208514e+01 -2.115998e+01 -1.433752e+01 -8.198407e-12 1.433752e+01 2.115998e+01 2.208514e+01 2.048135e+01 1.817651e+01 1.555836e+01 1.251353e+01 9.360788e+00 6.310525e+00 3.692989e+00 1.701839e+00 3.444676e-01 -4.091833e-01 -6.591978e-01 -4.614434e-01 
-5.429101e-13 9.696761e-01 1.527277e+00 1.432560e+00 6.831315e-01 -7.316165e-01 -2.792075e+00 -5.496713e+00 -8.660070e+00 -1.193086e+01 -1.501013e+01 -1.754172e+01 -2.050452e+01 -2.420353e+01 -2.613548e+01 -1.912771e+01 -1.266066e-11 1.912771e+01 2.613548e+01 2.420353e+01 2.050452e+01 1.754172e+01 1.501013e+01 1.193086e+01 8.660070e+00 5.496713e+00 2.792075e+00 7.316165e-01 -6.831315e-01 -1.432560e+00 -1.527277e+00 -9.696761e-01 
-8.925178e-13 1.753275e+00 2.888963e+00 3.087140e+00 2.396378e+00 9.660353e-01 -1.084496e+00 -3.681256e+00 -6.732430e+00 -9.879879e+00 -1.295683e+01 -1.535610e+01 -1.795008e+01 -2.300414e+01 -3.062183e+01 -2.390150e+01 -1.754718e-11 2.390150e+01 3.062183e+01 2.300414e+01 1.795008e+01 1.535610e+01 1.295683e+01 9.879879e+00 6.732430e+00 3.681256e+00 1.084496e+00 -9.660353e-01 -2.396378e+00 -3.087140e+00 -2.888963e+00 -1.753275e+00 
-1.500815e-12 2.802956e+00 4.728606e+00 5.355632e+00 4.764237e+00 3.285867e+00 1.200354e+00 -1.289651e+00 -4.122706e+00 -7.038383e+00 -9.961250e+00 -1.327525e+01 -1.222600e+01 -2.154681e+01 -3.571707e+01 -2.655935e+01 -2.005321e-11 2.655935e+01 3.571707e+01 2.154681e+01 1.222600e+01 1.327525e+01 9.961250e+00 7.038383e+00 4.122706e+00 1.289651e+00 -1.200354e+00 -3.285867e+00 -4.764237e+00 -5.355632e+00 -4.728606e+00 -2.802956e+00 
-2.388671e-12 4.085627e+00 6.976890e+00 8.150307e+00 7.698128e+00 6.142577e+00 3.920610e+00 1.436685e+00 -1.252040e+00 -3.831306e+00 -7.452130e+00 -1.479489e+01 -3.963214e+00 -3.173599e+01 -4.110381e+01 -1.266234e+01 -4.320403e-12 1.266234e+01 4.110381e+01 3.173599e+01 3.963214e+00 1.479489e+01 7.452130e+00 3.831306e+00 1.252040e+00 -1.436685e+00 -3.920610e+00 -6.142577e+00 -7.698128e+00 -8.150307e+00 -6.976890e+00 -4.085627e+00 
-3.523771e-12 5.503500e+00 9.437499e+00 1.119799e+01 1.087972e+01 9.232716e+00 6.838392e+00 4.248007e+00 1.805252e+00 1.233270e+00 -1.360520e+01 -2.715424e+01 -5.598485e+00 1.848260e+01 5.574663e+01 4.352517e+01 2.293448e-11 -4.352517e+01 -5.574663e+01 -1.848260e+01 5.598485e+00 2.715424e+01 1.360520e+01 -1.233270e+00 -1.805252e+00 -4.248007e+00 -6.838392e+00 -9.232716e+00 -1.087972e+01 -1.119799e+01 -9.437499e+00 -5.503500e+00 
-4.622253e-12 6.941805e+00 1.191089e+01 1.419913e+01 1.391947e+01 1.213944e+01 9.532814e+00 7.282245e+00 7.120428e+00 8.509646e+00 -6.039796e+00 1.734320e+01 4.852971e+01 5.372566e+01 3.205251e+01 -1.174371e+00 5.141510e-12 1.174371e+00 -3.205251e+01 -5.372566e+01 -4.852971e+01 -1.734320e+01 6.039796e+00 -8.509646e+00 -7.120428e+00 -7.282245e+00 -9.532814e+00 -1.213944e+01 -1.391947e+01 -1.419913e+01 -1.191089e+01 -6.941805e+00 
-5.516270e-12 8.257720e+00 1.418683e+01 1.692829e+01 1.655475e+01 1.473481e+01 1.243205e+01 1.260780e+01 2.395420e+01 2.071769e+01 1.981070e+01 3.643637e+01 1.158987e+01 -1.056926e+01 -2.724359e+01 -1.814597e+01 -5.904342e-12 1.814597e+01 2.724359e+01 1.056926e+01 -1.158987e+01 -3.643637e+01 -1.981070e+01 -2.071769e+01 -2.395420e+01 -1.260780e+01 -1.243205e+01 -1.473481e+01 -1.655475e+01 -1.692829e+01 -1.418683e+01 -8.257720e+00 
-5.875056e-12 9.321200e+00 1.610762e+01 1.916609e+01 1.847323e+01 1.638204e+01 1.649655e+01 2.697327e+01 3.178472e+01 -7.867848e+00 -2.915525e+00 7.389230e+00 -1.448196e+01 -4.041374e+00 7.821749e+00 1.563591e+01 -3.440662e-12 -1.563591e+01 -7.821749e+00 4.041374e+00 1.448196e+01 -7.389230e+00 2.915525e+00 7.867848e+00 -3.178472e+01 -2.697327e+01 -1.649655e+01 -1.638204e+01 -1.847323e+01 -1.916609e+01 -1.610762e+01 -9.321200e+00 
-5.646508e-12 1.008922e+01 1.774080e+01 2.135246e+01 2.089032e+01 1.871379e+01 1.828437e+01 2.946540e+01 -4.598301e+00 -3.216662e+01 -4.622289e-01 -1.797748e+00 6.086588e+00 8.073642e+00 7.762723e+00 9.941200e+00 -3.299425e-12 -9.941200e+00 -7.762723e+00 -8.073642e+00 -6.086588e+00 1.797748e+00 4.622289e-01 3.216662e+01 4.598301e+00 -2.946540e+01 -1.828437e+01 -1.871379e+01 -2.089032e+01 -2.135246e+01 -1.774080e+01 -1.008922e+01 
-4.688456e-12 1.041096e+01 1.878219e+01 2.328499e+01 2.414961e+01 2.394779e+01 3.107356e+01 3.034767e+01 -5.566263e+01 -2.661002e+01 3.705026e+01 -9.034343e+00 -4.640945e+00 2.729581e-01 3.567947e+00 4.203728e+00 -1.382087e-12 -4.203728e+00 -3.567947e+00 -2.729581e-01 4.640945e+00 9.034343e+00 -3.705026e+01 2.661002e+01 5.566263e+01 -3.034767e+01 -3.107356e+01 -2.394779e+01 -2.414961e+01 -2.328499e+01 -1.878219e+01 -1.041096e+01 
-2.852305e-12 9.744305e+00 1.793583e+01 2.291236e+01 2.487666e+01 2.579069e+01 3.166752e+01 3.086303e+00 -5.799960e+01 1.974314e+01 5.007813e+01 -1.275467e+01 -9.744776e+00 -1.759083e+00 7.737138e-01 1.360839e+00 -1.125446e-13 -1.360839e+00 -7.737138e-01 1.759083e+00 9.744776e+00 1.275467e+01 -5.007813e+01 -1.974314e+01 5.799960e+01 -3.086303e+00 -3.166752e+01 -2.579069e+01 -2.487666e+01 -2.291236e+01 -1.793583e+01 -9.744305e+00 
-2.494715e-13 6.784272e+00 1.243692e+01 1.574674e+01 1.680314e+01 1.643733e+01 1.662590e+01 -1.531946e+01 -3.046435e+01 2.582144e+01 1.714038e+01 -1.925140e+01 -8.277590e+00 -2.115531e+00 -4.019924e-01 2.382863e-01 1.784168e-14 -2.382863e-01 4.019924e-01 2.115531e+00 8.277590e+00 1.925140e+01 -1.714038e+01 -2.582144e+01 3.046435e+01 1.531946e+01 -1.662590e+01 -1.643733e+01 -1.680314e+01 -1.574674e+01 -1.243692e+01 -6.784272e+00 
1.432318e-12 1.450089e-12 2.357756e-12 4.039681e-12 6.188736e-12 8.326690e-12 1.158296e-11 -5.623065e-12 -2.146118e-11 1.583408e-11 1.337553e-11 -7.333600e-12 -2.395005e-12 -1.308686e-12 -7.949674e-13 -1.687650e-13 -1.499486e-13 2.388424e-13 6.040801e-13 3.776423e-12 1.061061e-11 2.816537e-11 3.051620e-11 1.334124e-11 -4.493297e-11 -4.674346e-11 1.151736e-11 3.256406e-11 3.320845e-11 2.366450e-11 1.217021e-11 4.393809e-12 
1.556782e-13 -6.784272e+00 -1.243692e+01 -1.574674e+01 -1.680314e+01 -1.643733e+01 -1.662590e+01 1.531946e+01 3.046435e+01 -2.582144e+01 -1.714038e+01 1.925140e+01 8.277590e+00 2.115531e+00 4.019924e-01 -2.382863e-01 -8.527460e-13 2.382863e-01 -4.019924e-01 -2.115531e+00 -8.277590e+00 -1.925140e+01 1.714038e+01 2.582144e+01 -3.046435e+01 -1.531946e+01 1.662590e+01 1.643733e+01 1.680314e+01 1.574674e+01 1.243692e+01 6.784272e+00 
-2.468927e-12 -9.744305e+00 -1.793583e+01 -2.291236e+01 -2.487666e+01 -2.579069e+01 -3.166752e+01 -3.086303e+00 5.799960e+01 -1.974314e+01 -5.007813e+01 1.275467e+01 9.744776e+00 1.759083e+00 -7.737138e-01 -1.360839e+00 -2.555005e-12 1.360839e+00 7.737138e-01 -1.759083e+00 -9.744776e+00 -1.275467e+01 5.007813e+01 1.974314e+01 -5.799960e+01 3.086303e+00 3.166752e+01 2.579069e+01 2.487666e+01 2.291236e+01 1.793583e+01 9.744305e+00 
-4.719175e-12 -1.041096e+01 -1.878219e+01 -2.328499e+01 -2.414961e+01 -2.394779e+01 -3.107356e+01 -3.034767e+01 5.566263e+01 2.661002e+01 -3.705026e+01 9.034343e+00 4.640945e+00 -2.729581e-01 -3.567947e+00 -4.203728e+00 -8.938414e-12 4.203728e+00 3.567947e+00 2.729581e-01 -4.640945e+00 -9.034343e+00 3.705026e+01 -2.661002e+01 -5.566263e+01 3.034767e+01 3.107356e+01 2.394779e+01 2.414961e+01 2.328499e+01 1.878219e+01 1.041096e+01 
-6.172735e-12 -1.008922e+01 -1.774080e+01 -2.135246e+01 -2.089032e+01 -1.871379e+01 -1.828437e+01 -2.946540e+01 4.598301e+00 3.216662e+01 4.622289e-01 1.797748e+00 -6.086588e+00 -8.073642e+00 -7.762723e+00 -9.941200e+00 -2.059845e-11 9.941200e+00 7.762723e+00 8.073642e+00 6.086588e+00 -1.797748e+00 -4.622289e-01 -3.216662e+01 -4.598301e+00 2.946540e+01 1.828437e+01 1.871379e+01 2.089032e+01 2.135246e+01 1.774080e+01 1.008922e+01 
-6.918386e-12 -9.321200e+00 -1.610762e+01 -1.916609e+01 -1.847323e+01 -1.638204e+01 -1.649655e+01 -2.697327e+01 -3.178472e+01 7.867848e+00 2.915525e+00 -7.389230e+00 1.448196e+01 4.041374e+00 -7.821749e+00 -1.563591e+01 -2.042071e-11 1.563591e+01 7.821749e+00 -4.041374e+00 -1.448196e+01 7.389230e+00 -2.915525e+00 -7.867848e+00 3.178472e+01 2.697327e+01 1.649655e+01 1.638204e+01 1.847323e+01 1.916609e+01 1.610762e+01 9.321200e+00 
-7.011833e-12 -8.257720e+00 -1.418683e+01 -1.692829e+01 -1.655475e+01 -1.473481e+01 -1.243205e+01 -1.260780e+01 -2.395420e+01 -2.071769e+01 -1.981070e+01 -3.643637e+01 -1.158987e+01 1.056926e+01 2.724359e+01 1.814597e+01 1.051869e-11 -1.814597e+01 -2.724359e+01 -1.056926e+01 1.158987e+01 3.643637e+01 1.981070e+01 2.071769e+01 2.395420e+01 1.260780e+01 1.243205e+01 1.473481e+01 1.655475e+01 1.692829e+01 1.418683e+01 8.257720e+00 
-6.298279e-12 -6.941805e+00 -1.191089e+01 -1.419913e+01 -1.391947e+01 -1.213944e+01 -9.532814e+00 -7.282245e+00 -7.120428e+00 -8.509646e+00 6.039796e+00 -1.734320e+01 -4.852971e+01 -5.372566e+01 -3.205251e+01 1.174371e+00 4.736243e-11 -1.174371e+00 3.205251e+01 5.372566e+01 4.852971e+01 1.734320e+01 -6.039796e+00 8.509646e+00 7.120428e+00 7.282245e+00 9.532814e+00 1.213944e+01 1.391947e+01 1.419913e+01 1.191089e+01 6.941805e+00 
-5.164073e-12 -5.503500e+00 -9.437499e+00 -1.119799e+01 -1.087972e+01 -9.232716e+00 -6.838392e+00 -4.248007e+00 -1.805252e+00 -1.233270e+00 1.360520e+01 2.715424e+01 5.598485e+00 -1.848260e+01 -5.574663e+01 -4.352517e+01 7.281366e-11 4.352517e+01 5.574663e+01 1.848260e+01 -5.598485e+00 -2.715424e+01 -1.360520e+01 1.233270e+00 1.805252e+00 4.248007e+00 6.838392e+00 9.232716e+00 1.087972e+01 1.119799e+01 9.437499e+00 5.503500e+00 
-3.831729e-12 -4.085627e+00 -6.976890e+00 -8.150307e+00 -7.698128e+00 -6.142577e+00 -3.920610e+00 -1.436685e+00 1.252040e+00 3.831306e+00 7.452130e+00 1.479489e+01 3.963214e+00 3.173599e+01 4.110381e+01 1.266234e+01 -1.161583e-11 -1.266234e+01 -4.110381e+01 -3.173599e+01 -3.963214e+00 -1.479489e+01 -7.452130e+00 -3.831306e+00 -1.252040e+00 1.436685e+00 3.920610e+00 6.142577e+00 7.698128e+00 8.150307e+00 6.976890e+00 4.085627e+00 
-2.626920e-12 -2.802956e+00 -4.728606e+00 -5.355632e+00 -4.764237e+00 -3.285867e+00 -1.200354e+00 1.289651e+00 4.122706e+00 7.038383e+00 9.961250e+00 1.327525e+01 1.222600e+01 2.154681e+01 3.571707e+01 2.655935e+01 -5.961421e-11 -2.655935e+01 -3.571707e+01 -2.154681e+01 -1.222600e+01 -1.327525e+01 -9.961250e+00 -7.038383e+00 -4.122706e+00 -1.289651e+00 1.200354e+00 3.285867e+00 4.764237e+00 5.355632e+00 4.728606e+00 2.802956e+00 
-1.615219e-12 -1.753275e+00 -2.888963e+00 -3.087140e+00 -2.396378e+00 -9.660353e-01 1.084496e+00 3.681256e+00 6.732430e+00 9.879879e+00 1.295683e+01 1.535610e+01 1.795008e+01 2.300414e+01 3.062183e+01 2.390150e+01 -5.306689e-11 -2.390150e+01 -3.062183e+01 -2.300414e+01 -1.795008e+01 -1.535610e+01 -1.295683e+01 -9.879879e+00 -6.732430e+00 -3.681256e+00 -1.084496e+00 9.660353e-01 2.396378e+00 3.087140e+00 2.888963e+00 1.753275e+00 
-9.016470e-13 -9.696761e-01 -1.527277e+00 -1.432560e+00 -6.831315e-01 7.316165e-01 2.792075e+00 5.496713e+00 8.660070e+00 1.193086e+01 1.501013e+01 1.754172e+01 2.050452e+01 2.420353e+01 2.613548e+01 1.912771e+01 -3.842681e-11 -1.912771e+01 -2.613548e+01 -2.420353e+01 -2.050452e+01 -1.754172e+01 -1.501013e+01 -1.193086e+01 -8.660070e+00 -5.496713e+00 -2.792075e+00 -7.316165e-01 6.831315e-01 1.432560e+00 1.527277e+00 9.696761e-01 
-4.417789e-13 -4.614434e-01 -6.591978e-01 -4.091833e-01 3.444676e-01 1.701839e+00 3.692989e+00 6.310525e+00 9.360788e+00 1.251353e+01 1.555836e+01 1.817651e+01 2.048135e+01 2.208514e+01 2.115998e+01 1.433752e+01 -2.475390e-11 -1.433752e+01 -2.115998e+01 -2.208514e+01 -2.048135e+01 -1.817651e+01 -1.555836e+01 -1.251353e+01 -9.360788e+00 -6.310525e+00 -3.692989e+00 -1.701839e+00 -3.444676e-01 4.091833e-01 6.591978e-01 4.614434e-01 
-2.069044e-13 -1.747449e-01 -1.909421e-01 8.702702e-02 7.305959e-01 1.854963e+00 3.481540e+00 5.601153e+00 8.040337e+00 1.060709e+01 1.314196e+01 1.541450e+01 1.723506e+01 1.797444e+01 1.612229e+01 1.029015e+01 -1.432655e-11 -1.029015e+01 -1.612229e+01 -1.797444e+01 -1.723506e+01 -1.541450e+01 -1.314196e+01 -1.060709e+01 -8.040337e+00 -5.601153e+00 -3.481540e+00 -1.854963e+00 -7.305959e-01 -8.702702e-02 1.909421e-01 1.747449e-01 
-9.494329e-14 -4.666657e-02 -1.618711e-02 1.665003e-01 5.520524e-01 1.211939e+00 2.157514e+00 3.372357e+00 4.757162e+00 6.206936e+00 7.644815e+00 8.937075e+00 9.903900e+00 1.015727e+01 8.907114e+00 5.543824e+00 -7.382824e-12 -5.543824e+00 -8.907114e+00 -1.015727e+01 -9.903900e+00 -8.937075e+00 -7.644815e+00 -6.206936e+00 -4.757162e+00 -3.372357e+00 -2.157514e+00 -1.211939e+00 -5.520524e-01 -1.665003e-01 1.618711e-02 4.666657e-02 
