# vtk DataFile Version 2.0
Comment goes here
ASCII

DATASET STRUCTURED_POINTS
FIELD FieldData 1
TIME 1 1 double
0.68000000
DIMENSIONS    32   32   1

ORIGIN    0.000   0.000   0.000
SPACING   0.03125 0.03125   1.000

POINT_DATA   1024
SCALARS Omega double
LOOKUP_TABLE default

-3.093067e-14 -3.427614e-14 -3.266132e-14 -3.405360e-14 -6.359340e-14 -8.575749e-14 -1.427742e-13 -2.123804e-13 -3.277210e-13 -3.386701e-13 -2.795586e-13 -9.953175e-14 -1.330488e-14 -3.114011e-15 4.275032e-14 5.106086e-14 2.435942e-14 1.419785e-13 1.164566e-13 2.127256e-13 2.277429e-13 1.934299e-13 -4.948369e-14 -1.445356e-13 -2.210585e-13 -1.677014e-13 -1.489053e-13 -6.234362e-14 -6.628479e-14 -5.518847e-14 -4.206059e-14 -3.132879e-14 
-2.318866e-14 2.256378e-02 3.270305e-02 1.547735e-02 -6.584529e-02 -2.895842e-01 -7.825778e-01 -1.699097e+00 -3.130525e+00 -5.079441e+00 -7.401457e+00 -9.796708e+00 -1.169613e+01 -1.225987e+01 -1.074429e+01 -6.606989e+00 2.985527e-13 6.606989e+00 1.074429e+01 1.225987e+01 1.169613e+01 9.796708e+00 7.401457e+00 5.079441e+00 3.130525e+00 1.699097e+00 7.825778e-01 2.895842e-01 6.584529e-02 -1.547735e-02 -3.270305e-02 -2.256378e-02 
-4.092089e-14 5.808775e-02 8.767035e-02 6.476594e-02 -6.272742e-02 -4.122651e-01 -1.177636e+00 -2.621289e+00 -4.899403e+00 -8.030498e+00 -1.176495e+01 -1.569650e+01 -1.906879e+01 -2.069849e+01 -1.893379e+01 -1.218703e+01 4.880993e-13 1.218703e+01 1.893379e+01 2.069849e+01 1.906879e+01 1.569650e+01 1.176495e+01 8.030498e+00 4.899403e+00 2.621289e+00 1.177636e+00 4.122651e-01 6.272742e-02 -6.476594e-02 -8.767035e-02 -5.808775e-02 
-1.920054e-14 1.386556e-01 2.170733e-01 2.107995e-01 8.055701e-02 -2.732569e-01 -1.045300e+00 -2.533178e+00 -4.962427e+00 -8.397758e+00 -1.266025e+01 -1.741163e+01 -2.246235e+01 -2.585515e+01 -2.504672e+01 -1.842985e+01 6.214927e-13 1.842985e+01 2.504672e+01 2.585515e+01 2.246235e+01 1.741163e+01 1.266025e+01 8.397758e+00 4.962427e+00 2.533178e+00 1.045300e+00 2.732569e-01 -8.055701e-02 -2.107995e-01 -2.170733e-01 -1.386556e-01 
-6.663266e-14 3.039003e-01 4.741307e-01 4.877737e-01 3.447051e-01 9.662868e-03 -6.450909e-01 -1.894680e+00 -3.953086e+00 -6.988789e+00 -1.101330e+01 -1.617167e+01 -2.244448e+01 -3.032887e+01 -3.688613e+01 -3.213194e+01 3.189701e-13 3.213194e+01 3.688613e+01 3.032887e+01 2.244448e+01 1.617167e+01 1.101330e+01 6.988789e+00 3.953086e+00 1.894680e+00 6.450909e-01 -9.662868e-03 -3.447051e-01 -4.877737e-01 -4.741307e-01 -3.039003e-01 
-9.209792e-14 6.549987e-01 1.016979e+00 1.063009e+00 8.613830e-01 5.039897e-01 -4.700036e-02 -9.823582e-01 -2.513028e+00 -4.598061e+00 -8.115946e+00 -1.132756e+01 -1.944170e+01 -4.268393e+01 -6.715112e+01 -5.359651e+01 1.907738e-14 5.359651e+01 6.715112e+01 4.268393e+01 1.944170e+01 1.132756e+01 8.115946e+00 4.598061e+00 2.513028e+00 9.823582e-01 4.700036e-02 -5.039897e-01 -8.613830e-01 -1.063009e+00 -1.016979e+00 -6.549987e-01 
-2.023049e-13 1.299206e+00 2.011799e+00 2.105410e+00 1.741435e+00 1.218146e+00 6.113541e-01 -1.867646e-01 -1.466383e+00 -1.301453e+00 -3.209183e+00 -1.053208e+01 -4.131107e+01 -4.287921e+01 4.635840e+00 3.436563e+01 -1.098195e-12 -3.436563e+01 -4.635840e+00 4.287921e+01 4.131107e+01 1.053208e+01 3.209183e+00 1.301453e+00 1.466383e+00 1.867646e-01 -6.113541e-01 -1.218146e+00 -1.741435e+00 -2.105410e+00 -2.011799e+00 -1.299206e+00 
-3.659351e-13 2.351178e+00 3.664331e+00 3.858031e+00 3.210143e+00 2.353386e+00 1.445483e+00 5.170367e-01 -2.573107e-01 5.327167e+00 3.655724e+00 -1.742945e-01 3.266831e+01 9.909148e+01 9.725149e+01 4.566056e+01 -4.623010e-13 -4.566056e+01 -9.725149e+01 -9.909148e+01 -3.266831e+01 1.742945e-01 -3.655724e+00 -5.327167e+00 2.573107e-01 -5.170367e-01 -1.445483e+00 -2.353386e+00 -3.210143e+00 -3.858031e+00 -3.664331e+00 -2.351178e+00 
-6.079549e-13 3.822438e+00 6.042582e+00 6.461490e+00 5.415112e+00 4.017672e+00 2.436422e+00 1.136766e+00 6.782700e+00 1.973838e+01 4.365514e+01 8.147035e+01 9.300703e+01 5.375242e+01 4.987979e+00 -9.959890e+00 3.018007e-12 9.959890e+00 -4.987979e+00 -5.375242e+01 -9.300703e+01 -8.147035e+01 -4.365514e+01 -1.973838e+01 -6.782700e+00 -1.136766e+00 -2.436422e+00 -4.017672e+00 -5.415112e+00 -6.461490e+00 -6.042582e+00 -3.822438e+00 
-7.974409e-13 5.567289e+00 8.983060e+00 9.763219e+00 8.206511e+00 5.833263e+00 3.281227e+00 5.350351e+00 3.193958e+01 4.146106e+01 5.133377e+01 5.140993e+01 1.008553e+01 -2.446117e+01 -1.688564e+01 2.166740e+00 2.377938e-12 -2.166740e+00 1.688564e+01 2.446117e+01 -1.008553e+01 -5.140993e+01 -5.133377e+01 -4.146106e+01 -3.193958e+01 -5.350351e+00 -3.281227e+00 -5.833263e+00 -8.206511e+00 -9.763219e+00 -8.983060e+00 -5.567289e+00 
-9.499896e-13 7.408794e+00 1.229513e+01 1.369560e+01 1.173076e+01 8.674540e+00 7.518973e+00 2.458868e+01 5.614664e+01 2.906135e+01 2.278406e+01 1.741233e+01 -1.356775e+01 1.058999e+00 1.099054e+01 1.283594e+01 5.201485e-13 -1.283594e+01 -1.099054e+01 -1.058999e+00 1.356775e+01 -1.741233e+01 -2.278406e+01 -2.906135e+01 -5.614664e+01 -2.458868e+01 -7.518973e+00 -8.674540e+00 -1.173076e+01 -1.369560e+01 -1.229513e+01 -7.408794e+00 
-8.351987e-13 9.122763e+00 1.558294e+01 1.766795e+01 1.536395e+01 1.234763e+01 1.773161e+01 5.198596e+01 3.476878e+01 1.099242e-01 2.606076e+01 9.795244e+00 -1.374164e+01 5.619185e+00 1.260066e+01 1.125521e+01 -1.949044e-13 -1.125521e+01 -1.260066e+01 -5.619185e+00 1.374164e+01 -9.795244e+00 -2.606076e+01 -1.099242e-01 -3.476878e+01 -5.198596e+01 -1.773161e+01 -1.234763e+01 -1.536395e+01 -1.766795e+01 -1.558294e+01 -9.122763e+00 
-5.485422e-13 1.077196e+01 1.902347e+01 2.215113e+01 2.025995e+01 1.778105e+01 2.469208e+01 3.882317e+01 -1.158594e+01 5.340477e+00 2.974398e+01 -2.018186e+01 -1.083801e+01 4.872023e+00 8.288474e+00 7.489383e+00 -1.884206e-13 -7.489383e+00 -8.288474e+00 -4.872023e+00 1.083801e+01 2.018186e+01 -2.974398e+01 -5.340477e+00 1.158594e+01 -3.882317e+01 -2.469208e+01 -1.778105e+01 -2.025995e+01 -2.215113e+01 -1.902347e+01 -1.077196e+01 
-1.458225e-13 1.229234e+01 2.241057e+01 2.716831e+01 2.662443e+01 2.447853e+01 3.099474e+01 1.258078e+01 -1.774060e+01 3.604255e+01 2.072604e+01 -3.274923e+01 -8.835758e+00 -1.180644e-01 2.837791e+00 3.271722e+00 -8.409668e-14 -3.271722e+00 -2.837791e+00 1.180644e-01 8.835758e+00 3.274923e+01 -2.072604e+01 -3.604255e+01 1.774060e+01 -1.258078e+01 -3.099474e+01 -2.447853e+01 -2.662443e+01 -2.716831e+01 -2.241057e+01 -1.229234e+01 
3.788494e-13 1.296583e+01 2.399565e+01 2.973936e+01 2.906473e+01 2.343432e+01 2.068519e+01 -1.061696e+01 -1.175362e+01 3.560619e+01 2.036263e+00 -3.169819e+01 -9.865371e+00 -3.338979e+00 -4.439237e-01 6.598841e-01 -6.546079e-14 -6.598841e-01 4.439237e-01 3.338979e+00 9.865371e+00 3.169819e+01 -2.036263e+00 -3.560619e+01 1.175362e+01 1.061696e+01 -2.068519e+01 -2.343432e+01 -2.906473e+01 -2.973936e+01 -2.399565e+01 -1.296583e+01 
1.336832e-12 1.028146e+01 1.852222e+01 2.169480e+01 1.869400e+01 1.113608e+01 5.873323e+00 -8.262115e+00 4.370828e+00 2.137486e+01 -5.667833e+00 -1.858827e+01 -7.569863e+00 -3.409523e+00 -1.123100e+00 -1.974349e-01 -3.813586e-14 1.974349e-01 1.123100e+00 3.409523e+00 7.569863e+00 1.858827e+01 5.667833e+00 -2.137486e+01 -4.370828e+00 8.262115e+00 -5.873323e+00 -1.113608e+01 -1.869400e+01 -2.169480e+01 -1.852222e+01 -1.028146e+01 
1.307638e-12 1.139968e-12 7.413829e-13 1.726696e-13 -4.355050e-13 -9.104221e-13 -2.694309e-12 -5.532230e-12 -2.744045e-12 2.679724e-12 1.494396e-12 -2.064552e-13 -9.228573e-14 -5.927380e-14 -3.805776e-14 -7.605443e-14 -5.486854e-14 -5.121317e-14 7.224525e-15 1.615677e-13 9.317353e-13 2.474948e-12 3.742272e-12 2.443302e-12 -7.168639e-13 -2.508860e-12 -3.100429e-13 1.846317e-12 2.125508e-12 1.339902e-12 1.072812e-12 1.227685e-12 
1.020224e-13 -1.028146e+01 -1.852222e+01 -2.169480e+01 -1.869400e+01 -1.113608e+01 -5.873323e+00 8.262115e+00 -4.370828e+00 -2.137486e+01 5.667833e+00 1.858827e+01 7.569863e+00 3.409523e+00 1.123100e+00 1.974349e-01 -2.016139e-14 -1.974349e-01 -1.123100e+00 -3.409523e+00 -7.569863e+00 -1.858827e+01 -5.667833e+00 2.137486e+01 4.370828e+00 -8.262115e+00 5.873323e+00 1.113608e+01 1.869400e+01 2.169480e+01 1.852222e+01 1.028146e+01 
-4.515392e-13 -1.296583e+01 -2.399565e+01 -2.973936e+01 -2.906473e+01 -2.343432e+01 -2.068519e+01 1.061696e+01 1.175362e+01 -3.560619e+01 -2.036263e+00 3.169819e+01 9.865371e+00 3.338979e+00 4.439237e-01 -6.598841e-01 8.036608e-15 6.598841e-01 -4.439237e-01 -3.338979e+00 -9.865371e+00 -3.169819e+01 2.036263e+00 3.560619e+01 -1.175362e+01 -1.061696e+01 2.068519e+01 2.343432e+01 2.906473e+01 2.973936e+01 2.399565e+01 1.296583e+01 
-8.571358e-13 -1.229234e+01 -2.241057e+01 -2.716831e+01 -2.662443e+01 -2.447853e+01 -3.099474e+01 -1.258078e+01 1.774060e+01 -3.604255e+01 -2.072604e+01 3.274923e+01 8.835758e+00 1.180644e-01 -2.837791e+00 -3.271722e+00 1.216451e-13 3.271722e+00 2.837791e+00 -1.180644e-01 -8.835758e+00 -3.274923e+01 2.072604e+01 3.604255e+01 -1.774060e+01 1.258078e+01 3.099474e+01 2.447853e+01 2.662443e+01 2.716831e+01 2.241057e+01 1.229234e+01 
-1.068176e-12 -1.077196e+01 -1.902347e+01 -2.215113e+01 -2.025995e+01 -1.778105e+01 -2.469208e+01 -3.882317e+01 1.158594e+01 -5.340477e+00 -2.974398e+01 2.018186e+01 1.083801e+01 -4.872023e+00 -8.288474e+00 -7.489383e+00 -1.946002e-13 7.489383e+00 8.288474e+00 4.872023e+00 -1.083801e+01 -2.018186e+01 2.974398e+01 5.340477e+00 -1.158594e+01 3.882317e+01 2.469208e+01 1.778105e+01 2.025995e+01 2.215113e+01 1.902347e+01 1.077196e+01 
-1.201584e-12 -9.122763e+00 -1.558294e+01 -1.766795e+01 -1.536395e+01 -1.234763e+01 -1.773161e+01 -5.198596e+01 -3.476878e+01 -1.099242e-01 -2.606076e+01 -9.795244e+00 1.374164e+01 -5.619185e+00 -1.260066e+01 -1.125521e+01 -1.188740e-12 1.125521e+01 1.260066e+01 5.619185e+00 -1.374164e+01 9.795244e+00 2.606076e+01 1.099242e-01 3.476878e+01 5.198596e+01 1.773161e+01 1.234763e+01 1.536395e+01 1.766795e+01 1.558294e+01 9.122763e+00 
-1.185378e-12 -7.408794e+00 -1.229513e+01 -1.369560e+01 -1.173076e+01 -8.674540e+00 -7.518973e+00 -2.458868e+01 -5.614664e+01 -2.906135e+01 -2.278406e+01 -1.741233e+01 1.356775e+01 -1.058999e+00 -1.099054e+01 -1.283594e+01 -3.102950e-12 1.283594e+01 1.099054e+01 1.058999e+00 -1.356775e+01 1.741233e+01 2.278406e+01 2.906135e+01 5.614664e+01 2.458868e+01 7.518973e+00 8.674540e+00 1.173076e+01 1.369560e+01 1.229513e+01 7.408794e+00 
-1.003037e-12 -5.567289e+00 -8.983060e+00 -9.763219e+00 -8.206511e+00 -5.833263e+00 -3.281227e+00 -5.350351e+00 -3.193958e+01 -4.146106e+01 -5.133377e+01 -5.140993e+01 -1.008553e+01 2.446117e+01 1.688564e+01 -2.166740e+00 -4.632565e-12 2.166740e+00 -1.688564e+01 -2.446117e+01 1.008553e+01 5.140993e+01 5.133377e+01 4.146106e+01 3.193958e+01 5.350351e+00 3.281227e+00 5.833263e+00 8.206511e+00 9.763219e+00 8.983060e+00 5.567289e+00 
-6.701387e-13 -3.822438e+00 -6.042582e+00 -6.461490e+00 -5.415112e+00 -4.017672e+00 -2.436422e+00 -1.136766e+00 -6.782700e+00 -1.973838e+01 -4.365514e+01 -8.147035e+01 -9.300703e+01 -5.375242e+01 -4.987979e+00 9.959890e+00 -2.533195e-12 -9.959890e+00 4.987979e+00 5.375242e+01 9.300703e+01 8.147035e+01 4.365514e+01 1.973838e+01 6.782700e+00 1.136766e+00 2.436422e+00 4.017672e+00 5.415112e+00 6.461490e+00 6.042582e+00 3.822438e+00 
-4.124706e-13 -2.351178e+00 -3.664331e+00 -3.858031e+00 -3.210143e+00 -2.353386e+00 -1.445483e+00 -5.170367e-01 2.573107e-01 -5.327167e+00 -3.655724e+00 1.742945e-01 -3.266831e+01 -9.909148e+01 -9.725149e+01 -4.566056e+01 3.951026e-12 4.566056e+01 9.725149e+01 9.909148e+01 3.266831e+01 -1.742945e-01 3.655724e+00 5.327167e+00 -2.573107e-01 5.170367e-01 1.445483e+00 2.353386e+00 3.210143e+00 3.858031e+00 3.664331e+00 2.351178e+00 
-1.873922e-13 -1.299206e+00 -2.011799e+00 -2.105410e+00 -1.741435e+00 -1.218146e+00 -6.113541e-01 1.867646e-01 1.466383e+00 1.301453e+00 3.209183e+00 1.053208e+01 4.131107e+01 4.287921e+01 -4.635840e+00 -3.436563e+01 5.157203e-12 3.436563e+01 4.635840e+00 -4.287921e+01 -4.131107e+01 -1.053208e+01 -3.209183e+00 -1.301453e+00 -1.466383e+00 -1.867646e-01 6.113541e-01 1.218146e+00 1.741435e+00 2.105410e+00 2.011799e+00 1.299206e+00 
-1.012772e-13 -6.549987e-01 -1.016979e+00 -1.063009e+00 -8.613830e-01 -5.039897e-01 4.700036e-02 9.823582e-01 2.513028e+00 4.598061e+00 8.115946e+00 1.132756e+01 1.944170e+01 4.268393e+01 6.715112e+01 5.359651e+01 3.983657e-13 -5.359651e+01 -6.715112e+01 -4.268393e+01 -1.944170e+01 -1.132756e+01 -8.115946e+00 -4.598061e+00 -2.513028e+00 -9.823582e-01 -4.700036e-02 5.039897e-01 8.613830e-01 1.063009e+00 1.016979e+00 6.549987e-01 
-3.187700e-14 -3.039003e-01 -4.741307e-01 -4.877737e-01 -3.447051e-01 -9.662868e-03 6.450909e-01 1.894680e+00 3.953086e+00 6.988789e+00 1.101330e+01 1.617167e+01 2.244448e+01 3.032887e+01 3.688613e+01 3.213194e+01 -3.093877e-12 -3.213194e+01 -3.688613e+01 -3.032887e+01 -2.244448e+01 -1.617167e+01 -1.101330e+01 -6.988789e+00 -3.953086e+00 -1.894680e+00 -6.450909e-01 9.662868e-03 3.447051e-01 4.877737e-01 4.741307e-01 3.039003e-01 
-1.982211e-14 -1.386556e-01 -2.170733e-01 -2.107995e-01 -8.055701e-02 2.732569e-01 1.045300e+00 2.533178e+00 4.962427e+00 8.397758e+00 1.266025e+01 1.741163e+01 2.246235e+01 2.585515e+01 2.504672e+01 1.842985e+01 -2.837303e-12 -1.842985e+01 -2.504672e+01 -2.585515e+01 -2.246235e+01 -1.741163e+01 -1.266025e+01 -8.397758e+00 -4.962427e+00 -2.533178e+00 -1.045300e+00 -2.732569e-01 8.055701e-02 2.107995e-01 2.170733e-01 1.386556e-01 
-1.569687e-14 -5.808775e-02 -8.767035e-02 -6.476594e-02 6.272742e-02 4.122651e-01 1.177636e+00 2.621289e+00 4.899403e+00 8.030498e+00 1.176495e+01 1.569650e+01 1.906879e+01 2.069849e+01 1.893379e+01 1.218703e+01 -1.848868e-12 -1.218703e+01 -1.893379e+01 -2.069849e+01 -1.906879e+01 -1.569650e+01 -1.176495e+01 -8.030498e+00 -4.899403e+00 -2.621289e+00 -1.177636e+00 -4.122651e-01 -6.272742e-02 6.476594e-02 8.767035e-02 5.808775e-02 
-3.351334e-14 -2.256378e-02 -3.270305e-02 -1.547735e-02 6.584529e-02 2.895842e-01 7.825778e-01 1.699097e+00 3.130525e+00 5.079441e+00 7.401457e+00 9.796708e+00 1.169613e+01 1.225987e+01 1.074429e+01 6.606989e+00 -6.409312e-13 -6.606989e+00 -1.074429e+01 -1.225987e+01 -1.169613e+01 -9.796708e+00 -7.401457e+00 -5.079441e+00 -3.130525e+00 -1.699097e+00 -7.825778e-01 -2.895842e-01 -6.584529e-02 1.547735e-02 3.270305e-02 2.256378e-02 
