# vtk DataFile Version 2.0
Comment goes here
ASCII

DATASET STRUCTURED_POINTS
FIELD FieldData 1
TIME 1 1 double
1.04000000
DIMENSIONS    32   32   1

ORIGIN    0.000   0.000   0.000
SPACING   0.03125 0.03125   1.000

POINT_DATA   1024
SCALARS Omega double
LOOKUP_TABLE default

-7.160189e-14 -7.174258e-14 -6.549105e-14 -1.041713e-13 -1.034341e-13 -1.079914e-13 -5.236731e-14 1.253605e-13 4.930810e-13 9.988090e-13 1.566758e-12 1.916630e-12 2.097454e-12 1.974788e-12 1.558998e-12 5.922218e-13 -1.618922e-13 -8.441856e-15 4.007205e-13 9.091565e-13 1.326942e-12 1.602080e-12 1.714499e-12 1.395068e-12 9.711633e-13 5.279636e-13 1.840287e-13 4.696685e-14 -5.281178e-14 -7.065056e-14 -9.458673e-14 -7.526600e-14 
-6.475413e-14 4.646267e-02 2.826726e-02 -1.090894e-01 -4.318901e-01 -1.016104e+00 -1.912718e+00 -3.141217e+00 -4.627711e+00 -6.284907e+00 -7.939564e+00 -9.340719e+00 -1.021747e+01 -1.029996e+01 -9.238941e+00 -6.134150e+00 -2.653064e-13 6.134150e+00 9.238941e+00 1.029996e+01 1.021747e+01 9.340719e+00 7.939564e+00 6.284907e+00 4.627711e+00 3.141217e+00 1.912718e+00 1.016104e+00 4.318901e-01 1.090894e-01 -2.826726e-02 -4.646267e-02 
-1.095341e-13 1.623194e-01 1.875769e-01 -1.758237e-02 -5.533290e-01 -1.535660e+00 -3.062256e+00 -5.180735e+00 -7.763344e+00 -1.063628e+01 -1.351173e+01 -1.600611e+01 -1.777531e+01 -1.849149e+01 -1.747293e+01 -1.234303e+01 -5.350312e-13 1.234303e+01 1.747293e+01 1.849149e+01 1.777531e+01 1.600611e+01 1.351173e+01 1.063628e+01 7.763344e+00 5.180735e+00 3.062256e+00 1.535660e+00 5.533290e-01 1.758237e-02 -1.875769e-01 -1.623194e-01 
-1.883361e-13 4.211666e-01 6.024217e-01 4.243946e-01 -1.981348e-01 -1.353701e+00 -3.153151e+00 -5.682859e+00 -8.787242e+00 -1.222837e+01 -1.570790e+01 -1.880112e+01 -2.142921e+01 -2.355781e+01 -2.426792e+01 -1.850199e+01 -1.407139e-12 1.850199e+01 2.426792e+01 2.355781e+01 2.142921e+01 1.880112e+01 1.570790e+01 1.222837e+01 8.787242e+00 5.682859e+00 3.153151e+00 1.353701e+00 1.981348e-01 -4.243946e-01 -6.024217e-01 -4.211666e-01 
-3.565642e-13 9.032660e-01 1.402196e+00 1.346388e+00 7.033679e-01 -4.926202e-01 -2.306913e+00 -4.827649e+00 -7.943130e+00 -1.137310e+01 -1.487313e+01 -1.805831e+01 -2.145562e+01 -2.570359e+01 -2.958809e+01 -2.362409e+01 -2.545822e-12 2.362409e+01 2.958809e+01 2.570359e+01 2.145562e+01 1.805831e+01 1.487313e+01 1.137310e+01 7.943130e+00 4.827649e+00 2.306913e+00 4.926202e-01 -7.033679e-01 -1.346388e+00 -1.402196e+00 -9.032660e-01 
-5.246558e-13 1.679412e+00 2.709379e+00 2.881374e+00 2.225756e+00 9.772619e-01 -7.948284e-01 -3.129762e+00 -5.952564e+00 -9.009873e+00 -1.227033e+01 -1.519215e+01 -1.874763e+01 -2.417058e+01 -3.178994e+01 -2.530557e+01 -3.550361e-12 2.530557e+01 3.178994e+01 2.417058e+01 1.874763e+01 1.519215e+01 1.227033e+01 9.009873e+00 5.952564e+00 3.129762e+00 7.948284e-01 -9.772619e-01 -2.225756e+00 -2.881374e+00 -2.709379e+00 -1.679412e+00 
-6.621480e-13 2.777214e+00 4.582921e+00 5.111136e+00 4.435494e+00 3.044183e+00 1.181716e+00 -1.023569e+00 -3.584288e+00 -6.098323e+00 -8.705265e+00 -1.219853e+01 -1.520115e+01 -2.058841e+01 -3.157110e+01 -2.317189e+01 -2.897422e-12 2.317189e+01 3.157110e+01 2.058841e+01 1.520115e+01 1.219853e+01 8.705265e+00 6.098323e+00 3.584288e+00 1.023569e+00 -1.181716e+00 -3.044183e+00 -4.435494e+00 -5.111136e+00 -4.582921e+00 -2.777214e+00 
-7.271059e-13 4.145498e+00 6.950114e+00 7.959540e+00 7.280257e+00 5.672583e+00 3.562185e+00 1.339115e+00 -1.050727e+00 -3.250110e+00 -5.535911e+00 -1.814203e+01 -1.437308e+01 -2.121257e+01 -2.865732e+01 -1.319649e+01 4.329447e-12 1.319649e+01 2.865732e+01 2.121257e+01 1.437308e+01 1.814203e+01 5.535911e+00 3.250110e+00 1.050727e+00 -1.339115e+00 -3.562185e+00 -5.672583e+00 -7.280257e+00 -7.959540e+00 -6.950114e+00 -4.145498e+00 
-7.117286e-13 5.673342e+00 9.630056e+00 1.118221e+01 1.050664e+01 8.634092e+00 6.128102e+00 3.616160e+00 1.243199e+00 -5.560641e-01 -1.828665e+01 -4.518263e+01 -1.954167e+01 1.486437e+01 3.872476e+01 3.047441e+01 1.781695e-11 -3.047441e+01 -3.872476e+01 -1.486437e+01 1.954167e+01 4.518263e+01 1.828665e+01 5.560641e-01 -1.243199e+00 -3.616160e+00 -6.128102e+00 -8.634092e+00 -1.050664e+01 -1.118221e+01 -9.630056e+00 -5.673342e+00 
-6.830408e-13 7.224685e+00 1.237848e+01 1.444687e+01 1.376588e+01 1.161414e+01 8.732550e+00 6.260980e+00 3.214415e+00 -4.125010e+00 -3.478933e+01 -5.575817e+00 3.421549e+01 2.640758e+01 1.318011e+01 -5.681723e+00 3.750821e-12 5.681723e+00 -1.318011e+01 -2.640758e+01 -3.421549e+01 5.575817e+00 3.478933e+01 4.125010e+00 -3.214415e+00 -6.260980e+00 -8.732550e+00 -1.161414e+01 -1.376588e+01 -1.444687e+01 -1.237848e+01 -7.224685e+00 
-7.043208e-13 8.701373e+00 1.500111e+01 1.743985e+01 1.675375e+01 1.436010e+01 1.112161e+01 1.177929e+01 7.652526e+00 -2.057131e+01 -2.053625e+01 1.965323e+01 -3.830018e+00 -3.299307e+01 -2.696736e+01 -1.815225e+01 -9.760055e-12 1.815225e+01 2.696736e+01 3.299307e+01 3.830018e+00 -1.965323e+01 2.053625e+01 2.057131e+01 -7.652526e+00 -1.177929e+01 -1.112161e+01 -1.436010e+01 -1.675375e+01 -1.743985e+01 -1.500111e+01 -8.701373e+00 
-7.331708e-13 1.005402e+01 1.736198e+01 2.008818e+01 1.943173e+01 1.778339e+01 1.790275e+01 1.798429e+01 -1.126238e+01 -5.336873e+01 -1.271388e+01 -1.061352e+01 -2.535103e+01 -5.152701e+00 1.197340e+01 1.660594e+01 -6.134848e-12 -1.660594e+01 -1.197340e+01 5.152701e+00 2.535103e+01 1.061352e+01 1.271388e+01 5.336873e+01 1.126238e+01 -1.798429e+01 -1.790275e+01 -1.778339e+01 -1.943173e+01 -2.008818e+01 -1.736198e+01 -1.005402e+01 
-8.002488e-13 1.116074e+01 1.930698e+01 2.247526e+01 2.237666e+01 2.177800e+01 2.378368e+01 2.259126e+01 -5.996353e+01 -5.555541e+01 1.257076e+01 4.530738e-01 1.360545e+01 1.986934e+01 9.458877e+00 8.814752e+00 -2.513713e-12 -8.814752e+00 -9.458877e+00 -1.986934e+01 -1.360545e+01 -4.530738e-01 -1.257076e+01 5.555541e+01 5.996353e+01 -2.259126e+01 -2.378368e+01 -2.177800e+01 -2.237666e+01 -2.247526e+01 -1.930698e+01 -1.116074e+01 
-9.405195e-13 1.163637e+01 2.023566e+01 2.420518e+01 2.538216e+01 2.832136e+01 4.584335e+01 -8.831203e+00 -9.999124e+01 -4.271341e+00 2.839138e+01 -1.514945e+00 -1.497605e+00 2.666474e+00 3.598105e+00 3.759143e+00 -7.114027e-13 -3.759143e+00 -3.598105e+00 -2.666474e+00 1.497605e+00 1.514945e+00 -2.839138e+01 4.271341e+00 9.999124e+01 8.831203e+00 -4.584335e+01 -2.832136e+01 -2.538216e+01 -2.420518e+01 -2.023566e+01 -1.163637e+01 
-1.319358e-12 1.056772e+01 1.847763e+01 2.289039e+01 2.520664e+01 3.111276e+01 4.855133e+01 -7.259218e+01 -6.290065e+01 6.024040e+01 9.874814e+00 -1.109706e+01 -7.491114e+00 -1.652691e+00 7.726600e-01 1.309353e+00 -6.225127e-14 -1.309353e+00 -7.726600e-01 1.652691e+00 7.491114e+00 1.109706e+01 -9.874814e+00 -6.024040e+01 6.290065e+01 7.259218e+01 -4.855133e+01 -3.111276e+01 -2.520664e+01 -2.289039e+01 -1.847763e+01 -1.056772e+01 
-1.845989e-12 6.665639e+00 1.157639e+01 1.458159e+01 1.635341e+01 2.134113e+01 2.293788e+01 -6.001315e+01 -4.009930e+00 4.804748e+01 -9.520303e+00 -1.413932e+01 -6.793809e+00 -2.293982e+00 -3.591818e-01 2.552847e-01 5.444831e-14 -2.552847e-01 3.591818e-01 2.293982e+00 6.793809e+00 1.413932e+01 9.520303e+00 -4.804748e+01 4.009930e+00 6.001315e+01 -2.293788e+01 -2.134113e+01 -1.635341e+01 -1.458159e+01 -1.157639e+01 -6.665639e+00 
-2.505536e-12 -1.894840e-12 -1.063831e-12 3.820361e-13 2.446887e-12 5.307634e-12 3.151549e-12 -1.449752e-11 -8.419408e-14 1.085121e-11 1.140145e-12 -1.800637e-12 -1.309245e-12 -3.583039e-13 -1.016612e-13 5.521430e-14 9.802288e-14 1.149840e-13 5.105113e-14 3.876053e-13 2.112868e-12 1.008267e-11 1.482924e-11 4.335350e-12 -3.949843e-12 -1.984748e-11 5.234172e-12 1.493604e-11 1.022084e-11 4.745535e-12 -3.084970e-13 -2.596322e-12 
-2.435034e-12 -6.665639e+00 -1.157639e+01 -1.458159e+01 -1.635341e+01 -2.134113e+01 -2.293788e+01 6.001315e+01 4.009930e+00 -4.804748e+01 9.520303e+00 1.413932e+01 6.793809e+00 2.293982e+00 3.591818e-01 -2.552847e-01 5.558783e-14 2.552847e-01 -3.591818e-01 -2.293982e+00 -6.793809e+00 -1.413932e+01 -9.520303e+00 4.804748e+01 -4.009930e+00 -6.001315e+01 2.293788e+01 2.134113e+01 1.635341e+01 1.458159e+01 1.157639e+01 6.665639e+00 
-1.963878e-12 -1.056772e+01 -1.847763e+01 -2.289039e+01 -2.520664e+01 -3.111276e+01 -4.855133e+01 7.259218e+01 6.290065e+01 -6.024040e+01 -9.874814e+00 1.109706e+01 7.491114e+00 1.652691e+00 -7.726600e-01 -1.309353e+00 -3.248986e-13 1.309353e+00 7.726600e-01 -1.652691e+00 -7.491114e+00 -1.109706e+01 9.874814e+00 6.024040e+01 -6.290065e+01 -7.259218e+01 4.855133e+01 3.111276e+01 2.520664e+01 2.289039e+01 1.847763e+01 1.056772e+01 
-1.809430e-12 -1.163637e+01 -2.023566e+01 -2.420518e+01 -2.538216e+01 -2.832136e+01 -4.584335e+01 8.831203e+00 9.999124e+01 4.271341e+00 -2.839138e+01 1.514945e+00 1.497605e+00 -2.666474e+00 -3.598105e+00 -3.759143e+00 -2.153242e-12 3.759143e+00 3.598105e+00 2.666474e+00 -1.497605e+00 -1.514945e+00 2.839138e+01 -4.271341e+00 -9.999124e+01 -8.831203e+00 4.584335e+01 2.832136e+01 2.538216e+01 2.420518e+01 2.023566e+01 1.163637e+01 
-1.776508e-12 -1.116074e+01 -1.930698e+01 -2.247526e+01 -2.237666e+01 -2.177800e+01 -2.378368e+01 -2.259126e+01 5.996353e+01 5.555541e+01 -1.257076e+01 -4.530738e-01 -1.360545e+01 -1.986934e+01 -9.458877e+00 -8.814752e+00 -8.085175e-12 8.814752e+00 9.458877e+00 1.986934e+01 1.360545e+01 4.530738e-01 1.257076e+01 -5.555541e+01 -5.996353e+01 2.259126e+01 2.378368e+01 2.177800e+01 2.237666e+01 2.247526e+01 1.930698e+01 1.116074e+01 
-1.696375e-12 -1.005402e+01 -1.736198e+01 -2.008818e+01 -1.943173e+01 -1.778339e+01 -1.790275e+01 -1.798429e+01 1.126238e+01 5.336873e+01 1.271388e+01 1.061352e+01 2.535103e+01 5.152701e+00 -1.197340e+01 -1.660594e+01 -1.663139e-11 1.660594e+01 1.197340e+01 -5.152701e+00 -2.535103e+01 -1.061352e+01 -1.271388e+01 -5.336873e+01 -1.126238e+01 1.798429e+01 1.790275e+01 1.778339e+01 1.943173e+01 2.008818e+01 1.736198e+01 1.005402e+01 
-1.548550e-12 -8.701373e+00 -1.500111e+01 -1.743985e+01 -1.675375e+01 -1.436010e+01 -1.112161e+01 -1.177929e+01 -7.652526e+00 2.057131e+01 2.053625e+01 -1.965323e+01 3.830018e+00 3.299307e+01 2.696736e+01 1.815225e+01 -1.323243e-11 -1.815225e+01 -2.696736e+01 -3.299307e+01 -3.830018e+00 1.965323e+01 -2.053625e+01 -2.057131e+01 7.652526e+00 1.177929e+01 1.112161e+01 1.436010e+01 1.675375e+01 1.743985e+01 1.500111e+01 8.701373e+00 
-1.437756e-12 -7.224685e+00 -1.237848e+01 -1.444687e+01 -1.376588e+01 -1.161414e+01 -8.732550e+00 -6.260980e+00 -3.214415e+00 4.125010e+00 3.478933e+01 5.575817e+00 -3.421549e+01 -2.640758e+01 -1.318011e+01 5.681723e+00 2.124709e-11 -5.681723e+00 1.318011e+01 2.640758e+01 3.421549e+01 -5.575817e+00 -3.478933e+01 -4.125010e+00 3.214415e+00 6.260980e+00 8.732550e+00 1.161414e+01 1.376588e+01 1.444687e+01 1.237848e+01 7.224685e+00 
-1.344400e-12 -5.673342e+00 -9.630056e+00 -1.118221e+01 -1.050664e+01 -8.634092e+00 -6.128102e+00 -3.616160e+00 -1.243199e+00 5.560641e-01 1.828665e+01 4.518263e+01 1.954167e+01 -1.486437e+01 -3.872476e+01 -3.047441e+01 4.657925e-11 3.047441e+01 3.872476e+01 1.486437e+01 -1.954167e+01 -4.518263e+01 -1.828665e+01 -5.560641e-01 1.243199e+00 3.616160e+00 6.128102e+00 8.634092e+00 1.050664e+01 1.118221e+01 9.630056e+00 5.673342e+00 
-1.255936e-12 -4.145498e+00 -6.950114e+00 -7.959540e+00 -7.280257e+00 -5.672583e+00 -3.562185e+00 -1.339115e+00 1.050727e+00 3.250110e+00 5.535911e+00 1.814203e+01 1.437308e+01 2.121257e+01 2.865732e+01 1.319649e+01 2.255946e-12 -1.319649e+01 -2.865732e+01 -2.121257e+01 -1.437308e+01 -1.814203e+01 -5.535911e+00 -3.250110e+00 -1.050727e+00 1.339115e+00 3.562185e+00 5.672583e+00 7.280257e+00 7.959540e+00 6.950114e+00 4.145498e+00 
-1.028042e-12 -2.777214e+00 -4.582921e+00 -5.111136e+00 -4.435494e+00 -3.044183e+00 -1.181716e+00 1.023569e+00 3.584288e+00 6.098323e+00 8.705265e+00 1.219853e+01 1.520115e+01 2.058841e+01 3.157110e+01 2.317189e+01 -1.531907e-11 -2.317189e+01 -3.157110e+01 -2.058841e+01 -1.520115e+01 -1.219853e+01 -8.705265e+00 -6.098323e+00 -3.584288e+00 -1.023569e+00 1.181716e+00 3.044183e+00 4.435494e+00 5.111136e+00 4.582921e+00 2.777214e+00 
-7.495873e-13 -1.679412e+00 -2.709379e+00 -2.881374e+00 -2.225756e+00 -9.772619e-01 7.948284e-01 3.129762e+00 5.952564e+00 9.009873e+00 1.227033e+01 1.519215e+01 1.874763e+01 2.417058e+01 3.178994e+01 2.530557e+01 -1.709622e-11 -2.530557e+01 -3.178994e+01 -2.417058e+01 -1.874763e+01 -1.519215e+01 -1.227033e+01 -9.009873e+00 -5.952564e+00 -3.129762e+00 -7.948284e-01 9.772619e-01 2.225756e+00 2.881374e+00 2.709379e+00 1.679412e+00 
-4.640939e-13 -9.032660e-01 -1.402196e+00 -1.346388e+00 -7.033679e-01 4.926202e-01 2.306913e+00 4.827649e+00 7.943130e+00 1.137310e+01 1.487313e+01 1.805831e+01 2.145562e+01 2.570359e+01 2.958809e+01 2.362409e+01 -1.314792e-11 -2.362409e+01 -2.958809e+01 -2.570359e+01 -2.145562e+01 -1.805831e+01 -1.487313e+01 -1.137310e+01 -7.943130e+00 -4.827649e+00 -2.306913e+00 -4.926202e-01 7.033679e-01 1.346388e+00 1.402196e+00 9.032660e-01 
-2.540148e-13 -4.211666e-01 -6.024217e-01 -4.243946e-01 1.981348e-01 1.353701e+00 3.153151e+00 5.682859e+00 8.787242e+00 1.222837e+01 1.570790e+01 1.880112e+01 2.142921e+01 2.355781e+01 2.426792e+01 1.850199e+01 -7.747544e-12 -1.850199e+01 -2.426792e+01 -2.355781e+01 -2.142921e+01 -1.880112e+01 -1.570790e+01 -1.222837e+01 -8.787242e+00 -5.682859e+00 -3.153151e+00 -1.353701e+00 -1.981348e-01 4.243946e-01 6.024217e-01 4.211666e-01 
-1.238266e-13 -1.623194e-01 -1.875769e-01 1.758237e-02 5.533290e-01 1.535660e+00 3.062256e+00 5.180735e+00 7.763344e+00 1.063628e+01 1.351173e+01 1.600611e+01 1.777531e+01 1.849149e+01 1.747293e+01 1.234303e+01 -3.160824e-12 -1.234303e+01 -1.747293e+01 -1.849149e+01 -1.777531e+01 -1.600611e+01 -1.351173e+01 -1.063628e+01 -7.763344e+00 -5.180735e+00 -3.062256e+00 -1.535660e+00 -5.533290e-01 -1.758237e-02 1.875769e-01 1.623194e-01 
-7.851248e-14 -4.646267e-02 -2.826726e-02 1.090894e-01 4.318901e-01 1.016104e+00 1.912718e+00 3.141217e+00 4.627711e+00 6.284907e+00 7.939564e+00 9.340719e+00 1.021747e+01 1.029996e+01 9.238941e+00 6.134150e+00 -8.737582e-13 -6.134150e+00 -9.238941e+00 -1.029996e+01 -1.021747e+01 -9.340719e+00 -7.939564e+00 -6.284907e+00 -4.627711e+00 -3.141217e+00 -1.912718e+00 -1.016104e+00 -4.318901e-01 -1.090894e-01 2.826726e-02 4.646267e-02 
