# vtk DataFile Version 2.0
Comment goes here
ASCII

DATASET STRUCTURED_POINTS
FIELD FieldData 1
TIME 1 1 double
0.40000000
DIMENSIONS    32   32   1

ORIGIN    0.000   0.000   0.000
SPACING   0.03125 0.03125   1.000

POINT_DATA   1024
SCALARS Omega double
LOOKUP_TABLE default

-1.023408e-13 -9.508668e-14 -7.783877e-14 -5.828701e-14 -6.746369e-14 -5.473333e-14 -3.689692e-14 -3.224572e-14 -1.636109e-14 -6.249709e-14 -1.600872e-13 -3.916034e-13 -5.658957e-13 -6.258745e-13 -4.167329e-13 4.252474e-13 1.292867e-12 5.513048e-13 -2.550120e-13 -3.578800e-13 -2.940238e-13 -1.687626e-13 -6.666790e-14 -3.112607e-15 6.665597e-15 -1.968561e-14 -2.639584e-14 -3.621582e-14 -5.300146e-14 -6.354288e-14 -7.439800e-14 -9.738879e-14 
-9.390051e-14 5.675711e-03 1.289588e-02 2.312445e-02 3.697031e-02 5.106463e-02 5.511978e-02 2.501100e-02 -1.371578e-01 -6.002412e-01 -1.701327e+00 -3.592288e+00 -6.077992e+00 -8.578140e+00 -1.035188e+01 -9.218906e+00 8.405945e-13 9.218906e+00 1.035188e+01 8.578140e+00 6.077992e+00 3.592288e+00 1.701327e+00 6.002412e-01 1.371578e-01 -2.501100e-02 -5.511978e-02 -5.106463e-02 -3.697031e-02 -2.312445e-02 -1.289588e-02 -5.675711e-03 
-7.703490e-14 1.709657e-02 3.670334e-02 6.288099e-02 9.642862e-02 1.323422e-01 1.559605e-01 1.301810e-01 -8.931202e-02 -7.390671e-01 -2.463220e+00 -5.698847e+00 -1.034149e+01 -1.544587e+01 -2.010228e+01 -2.028153e+01 6.233496e-13 2.028153e+01 2.010228e+01 1.544587e+01 1.034149e+01 5.698847e+00 2.463220e+00 7.390671e-01 8.931202e-02 -1.301810e-01 -1.559605e-01 -1.323422e-01 -9.642862e-02 -6.288099e-02 -3.670334e-02 -1.709657e-02 
-5.562734e-14 4.211852e-02 8.502133e-02 1.356824e-01 1.964926e-01 2.615027e-01 3.212046e-01 3.205917e-01 1.225264e-01 -4.056956e-01 -2.089417e+00 -5.705994e+00 -1.205223e+01 -1.958334e+01 -2.997497e+01 -3.318712e+01 6.022338e-13 3.318712e+01 2.997497e+01 1.958334e+01 1.205223e+01 5.705994e+00 2.089417e+00 4.056956e-01 -1.225264e-01 -3.205917e-01 -3.212046e-01 -2.615027e-01 -1.964926e-01 -1.356824e-01 -8.502133e-02 -4.211852e-02 
-6.276358e-14 1.007884e-01 1.886069e-01 2.772072e-01 3.698149e-01 4.778234e-01 5.819741e-01 6.118996e-01 3.930347e-01 2.097724e-01 -9.023185e-01 -3.881373e+00 -8.585957e+00 -1.841695e+01 -4.081524e+01 -4.223684e+01 9.187199e-13 4.223684e+01 4.081524e+01 1.841695e+01 8.585957e+00 3.881373e+00 9.023185e-01 -2.097724e-01 -3.930347e-01 -6.118996e-01 -5.819741e-01 -4.778234e-01 -3.698149e-01 -2.772072e-01 -1.886069e-01 -1.007884e-01 
-2.067478e-14 2.337816e-01 4.074192e-01 5.405279e-01 6.487838e-01 7.835781e-01 8.754733e-01 8.031285e-01 5.031204e-01 7.351367e-01 1.061918e+00 1.124158e+00 -1.696743e+00 -1.900842e+01 -4.437128e+01 -3.305933e+01 1.120428e-12 3.305933e+01 4.437128e+01 1.900842e+01 1.696743e+00 -1.124158e+00 -1.061918e+00 -7.351367e-01 -5.031204e-01 -8.031285e-01 -8.754733e-01 -7.835781e-01 -6.487838e-01 -5.405279e-01 -4.074192e-01 -2.337816e-01 
-2.068992e-14 5.320353e-01 8.747664e-01 1.051328e+00 1.105362e+00 1.193312e+00 1.069552e+00 7.571162e-01 1.210924e+00 3.158435e+00 7.440124e+00 7.713774e+00 -6.600136e+00 -2.542532e+01 -2.192036e+01 3.253027e+00 1.423098e-13 -3.253027e+00 2.192036e+01 2.542532e+01 6.600136e+00 -7.713774e+00 -7.440124e+00 -3.158435e+00 -1.210924e+00 -7.571162e-01 -1.069552e+00 -1.193312e+00 -1.105362e+00 -1.051328e+00 -8.747664e-01 -5.320353e-01 
-3.115948e-14 1.142276e+00 1.815332e+00 2.012051e+00 1.846874e+00 1.651801e+00 1.186112e+00 1.588295e+00 5.936423e+00 9.829969e+00 6.562662e+00 -5.639542e+00 -1.065912e+01 1.005927e+01 3.301735e+01 3.243125e+01 -1.177823e-12 -3.243125e+01 -3.301735e+01 -1.005927e+01 1.065912e+01 5.639542e+00 -6.562662e+00 -9.829969e+00 -5.936423e+00 -1.588295e+00 -1.186112e+00 -1.651801e+00 -1.846874e+00 -2.012051e+00 -1.815332e+00 -1.142276e+00 
-6.395574e-14 2.244210e+00 3.518817e+00 3.698895e+00 3.054567e+00 2.403233e+00 2.868223e+00 8.187055e+00 1.144766e+01 -3.473375e+00 -5.381193e+00 1.889374e+01 4.102649e+01 4.419428e+01 2.745816e+01 9.662534e+00 2.137299e-12 -9.662534e+00 -2.745816e+01 -4.419428e+01 -4.102649e+01 -1.889374e+01 5.381193e+00 3.473375e+00 -1.144766e+01 -8.187055e+00 -2.868223e+00 -2.403233e+00 -3.054567e+00 -3.698895e+00 -3.518817e+00 -2.244210e+00 
-1.027399e-13 3.979968e+00 6.225599e+00 6.369291e+00 5.116117e+00 5.238432e+00 1.100126e+01 1.574243e+01 7.974404e+00 1.122853e+01 2.790396e+01 2.128628e+01 -2.634366e-01 -1.730975e+01 -1.840695e+01 -1.329935e+01 3.843292e-12 1.329935e+01 1.840695e+01 1.730975e+01 2.634366e-01 -2.128628e+01 -2.790396e+01 -1.122853e+01 -7.974404e+00 -1.574243e+01 -1.100126e+01 -5.238432e+00 -5.116117e+00 -6.369291e+00 -6.225599e+00 -3.979968e+00 
-1.694218e-13 6.388411e+00 9.984384e+00 1.013781e+01 9.246776e+00 1.550070e+01 2.704062e+01 2.548782e+01 1.254806e+01 9.816760e+00 1.452301e+00 -1.861889e+01 -2.931536e+01 -2.499306e+01 -9.106444e+00 -1.103102e+00 8.159194e-13 1.103102e+00 9.106444e+00 2.499306e+01 2.931536e+01 1.861889e+01 -1.452301e+00 -9.816760e+00 -1.254806e+01 -2.548782e+01 -2.704062e+01 -1.550070e+01 -9.246776e+00 -1.013781e+01 -9.984384e+00 -6.388411e+00 
-2.015922e-13 9.394273e+00 1.463335e+01 1.530426e+01 1.907698e+01 4.102788e+01 3.155171e+01 -5.558758e+00 -6.776215e+00 -9.897219e+00 -1.631296e+01 -3.523328e+00 1.297352e+01 2.058358e+01 1.975057e+01 1.325623e+01 -4.592118e-13 -1.325623e+01 -1.975057e+01 -2.058358e+01 -1.297352e+01 3.523328e+00 1.631296e+01 9.897219e+00 6.776215e+00 5.558758e+00 -3.155171e+01 -4.102788e+01 -1.907698e+01 -1.530426e+01 -1.463335e+01 -9.394273e+00 
-1.775614e-13 1.253275e+01 1.944741e+01 2.235275e+01 3.752283e+01 5.187434e+01 -1.316454e+01 -4.165034e+01 -7.439689e-01 2.955504e+00 1.302686e+00 5.892211e-01 1.148849e+01 1.622580e+01 1.493570e+01 1.092266e+01 -4.492842e-13 -1.092266e+01 -1.493570e+01 -1.622580e+01 -1.148849e+01 -5.892211e-01 -1.302686e+00 -2.955504e+00 7.439689e-01 4.165034e+01 1.316454e+01 -5.187434e+01 -3.752283e+01 -2.235275e+01 -1.944741e+01 -1.253275e+01 
-8.258916e-14 1.478917e+01 2.286707e+01 2.845710e+01 4.956386e+01 1.007799e+01 -5.329507e+01 4.331461e-01 2.674305e+01 -1.163942e+01 -2.442075e+01 -1.310972e+01 4.176714e+00 6.646566e+00 8.006920e+00 6.673451e+00 -3.638614e-13 -6.673451e+00 -8.006920e+00 -6.646566e+00 -4.176714e+00 1.310972e+01 2.442075e+01 1.163942e+01 -2.674305e+01 -4.331461e-01 5.329507e+01 -1.007799e+01 -4.956386e+01 -2.845710e+01 -2.286707e+01 -1.478917e+01 
-4.019387e-14 1.430142e+01 2.152417e+01 2.703334e+01 4.178757e+01 -3.077674e+01 -3.038863e+01 5.040774e+01 1.534589e+01 -2.483111e+01 -3.507004e+01 -1.953802e+01 -3.811027e+00 -4.508050e-01 2.288534e+00 2.646414e+00 -2.423309e-13 -2.646414e+00 -2.288534e+00 4.508050e-01 3.811027e+00 1.953802e+01 3.507004e+01 2.483111e+01 -1.534589e+01 -5.040774e+01 3.038863e+01 3.077674e+01 -4.178757e+01 -2.703334e+01 -2.152417e+01 -1.430142e+01 
3.307546e-13 9.060268e+00 1.290850e+01 1.678747e+01 2.177631e+01 -2.573001e+01 -2.630543e+00 3.788876e+01 -1.196275e+00 -1.945247e+01 -2.590079e+01 -1.654712e+01 -6.255955e+00 -2.480509e+00 -3.101151e-01 4.269473e-01 -9.421388e-14 -4.269473e-01 3.101151e-01 2.480509e+00 6.255955e+00 1.654712e+01 2.590079e+01 1.945247e+01 1.196275e+00 -3.788876e+01 2.630543e+00 2.573001e+01 -2.177631e+01 -1.678747e+01 -1.290850e+01 -9.060268e+00 
6.138759e-13 8.062440e-13 1.888938e-12 5.212797e-12 5.462641e-12 -2.510161e-12 -6.323366e-12 7.663222e-13 3.934557e-12 1.324896e-12 2.628748e-13 -1.057114e-13 -2.754898e-13 -1.332966e-13 -1.249865e-13 -3.922884e-14 -6.125484e-14 -7.919567e-14 -6.696946e-14 -9.781420e-14 -7.609772e-14 1.045566e-13 4.838323e-13 9.389403e-13 3.675650e-12 5.056058e-12 4.296256e-13 -1.944763e-12 4.544989e-13 1.452505e-12 7.319711e-13 6.507294e-13 
-2.726239e-14 -9.060268e+00 -1.290850e+01 -1.678747e+01 -2.177631e+01 2.573001e+01 2.630543e+00 -3.788876e+01 1.196275e+00 1.945247e+01 2.590079e+01 1.654712e+01 6.255955e+00 2.480509e+00 3.101151e-01 -4.269473e-01 1.753900e-15 4.269473e-01 -3.101151e-01 -2.480509e+00 -6.255955e+00 -1.654712e+01 -2.590079e+01 -1.945247e+01 -1.196275e+00 3.788876e+01 -2.630543e+00 -2.573001e+01 2.177631e+01 1.678747e+01 1.290850e+01 9.060268e+00 
-4.471730e-13 -1.430142e+01 -2.152417e+01 -2.703334e+01 -4.178757e+01 3.077674e+01 3.038863e+01 -5.040774e+01 -1.534589e+01 2.483111e+01 3.507004e+01 1.953802e+01 3.811027e+00 4.508050e-01 -2.288534e+00 -2.646414e+00 1.111583e-13 2.646414e+00 2.288534e+00 -4.508050e-01 -3.811027e+00 -1.953802e+01 -3.507004e+01 -2.483111e+01 1.534589e+01 5.040774e+01 -3.038863e+01 -3.077674e+01 4.178757e+01 2.703334e+01 2.152417e+01 1.430142e+01 
-5.201553e-13 -1.478917e+01 -2.286707e+01 -2.845710e+01 -4.956386e+01 -1.007799e+01 5.329507e+01 -4.331461e-01 -2.674305e+01 1.163942e+01 2.442075e+01 1.310972e+01 -4.176714e+00 -6.646566e+00 -8.006920e+00 -6.673451e+00 5.148321e-13 6.673451e+00 8.006920e+00 6.646566e+00 4.176714e+00 -1.310972e+01 -2.442075e+01 -1.163942e+01 2.674305e+01 4.331461e-01 -5.329507e+01 1.007799e+01 4.956386e+01 2.845710e+01 2.286707e+01 1.478917e+01 
-4.247312e-13 -1.253275e+01 -1.944741e+01 -2.235275e+01 -3.752283e+01 -5.187434e+01 1.316454e+01 4.165034e+01 7.439689e-01 -2.955504e+00 -1.302686e+00 -5.892211e-01 -1.148849e+01 -1.622580e+01 -1.493570e+01 -1.092266e+01 1.326230e-12 1.092266e+01 1.493570e+01 1.622580e+01 1.148849e+01 5.892211e-01 1.302686e+00 2.955504e+00 -7.439689e-01 -4.165034e+01 -1.316454e+01 5.187434e+01 3.752283e+01 2.235275e+01 1.944741e+01 1.253275e+01 
-2.786272e-13 -9.394273e+00 -1.463335e+01 -1.530426e+01 -1.907698e+01 -4.102788e+01 -3.155171e+01 5.558758e+00 6.776215e+00 9.897219e+00 1.631296e+01 3.523328e+00 -1.297352e+01 -2.058358e+01 -1.975057e+01 -1.325623e+01 3.802643e-12 1.325623e+01 1.975057e+01 2.058358e+01 1.297352e+01 -3.523328e+00 -1.631296e+01 -9.897219e+00 -6.776215e+00 -5.558758e+00 3.155171e+01 4.102788e+01 1.907698e+01 1.530426e+01 1.463335e+01 9.394273e+00 
-1.664228e-13 -6.388411e+00 -9.984384e+00 -1.013781e+01 -9.246776e+00 -1.550070e+01 -2.704062e+01 -2.548782e+01 -1.254806e+01 -9.816760e+00 -1.452301e+00 1.861889e+01 2.931536e+01 2.499306e+01 9.106444e+00 1.103102e+00 5.052905e-12 -1.103102e+00 -9.106444e+00 -2.499306e+01 -2.931536e+01 -1.861889e+01 1.452301e+00 9.816760e+00 1.254806e+01 2.548782e+01 2.704062e+01 1.550070e+01 9.246776e+00 1.013781e+01 9.984384e+00 6.388411e+00 
-7.579206e-14 -3.979968e+00 -6.225599e+00 -6.369291e+00 -5.116117e+00 -5.238432e+00 -1.100126e+01 -1.574243e+01 -7.974404e+00 -1.122853e+01 -2.790396e+01 -2.128628e+01 2.634366e-01 1.730975e+01 1.840695e+01 1.329935e+01 -1.115352e-12 -1.329935e+01 -1.840695e+01 -1.730975e+01 -2.634366e-01 2.128628e+01 2.790396e+01 1.122853e+01 7.974404e+00 1.574243e+01 1.100126e+01 5.238432e+00 5.116117e+00 6.369291e+00 6.225599e+00 3.979968e+00 
-9.710574e-16 -2.244210e+00 -3.518817e+00 -3.698895e+00 -3.054567e+00 -2.403233e+00 -2.868223e+00 -8.187055e+00 -1.144766e+01 3.473375e+00 5.381193e+00 -1.889374e+01 -4.102649e+01 -4.419428e+01 -2.745816e+01 -9.662534e+00 -5.537868e-12 9.662534e+00 2.745816e+01 4.419428e+01 4.102649e+01 1.889374e+01 -5.381193e+00 -3.473375e+00 1.144766e+01 8.187055e+00 2.868223e+00 2.403233e+00 3.054567e+00 3.698895e+00 3.518817e+00 2.244210e+00 
5.909582e-15 -1.142276e+00 -1.815332e+00 -2.012051e+00 -1.846874e+00 -1.651801e+00 -1.186112e+00 -1.588295e+00 -5.936423e+00 -9.829969e+00 -6.562662e+00 5.639542e+00 1.065912e+01 -1.005927e+01 -3.301735e+01 -3.243125e+01 -1.893138e-12 3.243125e+01 3.301735e+01 1.005927e+01 -1.065912e+01 -5.639542e+00 6.562662e+00 9.829969e+00 5.936423e+00 1.588295e+00 1.186112e+00 1.651801e+00 1.846874e+00 2.012051e+00 1.815332e+00 1.142276e+00 
2.355902e-14 -5.320353e-01 -8.747664e-01 -1.051328e+00 -1.105362e+00 -1.193312e+00 -1.069552e+00 -7.571162e-01 -1.210924e+00 -3.158435e+00 -7.440124e+00 -7.713774e+00 6.600136e+00 2.542532e+01 2.192036e+01 -3.253027e+00 6.323517e-13 3.253027e+00 -2.192036e+01 -2.542532e+01 -6.600136e+00 7.713774e+00 7.440124e+00 3.158435e+00 1.210924e+00 7.571162e-01 1.069552e+00 1.193312e+00 1.105362e+00 1.051328e+00 8.747664e-01 5.320353e-01 
-1.958732e-14 -2.337816e-01 -4.074192e-01 -5.405279e-01 -6.487838e-01 -7.835781e-01 -8.754733e-01 -8.031285e-01 -5.031204e-01 -7.351367e-01 -1.061918e+00 -1.124158e+00 1.696743e+00 1.900842e+01 4.437128e+01 3.305933e+01 5.350949e-13 -3.305933e+01 -4.437128e+01 -1.900842e+01 -1.696743e+00 1.124158e+00 1.061918e+00 7.351367e-01 5.031204e-01 8.031285e-01 8.754733e-01 7.835781e-01 6.487838e-01 5.405279e-01 4.074192e-01 2.337816e-01 
-7.180685e-16 -1.007884e-01 -1.886069e-01 -2.772072e-01 -3.698149e-01 -4.778234e-01 -5.819741e-01 -6.118996e-01 -3.930347e-01 -2.097724e-01 9.023185e-01 3.881373e+00 8.585957e+00 1.841695e+01 4.081524e+01 4.223684e+01 1.886231e-12 -4.223684e+01 -4.081524e+01 -1.841695e+01 -8.585957e+00 -3.881373e+00 -9.023185e-01 2.097724e-01 3.930347e-01 6.118996e-01 5.819741e-01 4.778234e-01 3.698149e-01 2.772072e-01 1.886069e-01 1.007884e-01 
-5.169880e-14 -4.211852e-02 -8.502133e-02 -1.356824e-01 -1.964926e-01 -2.615027e-01 -3.212046e-01 -3.205917e-01 -1.225264e-01 4.056956e-01 2.089417e+00 5.705994e+00 1.205223e+01 1.958334e+01 2.997497e+01 3.318712e+01 2.958004e-12 -3.318712e+01 -2.997497e+01 -1.958334e+01 -1.205223e+01 -5.705994e+00 -2.089417e+00 -4.056956e-01 1.225264e-01 3.205917e-01 3.212046e-01 2.615027e-01 1.964926e-01 1.356824e-01 8.502133e-02 4.211852e-02 
-5.868066e-14 -1.709657e-02 -3.670334e-02 -6.288099e-02 -9.642862e-02 -1.323422e-01 -1.559605e-01 -1.301810e-01 8.931202e-02 7.390671e-01 2.463220e+00 5.698847e+00 1.034149e+01 1.544587e+01 2.010228e+01 2.028153e+01 2.863211e-12 -2.028153e+01 -2.010228e+01 -1.544587e+01 -1.034149e+01 -5.698847e+00 -2.463220e+00 -7.390671e-01 -8.931202e-02 1.301810e-01 1.559605e-01 1.323422e-01 9.642862e-02 6.288099e-02 3.670334e-02 1.709657e-02 
-9.353656e-14 -5.675711e-03 -1.289588e-02 -2.312445e-02 -3.697031e-02 -5.106463e-02 -5.511978e-02 -2.501100e-02 1.371578e-01 6.002412e-01 1.701327e+00 3.592288e+00 6.077992e+00 8.578140e+00 1.035188e+01 9.218906e+00 2.052458e-12 -9.218906e+00 -1.035188e+01 -8.578140e+00 -6.077992e+00 -3.592288e+00 -1.701327e+00 -6.002412e-01 -1.371578e-01 2.501100e-02 5.511978e-02 5.106463e-02 3.697031e-02 2.312445e-02 1.289588e-02 5.675711e-03 
