# vtk DataFile Version 2.0
Comment goes here
ASCII

DATASET STRUCTURED_POINTS
FIELD FieldData 1
TIME 1 1 double
1.00000000
DIMENSIONS    32   32   1

ORIGIN    0.000   0.000   0.000
SPACING   0.03125 0.03125   1.000

POINT_DATA   1024
SCALARS Omega double
LOOKUP_TABLE default

-7.410935e-14 -6.005250e-14 -5.708026e-14 -8.135593e-14 -1.111863e-13 -1.519325e-13 -1.520084e-13 -1.398866e-13 3.686904e-15 2.185225e-13 5.361146e-13 7.850374e-13 9.013601e-13 8.698508e-13 8.032146e-13 4.651721e-13 7.757922e-15 -6.616682e-14 -1.485326e-13 -1.447495e-13 2.351593e-13 5.538672e-13 7.083116e-13 5.710080e-13 3.336423e-13 1.055032e-13 -5.777043e-14 -8.451097e-14 -8.373798e-14 -9.222533e-14 -8.142835e-14 -7.471952e-14 
-6.995276e-14 3.928809e-02 1.980321e-02 -1.144306e-01 -4.314660e-01 -1.013560e+00 -1.925384e+00 -3.168286e+00 -4.677020e+00 -6.354914e+00 -8.101799e+00 -9.739443e+00 -1.092623e+01 -1.114887e+01 -9.718254e+00 -5.816321e+00 4.837294e-14 5.816321e+00 9.718254e+00 1.114887e+01 1.092623e+01 9.739443e+00 8.101799e+00 6.354914e+00 4.677020e+00 3.168286e+00 1.925384e+00 1.013560e+00 4.314660e-01 1.144306e-01 -1.980321e-02 -3.928809e-02 
-8.347460e-14 1.406935e-01 1.588198e-01 -4.116681e-02 -5.577843e-01 -1.520413e+00 -3.050065e+00 -5.178036e+00 -7.803501e+00 -1.073555e+01 -1.377142e+01 -1.660269e+01 -1.875635e+01 -1.945032e+01 -1.742166e+01 -1.085179e+01 1.207546e-13 1.085179e+01 1.742166e+01 1.945032e+01 1.875635e+01 1.660269e+01 1.377142e+01 1.073555e+01 7.803501e+00 5.178036e+00 3.050065e+00 1.520413e+00 5.577843e-01 4.116681e-02 -1.588198e-01 -1.406935e-01 
-1.440226e-13 3.700215e-01 5.264711e-01 3.460806e-01 -2.475693e-01 -1.365280e+00 -3.147415e+00 -5.661755e+00 -8.797303e+00 -1.227646e+01 -1.579915e+01 -1.911478e+01 -2.190889e+01 -2.369524e+01 -2.280752e+01 -1.558246e+01 -3.418740e-13 1.558246e+01 2.280752e+01 2.369524e+01 2.190889e+01 1.911478e+01 1.579915e+01 1.227646e+01 8.797303e+00 5.661755e+00 3.147415e+00 1.365280e+00 2.475693e-01 -3.460806e-01 -5.264711e-01 -3.700215e-01 
-2.910618e-13 8.062945e-01 1.250821e+00 1.176786e+00 5.785790e-01 -5.482612e-01 -2.281447e+00 -4.713498e+00 -7.768565e+00 -1.118828e+01 -1.475797e+01 -1.829771e+01 -2.219674e+01 -2.607906e+01 -2.768225e+01 -2.193292e+01 -1.385431e-12 2.193292e+01 2.768225e+01 2.607906e+01 2.219674e+01 1.829771e+01 1.475797e+01 1.118828e+01 7.768565e+00 4.713498e+00 2.281447e+00 5.482612e-01 -5.785790e-01 -1.176786e+00 -1.250821e+00 -8.062945e-01 
-4.441531e-13 1.531992e+00 2.471658e+00 2.598874e+00 1.989580e+00 8.220101e-01 -8.403600e-01 -3.046074e+00 -5.786054e+00 -8.876121e+00 -1.204545e+01 -1.576476e+01 -2.056061e+01 -2.685549e+01 -3.615968e+01 -3.231150e+01 -2.559368e-12 3.231150e+01 3.615968e+01 2.685549e+01 2.056061e+01 1.576476e+01 1.204545e+01 8.876121e+00 5.786054e+00 3.046074e+00 8.403600e-01 -8.220101e-01 -1.989580e+00 -2.598874e+00 -2.471658e+00 -1.531992e+00 
-6.044745e-13 2.579690e+00 4.250256e+00 4.697409e+00 4.062539e+00 2.749874e+00 1.042218e+00 -9.918332e-01 -3.331854e+00 -5.815379e+00 -7.738765e+00 -1.145615e+01 -1.508699e+01 -2.995372e+01 -5.299216e+01 -4.176427e+01 -3.550561e-12 4.176427e+01 5.299216e+01 2.995372e+01 1.508699e+01 1.145615e+01 7.738765e+00 5.815379e+00 3.331854e+00 9.918332e-01 -1.042218e+00 -2.749874e+00 -4.062539e+00 -4.697409e+00 -4.250256e+00 -2.579690e+00 
-5.901660e-13 3.945726e+00 6.584604e+00 7.483525e+00 6.820778e+00 5.261820e+00 3.303473e+00 1.256896e+00 -9.669312e-01 -2.331970e+00 -2.182534e+00 -1.292030e+01 -2.488867e+01 -3.124467e+01 -9.352431e+00 2.499497e+01 -1.439012e-12 -2.499497e+01 9.352431e+00 3.124467e+01 2.488867e+01 1.292030e+01 2.182534e+00 2.331970e+00 9.669312e-01 -1.256896e+00 -3.303473e+00 -5.261820e+00 -6.820778e+00 -7.483525e+00 -6.584604e+00 -3.945726e+00 
-4.635428e-13 5.521644e+00 9.285870e+00 1.072091e+01 1.002057e+01 8.151310e+00 5.817454e+00 3.469042e+00 1.546460e+00 4.581915e+00 -6.925899e+00 -6.729893e+00 3.654716e+01 7.606566e+01 7.316265e+01 4.021131e+01 -5.868904e-12 -4.021131e+01 -7.316265e+01 -7.606566e+01 -3.654716e+01 6.729893e+00 6.925899e+00 -4.581915e+00 -1.546460e+00 -3.469042e+00 -5.817454e+00 -8.151310e+00 -1.002057e+01 -1.072091e+01 -9.285870e+00 -5.521644e+00 
-2.242864e-13 7.163836e+00 1.212480e+01 1.410162e+01 1.329090e+01 1.101041e+01 8.069468e+00 5.749990e+00 7.796442e+00 1.080378e+01 1.415906e+01 5.970455e+01 7.343417e+01 3.516842e+01 5.636915e+00 -1.193117e+01 3.833634e-13 1.193117e+01 -5.636915e+00 -3.516842e+01 -7.343417e+01 -5.970455e+01 -1.415906e+01 -1.080378e+01 -7.796442e+00 -5.749990e+00 -8.069468e+00 -1.101041e+01 -1.329090e+01 -1.410162e+01 -1.212480e+01 -7.163836e+00 
-2.053760e-14 8.679289e+00 1.481665e+01 1.734862e+01 1.642773e+01 1.394791e+01 1.109022e+01 1.299660e+01 3.113913e+01 2.391481e+01 2.462700e+01 3.335572e+01 -4.435261e+00 -2.652397e+01 -1.596866e+01 -2.405951e+00 1.587153e-12 2.405951e+00 1.596866e+01 2.652397e+01 4.435261e+00 -3.335572e+01 -2.462700e+01 -2.391481e+01 -3.113913e+01 -1.299660e+01 -1.109022e+01 -1.394791e+01 -1.642773e+01 -1.734862e+01 -1.481665e+01 -8.679289e+00 
3.762585e-14 9.918342e+00 1.713733e+01 2.016049e+01 1.910997e+01 1.664743e+01 1.798491e+01 3.996577e+01 4.016635e+01 -8.406198e+00 4.142252e+00 1.365151e+01 -4.225037e+00 4.035373e+00 8.840830e+00 1.359700e+01 -1.968460e-12 -1.359700e+01 -8.840830e+00 -4.035373e+00 4.225037e+00 -1.365151e+01 -4.142252e+00 8.406198e+00 -4.016635e+01 -3.996577e+01 -1.798491e+01 -1.664743e+01 -1.910997e+01 -2.016049e+01 -1.713733e+01 -9.918342e+00 
-7.001530e-14 1.083260e+01 1.909518e+01 2.280344e+01 2.206576e+01 1.993007e+01 2.165648e+01 4.100049e+01 -7.594437e+00 -2.482629e+01 2.169427e+01 3.260038e+00 -9.487691e-01 4.274167e+00 7.035740e+00 7.928602e+00 -1.076909e-12 -7.928602e+00 -7.035740e+00 -4.274167e+00 9.487691e-01 -3.260038e+00 -2.169427e+01 2.482629e+01 7.594437e+00 -4.100049e+01 -2.165648e+01 -1.993007e+01 -2.206576e+01 -2.280344e+01 -1.909518e+01 -1.083260e+01 
-2.549200e-13 1.128945e+01 2.048305e+01 2.534590e+01 2.595016e+01 2.464550e+01 2.812285e+01 1.645639e+01 -4.586584e+01 7.589616e-02 3.092911e+01 -2.394409e+01 -1.033693e+01 8.512371e-01 3.373464e+00 3.730222e+00 -2.441149e-13 -3.730222e+00 -3.373464e+00 -8.512371e-01 1.033693e+01 2.394409e+01 -3.092911e+01 -7.589616e-02 4.586584e+01 -1.645639e+01 -2.812285e+01 -2.464550e+01 -2.595016e+01 -2.534590e+01 -2.048305e+01 -1.128945e+01 
-7.015811e-13 1.069895e+01 1.989991e+01 2.551719e+01 2.725166e+01 2.641335e+01 2.954057e+01 -1.057224e+01 -3.058870e+01 4.297223e+01 2.749166e+01 -2.273499e+01 -9.577648e+00 -1.765875e+00 5.165833e-01 1.145441e+00 3.393303e-14 -1.145441e+00 -5.165833e-01 1.765875e+00 9.577648e+00 2.273499e+01 -2.749166e+01 -4.297223e+01 3.058870e+01 1.057224e+01 -2.954057e+01 -2.641335e+01 -2.725166e+01 -2.551719e+01 -1.989991e+01 -1.069895e+01 
-1.347255e-12 7.404129e+00 1.376114e+01 1.751056e+01 1.837414e+01 1.765846e+01 1.873386e+01 -1.632328e+01 -1.684420e+01 2.993687e+01 5.931795e+00 -2.061248e+01 -7.360706e+00 -2.162360e+00 -5.773327e-01 9.303503e-02 1.018137e-13 -9.303503e-02 5.773327e-01 2.162360e+00 7.360706e+00 2.061248e+01 -5.931795e+00 -2.993687e+01 1.684420e+01 1.632328e+01 -1.873386e+01 -1.765846e+01 -1.837414e+01 -1.751056e+01 -1.376114e+01 -7.404129e+00 
-2.428829e-12 -2.063816e-12 -1.772216e-12 -5.956074e-13 1.239532e-12 3.194974e-12 5.093084e-12 9.937360e-13 -1.563512e-13 2.233366e-12 -1.274139e-13 -2.067676e-12 -8.196377e-13 2.440980e-14 -1.655877e-14 1.094267e-13 8.742466e-14 1.365449e-13 1.173691e-13 7.649012e-13 2.172780e-12 8.408079e-12 9.238568e-12 1.026176e-11 -4.835142e-12 -1.602901e-11 1.796024e-12 7.422385e-12 4.320408e-12 -6.715113e-13 -3.316714e-12 -3.193995e-12 
-2.362680e-12 -7.404129e+00 -1.376114e+01 -1.751056e+01 -1.837414e+01 -1.765846e+01 -1.873386e+01 1.632328e+01 1.684420e+01 -2.993687e+01 -5.931795e+00 2.061248e+01 7.360706e+00 2.162360e+00 5.773327e-01 -9.303503e-02 1.832327e-13 9.303503e-02 -5.773327e-01 -2.162360e+00 -7.360706e+00 -2.061248e+01 5.931795e+00 2.993687e+01 -1.684420e+01 -1.632328e+01 1.873386e+01 1.765846e+01 1.837414e+01 1.751056e+01 1.376114e+01 7.404129e+00 
-1.600142e-12 -1.069895e+01 -1.989991e+01 -2.551719e+01 -2.725166e+01 -2.641335e+01 -2.954057e+01 1.057224e+01 3.058870e+01 -4.297223e+01 -2.749166e+01 2.273499e+01 9.577648e+00 1.765875e+00 -5.165833e-01 -1.145441e+00 1.446372e-13 1.145441e+00 5.165833e-01 -1.765875e+00 -9.577648e+00 -2.273499e+01 2.749166e+01 4.297223e+01 -3.058870e+01 -1.057224e+01 2.954057e+01 2.641335e+01 2.725166e+01 2.551719e+01 1.989991e+01 1.069895e+01 
-1.265569e-12 -1.128945e+01 -2.048305e+01 -2.534590e+01 -2.595016e+01 -2.464550e+01 -2.812285e+01 -1.645639e+01 4.586584e+01 -7.589616e-02 -3.092911e+01 2.394409e+01 1.033693e+01 -8.512371e-01 -3.373464e+00 -3.730222e+00 -3.610378e-13 3.730222e+00 3.373464e+00 8.512371e-01 -1.033693e+01 -2.394409e+01 3.092911e+01 7.589616e-02 -4.586584e+01 1.645639e+01 2.812285e+01 2.464550e+01 2.595016e+01 2.534590e+01 2.048305e+01 1.128945e+01 
-9.612782e-13 -1.083260e+01 -1.909518e+01 -2.280344e+01 -2.206576e+01 -1.993007e+01 -2.165648e+01 -4.100049e+01 7.594437e+00 2.482629e+01 -2.169427e+01 -3.260038e+00 9.487691e-01 -4.274167e+00 -7.035740e+00 -7.928602e+00 -3.029072e-12 7.928602e+00 7.035740e+00 4.274167e+00 -9.487691e-01 3.260038e+00 2.169427e+01 -2.482629e+01 -7.594437e+00 4.100049e+01 2.165648e+01 1.993007e+01 2.206576e+01 2.280344e+01 1.909518e+01 1.083260e+01 
-7.740790e-13 -9.918342e+00 -1.713733e+01 -2.016049e+01 -1.910997e+01 -1.664743e+01 -1.798491e+01 -3.996577e+01 -4.016635e+01 8.406198e+00 -4.142252e+00 -1.365151e+01 4.225037e+00 -4.035373e+00 -8.840830e+00 -1.359700e+01 -7.326410e-12 1.359700e+01 8.840830e+00 4.035373e+00 -4.225037e+00 1.365151e+01 4.142252e+00 -8.406198e+00 4.016635e+01 3.996577e+01 1.798491e+01 1.664743e+01 1.910997e+01 2.016049e+01 1.713733e+01 9.918342e+00 
-7.229803e-13 -8.679289e+00 -1.481665e+01 -1.734862e+01 -1.642773e+01 -1.394791e+01 -1.109022e+01 -1.299660e+01 -3.113913e+01 -2.391481e+01 -2.462700e+01 -3.335572e+01 4.435261e+00 2.652397e+01 1.596866e+01 2.405951e+00 -4.675545e-12 -2.405951e+00 -1.596866e+01 -2.652397e+01 -4.435261e+00 3.335572e+01 2.462700e+01 2.391481e+01 3.113913e+01 1.299660e+01 1.109022e+01 1.394791e+01 1.642773e+01 1.734862e+01 1.481665e+01 8.679289e+00 
-8.618391e-13 -7.163836e+00 -1.212480e+01 -1.410162e+01 -1.329090e+01 -1.101041e+01 -8.069468e+00 -5.749990e+00 -7.796442e+00 -1.080378e+01 -1.415906e+01 -5.970455e+01 -7.343417e+01 -3.516842e+01 -5.636915e+00 1.193117e+01 6.608317e-12 -1.193117e+01 5.636915e+00 3.516842e+01 7.343417e+01 5.970455e+01 1.415906e+01 1.080378e+01 7.796442e+00 5.749990e+00 8.069468e+00 1.101041e+01 1.329090e+01 1.410162e+01 1.212480e+01 7.163836e+00 
-9.686818e-13 -5.521644e+00 -9.285870e+00 -1.072091e+01 -1.002057e+01 -8.151310e+00 -5.817454e+00 -3.469042e+00 -1.546460e+00 -4.581915e+00 6.925899e+00 6.729893e+00 -3.654716e+01 -7.606566e+01 -7.316265e+01 -4.021131e+01 1.515242e-11 4.021131e+01 7.316265e+01 7.606566e+01 3.654716e+01 -6.729893e+00 -6.925899e+00 4.581915e+00 1.546460e+00 3.469042e+00 5.817454e+00 8.151310e+00 1.002057e+01 1.072091e+01 9.285870e+00 5.521644e+00 
-9.872126e-13 -3.945726e+00 -6.584604e+00 -7.483525e+00 -6.820778e+00 -5.261820e+00 -3.303473e+00 -1.256896e+00 9.669312e-01 2.331970e+00 2.182534e+00 1.292030e+01 2.488867e+01 3.124467e+01 9.352431e+00 -2.499497e+01 1.775087e-11 2.499497e+01 -9.352431e+00 -3.124467e+01 -2.488867e+01 -1.292030e+01 -2.182534e+00 -2.331970e+00 -9.669312e-01 1.256896e+00 3.303473e+00 5.261820e+00 6.820778e+00 7.483525e+00 6.584604e+00 3.945726e+00 
-8.113477e-13 -2.579690e+00 -4.250256e+00 -4.697409e+00 -4.062539e+00 -2.749874e+00 -1.042218e+00 9.918332e-01 3.331854e+00 5.815379e+00 7.738765e+00 1.145615e+01 1.508699e+01 2.995372e+01 5.299216e+01 4.176427e+01 -1.566844e-11 -4.176427e+01 -5.299216e+01 -2.995372e+01 -1.508699e+01 -1.145615e+01 -7.738765e+00 -5.815379e+00 -3.331854e+00 -9.918332e-01 1.042218e+00 2.749874e+00 4.062539e+00 4.697409e+00 4.250256e+00 2.579690e+00 
-5.912560e-13 -1.531992e+00 -2.471658e+00 -2.598874e+00 -1.989580e+00 -8.220101e-01 8.403600e-01 3.046074e+00 5.786054e+00 8.876121e+00 1.204545e+01 1.576476e+01 2.056061e+01 2.685549e+01 3.615968e+01 3.231150e+01 -1.519838e-11 -3.231150e+01 -3.615968e+01 -2.685549e+01 -2.056061e+01 -1.576476e+01 -1.204545e+01 -8.876121e+00 -5.786054e+00 -3.046074e+00 -8.403600e-01 8.220101e-01 1.989580e+00 2.598874e+00 2.471658e+00 1.531992e+00 
-3.372966e-13 -8.062945e-01 -1.250821e+00 -1.176786e+00 -5.785790e-01 5.482612e-01 2.281447e+00 4.713498e+00 7.768565e+00 1.118828e+01 1.475797e+01 1.829771e+01 2.219674e+01 2.607906e+01 2.768225e+01 2.193292e+01 -9.164860e-12 -2.193292e+01 -2.768225e+01 -2.607906e+01 -2.219674e+01 -1.829771e+01 -1.475797e+01 -1.118828e+01 -7.768565e+00 -4.713498e+00 -2.281447e+00 -5.482612e-01 5.785790e-01 1.176786e+00 1.250821e+00 8.062945e-01 
-2.004000e-13 -3.700215e-01 -5.264711e-01 -3.460806e-01 2.475693e-01 1.365280e+00 3.147415e+00 5.661755e+00 8.797303e+00 1.227646e+01 1.579915e+01 1.911478e+01 2.190889e+01 2.369524e+01 2.280752e+01 1.558246e+01 -4.395568e-12 -1.558246e+01 -2.280752e+01 -2.369524e+01 -2.190889e+01 -1.911478e+01 -1.579915e+01 -1.227646e+01 -8.797303e+00 -5.661755e+00 -3.147415e+00 -1.365280e+00 -2.475693e-01 3.460806e-01 5.264711e-01 3.700215e-01 
-7.415708e-14 -1.406935e-01 -1.588198e-01 4.116681e-02 5.577843e-01 1.520413e+00 3.050065e+00 5.178036e+00 7.803501e+00 1.073555e+01 1.377142e+01 1.660269e+01 1.875635e+01 1.945032e+01 1.742166e+01 1.085179e+01 -1.330767e-12 -1.085179e+01 -1.742166e+01 -1.945032e+01 -1.875635e+01 -1.660269e+01 -1.377142e+01 -1.073555e+01 -7.803501e+00 -5.178036e+00 -3.050065e+00 -1.520413e+00 -5.577843e-01 -4.116681e-02 1.588198e-01 1.406935e-01 
-8.081745e-14 -3.928809e-02 -1.980321e-02 1.144306e-01 4.314660e-01 1.013560e+00 1.925384e+00 3.168286e+00 4.677020e+00 6.354914e+00 8.101799e+00 9.739443e+00 1.092623e+01 1.114887e+01 9.718254e+00 5.816321e+00 -9.377264e-14 -5.816321e+00 -9.718254e+00 -1.114887e+01 -1.092623e+01 -9.739443e+00 -8.101799e+00 -6.354914e+00 -4.677020e+00 -3.168286e+00 -1.925384e+00 -1.013560e+00 -4.314660e-01 -1.144306e-01 1.980321e-02 3.928809e-02 
