# vtk DataFile Version 2.0
Comment goes here
ASCII

DATASET STRUCTURED_POINTS
FIELD FieldData 1
TIME 1 1 double
0.34000000
DIMENSIONS    32   32   1

ORIGIN    0.000   0.000   0.000
SPACING   0.03125 0.03125   1.000

POINT_DATA   1024
SCALARS Omega double
LOOKUP_TABLE default

-3.616174e-14 -2.714801e-14 -1.239431e-14 -2.446191e-15 -8.126437e-15 -1.229163e-14 -1.029336e-14 -1.469810e-14 -3.748086e-14 -1.060170e-13 -2.586704e-13 -4.777011e-13 -6.114160e-13 -5.611655e-13 -2.155028e-13 6.866816e-13 1.191611e-12 2.932353e-13 -8.701898e-14 -2.016977e-13 -2.956257e-13 -2.180840e-13 -1.268840e-13 -4.510076e-14 -1.751187e-14 -1.398639e-14 -1.170473e-14 -1.423561e-14 1.411062e-15 -6.329506e-15 -7.456197e-15 -2.819383e-14 
-2.657150e-14 1.937432e-03 5.904675e-03 1.378611e-02 2.558388e-02 3.492303e-02 1.873190e-02 -8.668336e-02 -4.325021e-01 -1.294571e+00 -3.031271e+00 -5.839683e+00 -9.402887e+00 -1.271606e+01 -1.333119e+01 -8.781281e+00 9.854528e-13 8.781281e+00 1.333119e+01 1.271606e+01 9.402887e+00 5.839683e+00 3.031271e+00 1.294571e+00 4.325021e-01 8.668336e-02 -1.873190e-02 -3.492303e-02 -2.558388e-02 -1.378611e-02 -5.904675e-03 -1.937432e-03 
-3.451205e-14 6.450338e-03 1.802553e-02 3.931799e-02 7.056923e-02 9.870452e-02 8.237403e-02 -9.080210e-02 -6.674209e-01 -2.118037e+00 -5.048836e+00 -9.820535e+00 -1.611352e+01 -2.226370e+01 -2.370227e+01 -1.587136e+01 1.011246e-12 1.587136e+01 2.370227e+01 2.226370e+01 1.611352e+01 9.820535e+00 5.048836e+00 2.118037e+00 6.674209e-01 9.080210e-02 -8.237403e-02 -9.870452e-02 -7.056923e-02 -3.931799e-02 -1.802553e-02 -6.450338e-03 
-3.951427e-14 1.575395e-02 4.083505e-02 8.403336e-02 1.450568e-01 2.060620e-01 2.178687e-01 6.093755e-02 -5.139290e-01 -2.034246e+00 -5.347217e+00 -1.134083e+01 -2.082236e+01 -3.217803e+01 -4.111253e+01 -3.213771e+01 6.216689e-13 3.213771e+01 4.111253e+01 3.217803e+01 2.082236e+01 1.134083e+01 5.347217e+00 2.034246e+00 5.139290e-01 -6.093755e-02 -2.178687e-01 -2.060620e-01 -1.450568e-01 -8.403336e-02 -4.083505e-02 -1.575395e-02 
-3.237058e-14 3.618199e-02 8.761215e-02 1.693618e-01 2.809220e-01 4.035033e-01 4.956770e-01 4.591595e-01 6.977824e-02 -1.430131e+00 -5.510934e+00 -1.485613e+01 -3.819790e+01 -5.099957e+01 -2.757537e+01 3.553896e+00 -1.808715e-12 -3.553896e+00 2.757537e+01 5.099957e+01 3.819790e+01 1.485613e+01 5.510934e+00 1.430131e+00 -6.977824e-02 -4.591595e-01 -4.956770e-01 -4.035033e-01 -2.809220e-01 -1.693618e-01 -8.761215e-02 -3.618199e-02 
-1.256525e-14 7.542698e-02 1.671297e-01 2.984533e-01 4.671527e-01 6.653237e-01 8.672967e-01 9.194925e-01 2.591081e-01 -2.352677e+00 -8.063525e+00 -1.732677e+01 -4.423522e-01 7.889975e+01 1.127647e+02 6.296333e+01 -1.792962e-12 -6.296333e+01 -1.127647e+02 -7.889975e+01 4.423522e-01 1.732677e+01 8.063525e+00 2.352677e+00 -2.591081e-01 -9.194925e-01 -8.672967e-01 -6.653237e-01 -4.671527e-01 -2.984533e-01 -1.671297e-01 -7.542698e-02 
1.395433e-14 1.475575e-01 2.964908e-01 4.825824e-01 7.189678e-01 1.037584e+00 1.381982e+00 1.106146e+00 -1.231992e+00 -1.496474e+00 3.100957e+00 3.444396e+01 9.958477e+01 1.056591e+02 2.374398e+01 -1.685576e+01 3.379233e-12 1.685576e+01 -2.374398e+01 -1.056591e+02 -9.958477e+01 -3.444396e+01 -3.100957e+00 1.496474e+00 1.231992e+00 -1.106146e+00 -1.381982e+00 -1.037584e+00 -7.189678e-01 -4.825824e-01 -2.964908e-01 -1.475575e-01 
3.675205e-15 2.991425e-01 5.286688e-01 7.585456e-01 1.055962e+00 1.493828e+00 1.642292e+00 -3.364822e-01 -2.756196e+00 2.184351e+01 5.517027e+01 7.405603e+01 5.718825e+01 -3.181266e+01 -8.479080e+01 -4.386924e+01 3.147550e-12 4.386924e+01 8.479080e+01 3.181266e+01 -5.718825e+01 -7.405603e+01 -5.517027e+01 -2.184351e+01 2.756196e+00 3.364822e-01 -1.642292e+00 -1.493828e+00 -1.055962e+00 -7.585456e-01 -5.286688e-01 -2.991425e-01 
1.275228e-14 6.173479e-01 9.667963e-01 1.202144e+00 1.559987e+00 1.895011e+00 5.542553e-01 -3.516334e+00 1.165136e+01 5.707664e+01 6.001717e+01 2.154575e+01 -9.643950e+00 -2.732603e+01 -9.314694e+00 9.325759e+00 4.098001e-13 -9.325759e+00 9.314694e+00 2.732603e+01 9.643950e+00 -2.154575e+01 -6.001717e+01 -5.707664e+01 -1.165136e+01 3.516334e+00 -5.542553e-01 -1.895011e+00 -1.559987e+00 -1.202144e+00 -9.667963e-01 -6.173479e-01 
-3.468299e-14 1.319923e+00 1.925802e+00 2.014016e+00 1.965450e+00 1.106460e+00 -2.908161e+00 -4.063652e+00 3.465933e+01 4.742119e+01 2.830288e+01 -3.464420e+00 -2.790842e+01 -3.529873e+00 2.176769e+01 1.999262e+01 -1.697129e-13 -1.999262e+01 -2.176769e+01 3.529873e+00 2.790842e+01 3.464420e+00 -2.830288e+01 -4.742119e+01 -3.465933e+01 4.063652e+00 2.908161e+00 -1.106460e+00 -1.965450e+00 -2.014016e+00 -1.925802e+00 -1.319923e+00 
-4.021377e-14 2.583039e+00 3.765397e+00 3.485727e+00 2.173180e+00 -5.267386e-01 -5.515251e+00 3.994085e+00 4.440585e+01 2.511433e+01 1.760105e+01 -2.355365e+00 -2.832779e+01 1.344768e+01 2.553754e+01 1.912811e+01 -3.408907e-13 -1.912811e+01 -2.553754e+01 -1.344768e+01 2.832779e+01 2.355365e+00 -1.760105e+01 -2.511433e+01 -4.440585e+01 -3.994085e+00 5.515251e+00 5.267386e-01 -2.173180e+00 -3.485727e+00 -3.765397e+00 -2.583039e+00 
-1.529279e-13 4.390573e+00 6.845881e+00 6.575777e+00 3.747091e+00 -7.723046e-01 -3.016551e+00 1.440930e+01 2.803727e+01 1.871047e+01 6.070981e+00 -2.356411e+01 -2.323620e+01 9.010912e+00 1.639286e+01 1.391672e+01 -4.228913e-13 -1.391672e+01 -1.639286e+01 -9.010912e+00 2.323620e+01 2.356411e+01 -6.070981e+00 -1.871047e+01 -2.803727e+01 -1.440930e+01 3.016551e+00 7.723046e-01 -3.747091e+00 -6.575777e+00 -6.845881e+00 -4.390573e+00 
-1.855224e-13 6.558628e+00 1.126086e+01 1.220988e+01 7.642393e+00 8.008688e-01 1.493575e+00 1.472652e+01 -3.170550e+00 1.833350e+01 1.428919e+01 -3.155662e+01 -1.916940e+01 -3.051032e+00 4.978504e+00 6.537939e+00 -2.883345e-13 -6.537939e+00 -4.978504e+00 3.051032e+00 1.916940e+01 3.155662e+01 -1.428919e+01 -1.833350e+01 3.170550e+00 -1.472652e+01 -1.493575e+00 -8.008688e-01 -7.642393e+00 -1.220988e+01 -1.126086e+01 -6.558628e+00 
-2.825375e-13 9.157922e+00 1.712038e+01 2.065993e+01 1.668912e+01 1.095177e+01 9.765586e+00 1.152205e+01 -9.894435e+00 2.180455e+01 1.489930e+01 -3.656731e+01 -1.927990e+01 -8.168624e+00 -9.989488e-01 1.699007e+00 -2.401523e-14 -1.699007e+00 9.989488e-01 8.168624e+00 1.927990e+01 3.656731e+01 -1.489930e+01 -2.180455e+01 9.894435e+00 -1.152205e+01 -9.765586e+00 -1.095177e+01 -1.668912e+01 -2.065993e+01 -1.712038e+01 -9.157922e+00 
-2.766494e-13 1.258999e+01 2.466103e+01 3.234565e+01 3.212454e+01 2.339484e+01 5.885132e+00 -4.993440e+00 -7.830509e+00 1.884810e+01 4.538136e+00 -3.472484e+01 -1.897777e+01 -1.002683e+01 -3.795831e+00 -7.109378e-01 -6.048164e-14 7.109378e-01 3.795831e+00 1.002683e+01 1.897777e+01 3.472484e+01 -4.538136e+00 -1.884810e+01 7.830509e+00 4.993440e+00 -5.885132e+00 -2.339484e+01 -3.212454e+01 -3.234565e+01 -2.466103e+01 -1.258999e+01 
1.317575e-13 1.338046e+01 2.553217e+01 3.138372e+01 2.796129e+01 1.471958e+01 -4.466286e+00 -4.723359e+00 6.707168e+00 1.251973e+01 -4.221841e+00 -2.132782e+01 -1.240810e+01 -7.381541e+00 -3.550127e+00 -1.181356e+00 -2.040147e-15 1.181356e+00 3.550127e+00 7.381541e+00 1.240810e+01 2.132782e+01 4.221841e+00 -1.251973e+01 -6.707168e+00 4.723359e+00 4.466286e+00 -1.471958e+01 -2.796129e+01 -3.138372e+01 -2.553217e+01 -1.338046e+01 
2.935994e-13 1.852248e-13 2.574551e-13 6.549297e-13 1.248096e-12 6.554495e-13 1.276641e-12 4.944192e-12 2.584885e-12 -2.915903e-12 -9.209182e-13 6.413173e-13 -2.747410e-13 -9.962246e-14 -4.793948e-14 4.286077e-15 -1.208832e-14 -3.469517e-14 -7.283524e-15 8.889781e-14 5.656840e-13 2.516325e-12 3.901932e-12 1.841088e-12 -1.739039e-12 -1.829966e-12 -5.595530e-15 9.326770e-13 4.676681e-13 2.181712e-13 3.380329e-13 4.181627e-13 
-1.784255e-13 -1.338046e+01 -2.553217e+01 -3.138372e+01 -2.796129e+01 -1.471958e+01 4.466286e+00 4.723359e+00 -6.707168e+00 -1.251973e+01 4.221841e+00 2.132782e+01 1.240810e+01 7.381541e+00 3.550127e+00 1.181356e+00 2.799005e-15 -1.181356e+00 -3.550127e+00 -7.381541e+00 -1.240810e+01 -2.132782e+01 -4.221841e+00 1.251973e+01 6.707168e+00 -4.723359e+00 -4.466286e+00 1.471958e+01 2.796129e+01 3.138372e+01 2.553217e+01 1.338046e+01 
-2.654476e-13 -1.258999e+01 -2.466103e+01 -3.234565e+01 -3.212454e+01 -2.339484e+01 -5.885132e+00 4.993440e+00 7.830509e+00 -1.884810e+01 -4.538136e+00 3.472484e+01 1.897777e+01 1.002683e+01 3.795831e+00 7.109378e-01 -5.498440e-14 -7.109378e-01 -3.795831e+00 -1.002683e+01 -1.897777e+01 -3.472484e+01 4.538136e+00 1.884810e+01 -7.830509e+00 -4.993440e+00 5.885132e+00 2.339484e+01 3.212454e+01 3.234565e+01 2.466103e+01 1.258999e+01 
-1.462063e-13 -9.157922e+00 -1.712038e+01 -2.065993e+01 -1.668912e+01 -1.095177e+01 -9.765586e+00 -1.152205e+01 9.894435e+00 -2.180455e+01 -1.489930e+01 3.656731e+01 1.927990e+01 8.168624e+00 9.989488e-01 -1.699007e+00 8.707002e-14 1.699007e+00 -9.989488e-01 -8.168624e+00 -1.927990e+01 -3.656731e+01 1.489930e+01 2.180455e+01 -9.894435e+00 1.152205e+01 9.765586e+00 1.095177e+01 1.668912e+01 2.065993e+01 1.712038e+01 9.157922e+00 
-4.764068e-14 -6.558628e+00 -1.126086e+01 -1.220988e+01 -7.642393e+00 -8.008688e-01 -1.493575e+00 -1.472652e+01 3.170550e+00 -1.833350e+01 -1.428919e+01 3.155662e+01 1.916940e+01 3.051032e+00 -4.978504e+00 -6.537939e+00 -3.568738e-14 6.537939e+00 4.978504e+00 -3.051032e+00 -1.916940e+01 -3.155662e+01 1.428919e+01 1.833350e+01 -3.170550e+00 1.472652e+01 1.493575e+00 8.008688e-01 7.642393e+00 1.220988e+01 1.126086e+01 6.558628e+00 
-3.921584e-14 -4.390573e+00 -6.845881e+00 -6.575777e+00 -3.747091e+00 7.723046e-01 3.016551e+00 -1.440930e+01 -2.803727e+01 -1.871047e+01 -6.070981e+00 2.356411e+01 2.323620e+01 -9.010912e+00 -1.639286e+01 -1.391672e+01 1.029217e-13 1.391672e+01 1.639286e+01 9.010912e+00 -2.323620e+01 -2.356411e+01 6.070981e+00 1.871047e+01 2.803727e+01 1.440930e+01 -3.016551e+00 -7.723046e-01 3.747091e+00 6.575777e+00 6.845881e+00 4.390573e+00 
6.858876e-15 -2.583039e+00 -3.765397e+00 -3.485727e+00 -2.173180e+00 5.267386e-01 5.515251e+00 -3.994085e+00 -4.440585e+01 -2.511433e+01 -1.760105e+01 2.355365e+00 2.832779e+01 -1.344768e+01 -2.553754e+01 -1.912811e+01 4.258891e-13 1.912811e+01 2.553754e+01 1.344768e+01 -2.832779e+01 -2.355365e+00 1.760105e+01 2.511433e+01 4.440585e+01 3.994085e+00 -5.515251e+00 -5.267386e-01 2.173180e+00 3.485727e+00 3.765397e+00 2.583039e+00 
1.588475e-14 -1.319923e+00 -1.925802e+00 -2.014016e+00 -1.965450e+00 -1.106460e+00 2.908161e+00 4.063652e+00 -3.465933e+01 -4.742119e+01 -2.830288e+01 3.464420e+00 2.790842e+01 3.529873e+00 -2.176769e+01 -1.999262e+01 1.934988e-12 1.999262e+01 2.176769e+01 -3.529873e+00 -2.790842e+01 -3.464420e+00 2.830288e+01 4.742119e+01 3.465933e+01 -4.063652e+00 -2.908161e+00 1.106460e+00 1.965450e+00 2.014016e+00 1.925802e+00 1.319923e+00 
3.548961e-14 -6.173479e-01 -9.667963e-01 -1.202144e+00 -1.559987e+00 -1.895011e+00 -5.542553e-01 3.516334e+00 -1.165136e+01 -5.707664e+01 -6.001717e+01 -2.154575e+01 9.643950e+00 2.732603e+01 9.314694e+00 -9.325759e+00 3.201374e-12 9.325759e+00 -9.314694e+00 -2.732603e+01 -9.643950e+00 2.154575e+01 6.001717e+01 5.707664e+01 1.165136e+01 -3.516334e+00 5.542553e-01 1.895011e+00 1.559987e+00 1.202144e+00 9.667963e-01 6.173479e-01 
3.735392e-14 -2.991425e-01 -5.286688e-01 -7.585456e-01 -1.055962e+00 -1.493828e+00 -1.642292e+00 3.364822e-01 2.756196e+00 -2.184351e+01 -5.517027e+01 -7.405603e+01 -5.718825e+01 3.181266e+01 8.479080e+01 4.386924e+01 3.920317e-12 -4.386924e+01 -8.479080e+01 -3.181266e+01 5.718825e+01 7.405603e+01 5.517027e+01 2.184351e+01 -2.756196e+00 -3.364822e-01 1.642292e+00 1.493828e+00 1.055962e+00 7.585456e-01 5.286688e-01 2.991425e-01 
5.159208e-14 -1.475575e-01 -2.964908e-01 -4.825824e-01 -7.189678e-01 -1.037584e+00 -1.381982e+00 -1.106146e+00 1.231992e+00 1.496474e+00 -3.100957e+00 -3.444396e+01 -9.958477e+01 -1.056591e+02 -2.374398e+01 1.685576e+01 -2.752334e-12 -1.685576e+01 2.374398e+01 1.056591e+02 9.958477e+01 3.444396e+01 3.100957e+00 -1.496474e+00 -1.231992e+00 1.106146e+00 1.381982e+00 1.037584e+00 7.189678e-01 4.825824e-01 2.964908e-01 1.475575e-01 
3.134253e-14 -7.542698e-02 -1.671297e-01 -2.984533e-01 -4.671527e-01 -6.653237e-01 -8.672967e-01 -9.194925e-01 -2.591081e-01 2.352677e+00 8.063525e+00 1.732677e+01 4.423522e-01 -7.889975e+01 -1.127647e+02 -6.296333e+01 -4.566357e-12 6.296333e+01 1.127647e+02 7.889975e+01 -4.423522e-01 -1.732677e+01 -8.063525e+00 -2.352677e+00 2.591081e-01 9.194925e-01 8.672967e-01 6.653237e-01 4.671527e-01 2.984533e-01 1.671297e-01 7.542698e-02 
2.157090e-15 -3.618199e-02 -8.761215e-02 -1.693618e-01 -2.809220e-01 -4.035033e-01 -4.956770e-01 -4.591595e-01 -6.977824e-02 1.430131e+00 5.510934e+00 1.485613e+01 3.819790e+01 5.099957e+01 2.757537e+01 -3.553896e+00 4.703307e-12 3.553896e+00 -2.757537e+01 -5.099957e+01 -3.819790e+01 -1.485613e+01 -5.510934e+00 -1.430131e+00 6.977824e-02 4.591595e-01 4.956770e-01 4.035033e-01 2.809220e-01 1.693618e-01 8.761215e-02 3.618199e-02 
-2.282135e-14 -1.575395e-02 -4.083505e-02 -8.403336e-02 -1.450568e-01 -2.060620e-01 -2.178687e-01 -6.093755e-02 5.139290e-01 2.034246e+00 5.347217e+00 1.134083e+01 2.082236e+01 3.217803e+01 4.111253e+01 3.213771e+01 7.691563e-12 -3.213771e+01 -4.111253e+01 -3.217803e+01 -2.082236e+01 -1.134083e+01 -5.347217e+00 -2.034246e+00 -5.139290e-01 6.093755e-02 2.178687e-01 2.060620e-01 1.450568e-01 8.403336e-02 4.083505e-02 1.575395e-02 
-3.473408e-14 -6.450338e-03 -1.802553e-02 -3.931799e-02 -7.056923e-02 -9.870452e-02 -8.237403e-02 9.080210e-02 6.674209e-01 2.118037e+00 5.048836e+00 9.820535e+00 1.611352e+01 2.226370e+01 2.370227e+01 1.587136e+01 2.832933e-12 -1.587136e+01 -2.370227e+01 -2.226370e+01 -1.611352e+01 -9.820535e+00 -5.048836e+00 -2.118037e+00 -6.674209e-01 -9.080210e-02 8.237403e-02 9.870452e-02 7.056923e-02 3.931799e-02 1.802553e-02 6.450338e-03 
-2.839490e-14 -1.937432e-03 -5.904675e-03 -1.378611e-02 -2.558388e-02 -3.492303e-02 -1.873190e-02 8.668336e-02 4.325021e-01 1.294571e+00 3.031271e+00 5.839683e+00 9.402887e+00 1.271606e+01 1.333119e+01 8.781281e+00 1.839631e-12 -8.781281e+00 -1.333119e+01 -1.271606e+01 -9.402887e+00 -5.839683e+00 -3.031271e+00 -1.294571e+00 -4.325021e-01 -8.668336e-02 1.873190e-02 3.492303e-02 2.558388e-02 1.378611e-02 5.904675e-03 1.937432e-03 
