# vtk DataFile Version 2.0
Comment goes here
ASCII

DATASET STRUCTURED_POINTS
FIELD FieldData 1
TIME 1 1 double
1.26000000
DIMENSIONS    32   32   1

ORIGIN    0.000   0.000   0.000
SPACING   0.03125 0.03125   1.000

POINT_DATA   1024
SCALARS Omega double
LOOKUP_TABLE default

-9.516218e-14 -4.321402e-14 1.874026e-14 1.159409e-13 5.368578e-13 1.613946e-12 3.944309e-12 7.434730e-12 1.187834e-11 1.592252e-11 1.876824e-11 1.933430e-11 1.747378e-11 1.291795e-11 4.861572e-12 -5.547905e-12 -1.251757e-11 -1.016383e-11 -1.259755e-12 7.500122e-12 1.375636e-11 1.733711e-11 1.848960e-11 1.700836e-11 1.387740e-11 9.636354e-12 5.914511e-12 2.919700e-12 1.269431e-12 3.201069e-13 2.572928e-14 -1.041473e-13 
-1.172211e-13 4.358543e-02 -1.422947e-03 -2.178795e-01 -6.514862e-01 -1.348820e+00 -2.317047e+00 -3.515478e+00 -4.878056e+00 -6.268081e+00 -7.561166e+00 -8.615520e+00 -9.317052e+00 -9.426263e+00 -8.362156e+00 -5.294545e+00 -1.145126e-11 5.294545e+00 8.362156e+00 9.426263e+00 9.317052e+00 8.615520e+00 7.561166e+00 6.268081e+00 4.878056e+00 3.515478e+00 2.317047e+00 1.348820e+00 6.514862e-01 2.178795e-01 1.422947e-03 -4.358543e-02 
-1.629548e-13 1.704702e-01 1.612790e-01 -1.829088e-01 -9.295954e-01 -2.155828e+00 -3.864369e+00 -5.976548e+00 -8.357733e+00 -1.077734e+01 -1.304104e+01 -1.495629e+01 -1.639828e+01 -1.691908e+01 -1.519246e+01 -9.549138e+00 -1.360670e-11 9.549138e+00 1.519246e+01 1.691908e+01 1.639828e+01 1.495629e+01 1.304104e+01 1.077734e+01 8.357733e+00 5.976548e+00 3.864369e+00 2.155828e+00 9.295954e-01 1.829088e-01 -1.612790e-01 -1.704702e-01 
-3.401500e-13 4.527411e-01 6.183472e-01 2.800451e-01 -6.192230e-01 -2.151315e+00 -4.308954e+00 -6.980019e+00 -9.973496e+00 -1.295023e+01 -1.564378e+01 -1.784844e+01 -1.964907e+01 -2.080132e+01 -1.923135e+01 -1.198006e+01 -1.781612e-11 1.198006e+01 1.923135e+01 2.080132e+01 1.964907e+01 1.784844e+01 1.564378e+01 1.295023e+01 9.973496e+00 6.980019e+00 4.308954e+00 2.151315e+00 6.192230e-01 -2.800451e-01 -6.183472e-01 -4.527411e-01 
-6.708409e-13 9.419648e-01 1.457840e+00 1.264825e+00 3.556507e-01 -1.292731e+00 -3.616410e+00 -6.495515e+00 -9.683324e+00 -1.277972e+01 -1.542702e+01 -1.739892e+01 -1.942924e+01 -2.219986e+01 -2.176618e+01 -1.317794e+01 -2.178660e-11 1.317794e+01 2.176618e+01 2.219986e+01 1.942924e+01 1.739892e+01 1.542702e+01 1.277972e+01 9.683324e+00 6.495515e+00 3.616410e+00 1.292731e+00 -3.556507e-01 -1.264825e+00 -1.457840e+00 -9.419648e-01 
-1.552450e-12 1.674545e+00 2.738503e+00 2.829945e+00 1.994366e+00 3.097626e-01 -2.062627e+00 -4.968774e+00 -8.173177e+00 -1.124861e+01 -1.386677e+01 -1.573140e+01 -1.741222e+01 -2.303697e+01 -2.503742e+01 -1.402886e+01 -2.346744e-11 1.402886e+01 2.503742e+01 2.303697e+01 1.741222e+01 1.573140e+01 1.386677e+01 1.124861e+01 8.173177e+00 4.968774e+00 2.062627e+00 -3.097626e-01 -1.994366e+00 -2.829945e+00 -2.738503e+00 -1.674545e+00 
-3.050082e-12 2.631486e+00 4.429416e+00 4.932260e+00 4.237608e+00 2.525966e+00 1.344283e-01 -2.745559e+00 -5.862714e+00 -8.885687e+00 -1.166342e+01 -1.488412e+01 -1.451036e+01 -2.988968e+01 -3.488683e+01 -1.561930e+01 -1.459096e-11 1.561930e+01 3.488683e+01 2.988968e+01 1.451036e+01 1.488412e+01 1.166342e+01 8.885687e+00 5.862714e+00 2.745559e+00 -1.344283e-01 -2.525966e+00 -4.237608e+00 -4.932260e+00 -4.429416e+00 -2.631486e+00 
-5.387495e-12 3.781227e+00 6.467362e+00 7.489479e+00 6.978161e+00 5.228780e+00 2.747329e+00 -1.667047e-01 -3.242907e+00 -6.366414e+00 -9.791727e+00 -1.820637e+01 -2.521292e+01 -2.764866e+01 -5.889987e+00 1.526034e+01 6.213811e-11 -1.526034e+01 5.889987e+00 2.764866e+01 2.521292e+01 1.820637e+01 9.791727e+00 6.366414e+00 3.242907e+00 1.667047e-01 -2.747329e+00 -5.228780e+00 -6.978161e+00 -7.489479e+00 -6.467362e+00 -3.781227e+00 
-8.221873e-12 5.039674e+00 8.689820e+00 1.026795e+01 9.958728e+00 8.165305e+00 5.595205e+00 2.560643e+00 -5.519711e-01 -4.528603e+00 -1.116654e+01 -1.102424e+01 7.348395e+00 6.817227e+01 7.532468e+01 3.582319e+01 6.401464e-11 -3.582319e+01 -7.532468e+01 -6.817227e+01 -7.348395e+00 1.102424e+01 1.116654e+01 4.528603e+00 5.519711e-01 -2.560643e+00 -5.595205e+00 -8.165305e+00 -9.958728e+00 -1.026795e+01 -8.689820e+00 -5.039674e+00 
-1.097036e-11 6.346663e+00 1.096521e+01 1.303490e+01 1.284575e+01 1.098023e+01 8.301646e+00 5.155893e+00 2.060541e+00 -7.333353e-01 6.193807e+00 2.755196e+01 5.130568e+01 4.776297e+01 -7.453004e+00 -1.742338e+01 -2.312043e-12 1.742338e+01 7.453004e+00 -4.776297e+01 -5.130568e+01 -2.755196e+01 -6.193807e+00 7.333353e-01 -2.060541e+00 -5.155893e+00 -8.301646e+00 -1.098023e+01 -1.284575e+01 -1.303490e+01 -1.096521e+01 -6.346663e+00 
-1.293312e-11 7.624674e+00 1.314557e+01 1.564054e+01 1.544457e+01 1.350185e+01 1.100676e+01 7.970775e+00 1.218031e+01 3.378608e+01 2.536721e+01 4.620708e+00 1.509452e+01 -2.406754e+01 -5.035064e+01 -1.330367e+01 -2.454053e-11 1.330367e+01 5.035064e+01 2.406754e+01 -1.509452e+01 -4.620708e+00 -2.536721e+01 -3.378608e+01 -1.218031e+01 -7.970775e+00 -1.100676e+01 -1.350185e+01 -1.544457e+01 -1.564054e+01 -1.314557e+01 -7.624674e+00 
-1.332609e-11 8.727994e+00 1.502662e+01 1.785455e+01 1.754237e+01 1.516804e+01 1.286073e+01 1.215972e+01 2.432825e+01 1.730355e+01 -2.148138e+01 -9.596212e+00 1.265143e+01 2.876814e+00 8.563869e+00 1.942739e+01 -1.066016e-11 -1.942739e+01 -8.563869e+00 -2.876814e+00 -1.265143e+01 9.596212e+00 2.148138e+01 -1.730355e+01 -2.432825e+01 -1.215972e+01 -1.286073e+01 -1.516804e+01 -1.754237e+01 -1.785455e+01 -1.502662e+01 -8.727994e+00 
-1.175110e-11 9.460581e+00 1.638850e+01 1.987061e+01 1.989759e+01 1.771231e+01 1.365447e+01 4.634467e+00 1.623293e+01 -2.765093e+01 -1.886706e+01 2.538461e+01 -6.769215e+00 -6.292220e+00 9.520719e+00 1.130000e+01 -1.073381e-12 -1.130000e+01 -9.520719e+00 6.292220e+00 6.769215e+00 -2.538461e+01 1.886706e+01 2.765093e+01 -1.623293e+01 -4.634467e+00 -1.365447e+01 -1.771231e+01 -1.989759e+01 -1.987061e+01 -1.638850e+01 -9.460581e+00 
-7.874933e-12 9.483646e+00 1.677133e+01 2.131080e+01 2.280172e+01 2.247541e+01 2.038757e+01 2.145894e+01 1.641639e+01 -4.197388e+01 6.606964e+00 2.495236e+01 -1.600361e+01 -1.360526e+00 3.184194e+00 3.923028e+00 -1.647776e-12 -3.923028e+00 -3.184194e+00 1.360526e+00 1.600361e+01 -2.495236e+01 -6.606964e+00 4.197388e+01 -1.641639e+01 -2.145894e+01 -2.038757e+01 -2.247541e+01 -2.280172e+01 -2.131080e+01 -1.677133e+01 -9.483646e+00 
-2.021120e-12 8.197529e+00 1.501621e+01 2.039306e+01 2.424375e+01 2.728621e+01 2.977127e+01 2.967030e+01 -1.465684e+01 -3.594700e+01 1.890406e+01 9.709380e+00 -1.205713e+01 -2.811282e+00 1.532393e-01 1.079483e+00 -2.135521e-13 -1.079483e+00 -1.532393e-01 2.811282e+00 1.205713e+01 -9.709380e+00 -1.890406e+01 3.594700e+01 1.465684e+01 -2.967030e+01 -2.977127e+01 -2.728621e+01 -2.424375e+01 -2.039306e+01 -1.501621e+01 -8.197529e+00 
3.983604e-12 5.002594e+00 9.495450e+00 1.364081e+01 1.735076e+01 2.056473e+01 2.212589e+01 1.313773e+01 -2.919227e+01 -8.442241e+00 1.879572e+01 -7.652394e+00 -1.319674e+01 -4.153485e+00 -9.504791e-01 1.264747e-02 -1.493957e-13 -1.264747e-02 9.504791e-01 4.153485e+00 1.319674e+01 7.652394e+00 -1.879572e+01 8.442241e+00 2.919227e+01 -1.313773e+01 -2.212589e+01 -2.056473e+01 -1.735076e+01 -1.364081e+01 -9.495450e+00 -5.002594e+00 
7.748491e-12 6.333782e-12 6.331925e-12 6.794302e-12 7.107847e-12 7.956429e-12 1.057606e-11 7.267372e-12 -3.259590e-11 -7.183990e-12 5.220272e-11 2.675994e-11 -2.082670e-12 -4.467942e-12 -2.637864e-12 -8.475884e-13 -4.381039e-13 4.307918e-13 2.412590e-12 1.010026e-11 3.225988e-11 5.570460e-11 -4.570639e-13 -9.352693e-11 -1.254136e-10 4.840302e-11 7.875118e-11 6.211643e-11 4.458506e-11 3.123263e-11 2.030481e-11 1.226965e-11 
5.697461e-12 -5.002594e+00 -9.495450e+00 -1.364081e+01 -1.735076e+01 -2.056473e+01 -2.212589e+01 -1.313773e+01 2.919227e+01 8.442241e+00 -1.879572e+01 7.652394e+00 1.319674e+01 4.153485e+00 9.504791e-01 -1.264747e-02 -1.840797e-12 1.264747e-02 -9.504791e-01 -4.153485e+00 -1.319674e+01 -7.652394e+00 1.879572e+01 -8.442241e+00 -2.919227e+01 1.313773e+01 2.212589e+01 2.056473e+01 1.735076e+01 1.364081e+01 9.495450e+00 5.002594e+00 
-1.129138e-12 -8.197529e+00 -1.501621e+01 -2.039306e+01 -2.424375e+01 -2.728621e+01 -2.977127e+01 -2.967030e+01 1.465684e+01 3.594700e+01 -1.890406e+01 -9.709380e+00 1.205713e+01 2.811282e+00 -1.532393e-01 -1.079483e+00 -5.234347e-12 1.079483e+00 1.532393e-01 -2.811282e+00 -1.205713e+01 9.709380e+00 1.890406e+01 -3.594700e+01 -1.465684e+01 2.967030e+01 2.977127e+01 2.728621e+01 2.424375e+01 2.039306e+01 1.501621e+01 8.197529e+00 
-7.565423e-12 -9.483646e+00 -1.677133e+01 -2.131080e+01 -2.280172e+01 -2.247541e+01 -2.038757e+01 -2.145894e+01 -1.641639e+01 4.197388e+01 -6.606964e+00 -2.495236e+01 1.600361e+01 1.360526e+00 -3.184194e+00 -3.923028e+00 -1.838257e-11 3.923028e+00 3.184194e+00 -1.360526e+00 -1.600361e+01 2.495236e+01 6.606964e+00 -4.197388e+01 1.641639e+01 2.145894e+01 2.038757e+01 2.247541e+01 2.280172e+01 2.131080e+01 1.677133e+01 9.483646e+00 
-1.253777e-11 -9.460581e+00 -1.638850e+01 -1.987061e+01 -1.989759e+01 -1.771231e+01 -1.365447e+01 -4.634467e+00 -1.623293e+01 2.765093e+01 1.886706e+01 -2.538461e+01 6.769215e+00 6.292220e+00 -9.520719e+00 -1.130000e+01 -4.025260e-11 1.130000e+01 9.520719e+00 -6.292220e+00 -6.769215e+00 2.538461e+01 -1.886706e+01 -2.765093e+01 1.623293e+01 4.634467e+00 1.365447e+01 1.771231e+01 1.989759e+01 1.987061e+01 1.638850e+01 9.460581e+00 
-1.517584e-11 -8.727994e+00 -1.502662e+01 -1.785455e+01 -1.754237e+01 -1.516804e+01 -1.286073e+01 -1.215972e+01 -2.432825e+01 -1.730355e+01 2.148138e+01 9.596212e+00 -1.265143e+01 -2.876814e+00 -8.563869e+00 -1.942739e+01 -9.268193e-11 1.942739e+01 8.563869e+00 2.876814e+00 1.265143e+01 -9.596212e+00 -2.148138e+01 1.730355e+01 2.432825e+01 1.215972e+01 1.286073e+01 1.516804e+01 1.754237e+01 1.785455e+01 1.502662e+01 8.727994e+00 
-1.568418e-11 -7.624674e+00 -1.314557e+01 -1.564054e+01 -1.544457e+01 -1.350185e+01 -1.100676e+01 -7.970775e+00 -1.218031e+01 -3.378608e+01 -2.536721e+01 -4.620708e+00 -1.509452e+01 2.406754e+01 5.035064e+01 1.330367e+01 -1.076306e-11 -1.330367e+01 -5.035064e+01 -2.406754e+01 1.509452e+01 4.620708e+00 2.536721e+01 3.378608e+01 1.218031e+01 7.970775e+00 1.100676e+01 1.350185e+01 1.544457e+01 1.564054e+01 1.314557e+01 7.624674e+00 
-1.424750e-11 -6.346663e+00 -1.096521e+01 -1.303490e+01 -1.284575e+01 -1.098023e+01 -8.301646e+00 -5.155893e+00 -2.060541e+00 7.333353e-01 -6.193807e+00 -2.755196e+01 -5.130568e+01 -4.776297e+01 7.453004e+00 1.742338e+01 1.053643e-10 -1.742338e+01 -7.453004e+00 4.776297e+01 5.130568e+01 2.755196e+01 6.193807e+00 -7.333353e-01 2.060541e+00 5.155893e+00 8.301646e+00 1.098023e+01 1.284575e+01 1.303490e+01 1.096521e+01 6.346663e+00 
-1.166766e-11 -5.039674e+00 -8.689820e+00 -1.026795e+01 -9.958728e+00 -8.165305e+00 -5.595205e+00 -2.560643e+00 5.519711e-01 4.528603e+00 1.116654e+01 1.102424e+01 -7.348395e+00 -6.817227e+01 -7.532468e+01 -3.582319e+01 1.350244e-10 3.582319e+01 7.532468e+01 6.817227e+01 7.348395e+00 -1.102424e+01 -1.116654e+01 -4.528603e+00 -5.519711e-01 2.560643e+00 5.595205e+00 8.165305e+00 9.958728e+00 1.026795e+01 8.689820e+00 5.039674e+00 
-8.516609e-12 -3.781227e+00 -6.467362e+00 -7.489479e+00 -6.978161e+00 -5.228780e+00 -2.747329e+00 1.667047e-01 3.242907e+00 6.366414e+00 9.791727e+00 1.820637e+01 2.521292e+01 2.764866e+01 5.889987e+00 -1.526034e+01 1.332803e-10 1.526034e+01 -5.889987e+00 -2.764866e+01 -2.521292e+01 -1.820637e+01 -9.791727e+00 -6.366414e+00 -3.242907e+00 -1.667047e-01 2.747329e+00 5.228780e+00 6.978161e+00 7.489479e+00 6.467362e+00 3.781227e+00 
-5.619801e-12 -2.631486e+00 -4.429416e+00 -4.932260e+00 -4.237608e+00 -2.525966e+00 -1.344283e-01 2.745559e+00 5.862714e+00 8.885687e+00 1.166342e+01 1.488412e+01 1.451036e+01 2.988968e+01 3.488683e+01 1.561930e+01 -7.545091e-12 -1.561930e+01 -3.488683e+01 -2.988968e+01 -1.451036e+01 -1.488412e+01 -1.166342e+01 -8.885687e+00 -5.862714e+00 -2.745559e+00 1.344283e-01 2.525966e+00 4.237608e+00 4.932260e+00 4.429416e+00 2.631486e+00 
-3.251304e-12 -1.674545e+00 -2.738503e+00 -2.829945e+00 -1.994366e+00 -3.097626e-01 2.062627e+00 4.968774e+00 8.173177e+00 1.124861e+01 1.386677e+01 1.573140e+01 1.741222e+01 2.303697e+01 2.503742e+01 1.402886e+01 -5.893444e-11 -1.402886e+01 -2.503742e+01 -2.303697e+01 -1.741222e+01 -1.573140e+01 -1.386677e+01 -1.124861e+01 -8.173177e+00 -4.968774e+00 -2.062627e+00 3.097626e-01 1.994366e+00 2.829945e+00 2.738503e+00 1.674545e+00 
-1.736701e-12 -9.419648e-01 -1.457840e+00 -1.264825e+00 -3.556507e-01 1.292731e+00 3.616410e+00 6.495515e+00 9.683324e+00 1.277972e+01 1.542702e+01 1.739892e+01 1.942924e+01 2.219986e+01 2.176618e+01 1.317794e+01 -6.982645e-11 -1.317794e+01 -2.176618e+01 -2.219986e+01 -1.942924e+01 -1.739892e+01 -1.542702e+01 -1.277972e+01 -9.683324e+00 -6.495515e+00 -3.616410e+00 -1.292731e+00 3.556507e-01 1.264825e+00 1.457840e+00 9.419648e-01 
-7.591238e-13 -4.527411e-01 -6.183472e-01 -2.800451e-01 6.192230e-01 2.151315e+00 4.308954e+00 6.980019e+00 9.973496e+00 1.295023e+01 1.564378e+01 1.784844e+01 1.964907e+01 2.080132e+01 1.923135e+01 1.198006e+01 -5.817082e-11 -1.198006e+01 -1.923135e+01 -2.080132e+01 -1.964907e+01 -1.784844e+01 -1.564378e+01 -1.295023e+01 -9.973496e+00 -6.980019e+00 -4.308954e+00 -2.151315e+00 -6.192230e-01 2.800451e-01 6.183472e-01 4.527411e-01 
-3.665769e-13 -1.704702e-01 -1.612790e-01 1.829088e-01 9.295954e-01 2.155828e+00 3.864369e+00 5.976548e+00 8.357733e+00 1.077734e+01 1.304104e+01 1.495629e+01 1.639828e+01 1.691908e+01 1.519246e+01 9.549138e+00 -3.740543e-11 -9.549138e+00 -1.519246e+01 -1.691908e+01 -1.639828e+01 -1.495629e+01 -1.304104e+01 -1.077734e+01 -8.357733e+00 -5.976548e+00 -3.864369e+00 -2.155828e+00 -9.295954e-01 -1.829088e-01 1.612790e-01 1.704702e-01 
-1.335484e-13 -4.358543e-02 1.422947e-03 2.178795e-01 6.514862e-01 1.348820e+00 2.317047e+00 3.515478e+00 4.878056e+00 6.268081e+00 7.561166e+00 8.615520e+00 9.317052e+00 9.426263e+00 8.362156e+00 5.294545e+00 -2.052531e-11 -5.294545e+00 -8.362156e+00 -9.426263e+00 -9.317052e+00 -8.615520e+00 -7.561166e+00 -6.268081e+00 -4.878056e+00 -3.515478e+00 -2.317047e+00 -1.348820e+00 -6.514862e-01 -2.178795e-01 -1.422947e-03 4.358543e-02 
