# vtk DataFile Version 2.0
Comment goes here
ASCII

DATASET STRUCTURED_POINTS
FIELD FieldData 1
TIME 1 1 double
0.24000000
DIMENSIONS    32   32   1

ORIGIN    0.000   0.000   0.000
SPACING   0.03125 0.03125   1.000

POINT_DATA   1024
SCALARS Omega double
LOOKUP_TABLE default

-9.614782e-14 -9.144489e-14 -7.584238e-14 -6.721649e-14 -4.260396e-14 -4.974839e-14 -2.144949e-14 2.227858e-15 -2.549561e-14 3.347468e-15 -3.335365e-14 -3.866995e-14 3.527503e-15 -1.784028e-13 -4.360718e-13 1.105833e-13 8.269058e-13 1.950058e-13 -1.949559e-13 -9.183027e-14 5.525464e-15 1.071740e-14 3.328746e-14 3.713656e-14 5.032320e-14 8.619559e-15 7.948284e-15 -2.916137e-14 -3.645604e-14 -5.379327e-14 -6.116835e-14 -8.378409e-14 
-9.220410e-14 -1.114052e-03 -1.413886e-03 -1.559151e-03 2.665876e-03 8.565314e-03 2.183414e-02 4.261958e-02 5.135521e-02 4.651046e-02 -2.235502e-02 -3.515910e-01 -1.030991e+00 -2.874745e+00 -7.017751e+00 -1.131599e+01 6.583757e-13 1.131599e+01 7.017751e+00 2.874745e+00 1.030991e+00 3.515910e-01 2.235502e-02 -4.651046e-02 -5.135521e-02 -4.261958e-02 -2.183414e-02 -8.565314e-03 -2.665876e-03 1.559151e-03 1.413886e-03 1.114052e-03 
-8.229633e-14 -1.425108e-03 -1.023828e-03 2.315986e-03 1.747207e-02 4.045564e-02 8.709854e-02 1.595393e-01 1.678700e-01 1.838137e-01 8.686894e-02 -5.966977e-01 -2.450672e+00 -7.296187e+00 -1.713956e+01 -2.725672e+01 7.475003e-13 2.725672e+01 1.713956e+01 7.296187e+00 2.450672e+00 5.966977e-01 -8.686894e-02 -1.838137e-01 -1.678700e-01 -1.595393e-01 -8.709854e-02 -4.045564e-02 -1.747207e-02 -2.315986e-03 1.023828e-03 1.425108e-03 
-8.389396e-14 8.782954e-04 6.895596e-03 2.390309e-02 7.203408e-02 1.421621e-01 2.703911e-01 4.615744e-01 3.862250e-01 4.046231e-01 3.245923e-01 -1.981941e-01 -4.072449e+00 -1.273679e+01 -3.000953e+01 -4.190438e+01 5.951797e-13 4.190438e+01 3.000953e+01 1.273679e+01 4.072449e+00 1.981941e-01 -3.245923e-01 -4.046231e-01 -3.862250e-01 -4.615744e-01 -2.703911e-01 -1.421621e-01 -7.203408e-02 -2.390309e-02 -6.895596e-03 -8.782954e-04 
-7.804400e-14 1.264920e-02 3.664159e-02 9.347272e-02 2.126082e-01 3.896522e-01 6.307158e-01 9.656407e-01 5.813272e-01 5.713415e-01 5.055595e-01 9.807227e-01 3.541997e-01 -7.018978e+00 -3.582433e+01 -4.394972e+01 -4.599943e-13 4.394972e+01 3.582433e+01 7.018978e+00 -3.541997e-01 -9.807227e-01 -5.055595e-01 -5.713415e-01 -5.813272e-01 -9.656407e-01 -6.307158e-01 -3.896522e-01 -2.126082e-01 -9.347272e-02 -3.664159e-02 -1.264920e-02 
-7.647578e-14 4.914870e-02 1.204981e-01 2.563288e-01 4.956217e-01 8.319320e-01 1.111695e+00 1.242077e+00 8.274259e-01 1.208510e+00 2.747062e+00 6.816264e+00 1.040921e+01 -5.447194e+00 -3.719357e+01 -2.853223e+01 1.325357e-14 2.853223e+01 3.719357e+01 5.447194e+00 -1.040921e+01 -6.816264e+00 -2.747062e+00 -1.208510e+00 -8.274259e-01 -1.242077e+00 -1.111695e+00 -8.319320e-01 -4.956217e-01 -2.563288e-01 -1.204981e-01 -4.914870e-02 
-7.799793e-14 1.558007e-01 3.272424e-01 5.760328e-01 9.154353e-01 1.337421e+00 1.309187e+00 7.526271e-01 2.432333e+00 6.022828e+00 1.126935e+01 1.316716e+01 1.093412e+01 -3.247449e+00 -7.333657e+00 8.050555e+00 -1.486225e-13 -8.050555e+00 7.333657e+00 3.247449e+00 -1.093412e+01 -1.316716e+01 -1.126935e+01 -6.022828e+00 -2.432333e+00 -7.526271e-01 -1.309187e+00 -1.337421e+00 -9.154353e-01 -5.760328e-01 -3.272424e-01 -1.558007e-01 
-3.065710e-14 4.339949e-01 7.882073e-01 1.096615e+00 1.354260e+00 1.546373e+00 1.281240e+00 2.408936e+00 9.797237e+00 1.574543e+01 1.268635e+01 3.364392e+00 4.143776e+00 9.799407e+00 2.152163e+01 2.345180e+01 3.941335e-13 -2.345180e+01 -2.152163e+01 -9.799407e+00 -4.143776e+00 -3.364392e+00 -1.268635e+01 -1.574543e+01 -9.797237e+00 -2.408936e+00 -1.281240e+00 -1.546373e+00 -1.354260e+00 -1.096615e+00 -7.882073e-01 -4.339949e-01 
-2.195654e-14 1.108923e+00 1.783148e+00 1.959412e+00 1.840278e+00 2.046834e+00 4.289028e+00 1.210200e+01 1.187156e+01 -8.628843e+00 -1.032518e+01 4.643763e+00 7.103675e+00 1.735216e+00 3.268435e+00 5.480607e+00 4.893675e-12 -5.480607e+00 -3.268435e+00 -1.735216e+00 -7.103675e+00 -4.643763e+00 1.032518e+01 8.628843e+00 -1.187156e+01 -1.210200e+01 -4.289028e+00 -2.046834e+00 -1.840278e+00 -1.959412e+00 -1.783148e+00 -1.108923e+00 
-4.908505e-14 2.520806e+00 3.760933e+00 3.579057e+00 3.309420e+00 6.733154e+00 1.331142e+01 7.362351e+00 -6.042501e+00 -6.467674e+00 6.357222e+00 6.240063e+00 -1.305237e+01 -2.666132e+01 -2.332637e+01 -1.173954e+01 4.631131e-12 1.173954e+01 2.332637e+01 2.666132e+01 1.305237e+01 -6.240063e+00 -6.357222e+00 6.467674e+00 6.042501e+00 -7.362351e+00 -1.331142e+01 -6.733154e+00 -3.309420e+00 -3.579057e+00 -3.760933e+00 -2.520806e+00 
-7.134159e-14 4.951880e+00 7.160108e+00 6.841627e+00 9.034994e+00 1.883785e+01 1.288831e+01 -9.521010e+00 -1.832457e+00 2.153898e+01 1.602867e+01 3.438330e+00 3.924487e+00 4.910598e+00 3.169394e+00 1.400927e+00 -8.546640e-13 -1.400927e+00 -3.169394e+00 -4.910598e+00 -3.924487e+00 -3.438330e+00 -1.602867e+01 -2.153898e+01 1.832457e+00 9.521010e+00 -1.288831e+01 -1.883785e+01 -9.034994e+00 -6.841627e+00 -7.160108e+00 -4.951880e+00 
-1.527505e-13 8.253902e+00 1.195366e+01 1.327219e+01 2.360821e+01 2.214622e+01 -1.932200e+01 -1.549242e+01 3.121295e+01 4.351567e+01 2.074206e+01 1.994400e+01 4.282601e+01 4.425056e+01 3.239938e+01 1.651919e+01 -1.439458e-12 -1.651919e+01 -3.239938e+01 -4.425056e+01 -4.282601e+01 -1.994400e+01 -2.074206e+01 -4.351567e+01 -3.121295e+01 1.549242e+01 1.932200e+01 -2.214622e+01 -2.360821e+01 -1.327219e+01 -1.195366e+01 -8.253902e+00 
-2.231412e-13 1.156721e+01 1.726080e+01 2.404602e+01 4.015985e+01 -8.893623e+00 -4.251785e+01 3.139566e+01 5.879278e+01 3.199822e+01 1.510490e+01 1.617380e+01 2.642611e+01 2.507420e+01 2.175226e+01 1.411444e+01 -2.908733e-13 -1.411444e+01 -2.175226e+01 -2.507420e+01 -2.642611e+01 -1.617380e+01 -1.510490e+01 -3.199822e+01 -5.879278e+01 -3.139566e+01 4.251785e+01 8.893623e+00 -4.015985e+01 -2.404602e+01 -1.726080e+01 -1.156721e+01 
-2.291887e-13 1.356413e+01 2.133268e+01 3.589925e+01 3.130311e+01 -4.243107e+01 6.221329e+00 8.489012e+01 2.763383e+01 -2.353460e+01 -2.235298e+01 -4.407134e+00 6.528230e+00 9.925611e+00 1.108661e+01 8.357865e+00 -2.780968e-13 -8.357865e+00 -1.108661e+01 -9.925611e+00 -6.528230e+00 4.407134e+00 2.235298e+01 2.353460e+01 -2.763383e+01 -8.489012e+01 -6.221329e+00 4.243107e+01 -3.130311e+01 -3.589925e+01 -2.133268e+01 -1.356413e+01 
-1.138731e-13 1.254161e+01 2.046528e+01 3.904132e+01 1.038030e+00 -3.206298e+01 5.317622e+01 5.670731e+01 -2.442645e+01 -4.477733e+01 -3.067821e+01 -1.515336e+01 -5.315074e+00 -2.689105e-01 2.752700e+00 3.143649e+00 -2.174503e-13 -3.143649e+00 -2.752700e+00 2.689105e-01 5.315074e+00 1.515336e+01 3.067821e+01 4.477733e+01 2.442645e+01 -5.670731e+01 -5.317622e+01 3.206298e+01 -1.038030e+00 -3.904132e+01 -2.046528e+01 -1.254161e+01 
1.377162e-13 7.517767e+00 1.275821e+01 2.558396e+01 -1.478801e+01 -1.583672e+01 3.242363e+01 1.106422e+01 -2.672150e+01 -3.103972e+01 -2.168526e+01 -1.329085e+01 -6.850605e+00 -3.132753e+00 -7.725903e-01 3.300830e-01 -1.308510e-13 -3.300830e-01 7.725903e-01 3.132753e+00 6.850605e+00 1.329085e+01 2.168526e+01 3.103972e+01 2.672150e+01 -1.106422e+01 -3.242363e+01 1.583672e+01 1.478801e+01 -2.558396e+01 -1.275821e+01 -7.517767e+00 
3.023432e-13 2.358711e-13 3.172213e-13 7.223258e-14 -1.167345e-12 5.618500e-13 3.596676e-12 1.245369e-12 -5.165677e-13 1.542465e-13 2.341818e-13 -1.091063e-13 -1.750854e-13 -1.980078e-13 -1.122324e-13 -6.276079e-14 -8.040975e-14 -1.110023e-13 -9.513942e-14 -2.083450e-13 -2.191656e-13 -3.253510e-13 -3.346891e-13 -3.675570e-13 -1.112846e-12 1.503242e-13 3.628071e-13 1.015927e-12 1.870771e-12 9.526648e-13 6.394797e-13 4.051375e-13 
1.763358e-13 -7.517767e+00 -1.275821e+01 -2.558396e+01 1.478801e+01 1.583672e+01 -3.242363e+01 -1.106422e+01 2.672150e+01 3.103972e+01 2.168526e+01 1.329085e+01 6.850605e+00 3.132753e+00 7.725903e-01 -3.300830e-01 -5.445325e-14 3.300830e-01 -7.725903e-01 -3.132753e+00 -6.850605e+00 -1.329085e+01 -2.168526e+01 -3.103972e+01 -2.672150e+01 1.106422e+01 3.242363e+01 -1.583672e+01 -1.478801e+01 2.558396e+01 1.275821e+01 7.517767e+00 
3.019075e-14 -1.254161e+01 -2.046528e+01 -3.904132e+01 -1.038030e+00 3.206298e+01 -5.317622e+01 -5.670731e+01 2.442645e+01 4.477733e+01 3.067821e+01 1.515336e+01 5.315074e+00 2.689105e-01 -2.752700e+00 -3.143649e+00 7.944960e-15 3.143649e+00 2.752700e+00 -2.689105e-01 -5.315074e+00 -1.515336e+01 -3.067821e+01 -4.477733e+01 -2.442645e+01 5.670731e+01 5.317622e+01 -3.206298e+01 1.038030e+00 3.904132e+01 2.046528e+01 1.254161e+01 
-3.107359e-14 -1.356413e+01 -2.133268e+01 -3.589925e+01 -3.130311e+01 4.243107e+01 -6.221329e+00 -8.489012e+01 -2.763383e+01 2.353460e+01 2.235298e+01 4.407134e+00 -6.528230e+00 -9.925611e+00 -1.108661e+01 -8.357865e+00 9.352789e-14 8.357865e+00 1.108661e+01 9.925611e+00 6.528230e+00 -4.407134e+00 -2.235298e+01 -2.353460e+01 2.763383e+01 8.489012e+01 6.221329e+00 -4.243107e+01 3.130311e+01 3.589925e+01 2.133268e+01 1.356413e+01 
-3.401749e-14 -1.156721e+01 -1.726080e+01 -2.404602e+01 -4.015985e+01 8.893623e+00 4.251785e+01 -3.139566e+01 -5.879278e+01 -3.199822e+01 -1.510490e+01 -1.617380e+01 -2.642611e+01 -2.507420e+01 -2.175226e+01 -1.411444e+01 1.798074e-13 1.411444e+01 2.175226e+01 2.507420e+01 2.642611e+01 1.617380e+01 1.510490e+01 3.199822e+01 5.879278e+01 3.139566e+01 -4.251785e+01 -8.893623e+00 4.015985e+01 2.404602e+01 1.726080e+01 1.156721e+01 
-7.342745e-15 -8.253902e+00 -1.195366e+01 -1.327219e+01 -2.360821e+01 -2.214622e+01 1.932200e+01 1.549242e+01 -3.121295e+01 -4.351567e+01 -2.074206e+01 -1.994400e+01 -4.282601e+01 -4.425056e+01 -3.239938e+01 -1.651919e+01 2.408303e-13 1.651919e+01 3.239938e+01 4.425056e+01 4.282601e+01 1.994400e+01 2.074206e+01 4.351567e+01 3.121295e+01 -1.549242e+01 -1.932200e+01 2.214622e+01 2.360821e+01 1.327219e+01 1.195366e+01 8.253902e+00 
4.412226e-14 -4.951880e+00 -7.160108e+00 -6.841627e+00 -9.034994e+00 -1.883785e+01 -1.288831e+01 9.521010e+00 1.832457e+00 -2.153898e+01 -1.602867e+01 -3.438330e+00 -3.924487e+00 -4.910598e+00 -3.169394e+00 -1.400927e+00 -1.498910e-12 1.400927e+00 3.169394e+00 4.910598e+00 3.924487e+00 3.438330e+00 1.602867e+01 2.153898e+01 -1.832457e+00 -9.521010e+00 1.288831e+01 1.883785e+01 9.034994e+00 6.841627e+00 7.160108e+00 4.951880e+00 
9.198727e-14 -2.520806e+00 -3.760933e+00 -3.579057e+00 -3.309420e+00 -6.733154e+00 -1.331142e+01 -7.362351e+00 6.042501e+00 6.467674e+00 -6.357222e+00 -6.240063e+00 1.305237e+01 2.666132e+01 2.332637e+01 1.173954e+01 -3.843458e-12 -1.173954e+01 -2.332637e+01 -2.666132e+01 -1.305237e+01 6.240063e+00 6.357222e+00 -6.467674e+00 -6.042501e+00 7.362351e+00 1.331142e+01 6.733154e+00 3.309420e+00 3.579057e+00 3.760933e+00 2.520806e+00 
1.001668e-13 -1.108923e+00 -1.783148e+00 -1.959412e+00 -1.840278e+00 -2.046834e+00 -4.289028e+00 -1.210200e+01 -1.187156e+01 8.628843e+00 1.032518e+01 -4.643763e+00 -7.103675e+00 -1.735216e+00 -3.268435e+00 -5.480607e+00 2.341351e-12 5.480607e+00 3.268435e+00 1.735216e+00 7.103675e+00 4.643763e+00 -1.032518e+01 -8.628843e+00 1.187156e+01 1.210200e+01 4.289028e+00 2.046834e+00 1.840278e+00 1.959412e+00 1.783148e+00 1.108923e+00 
6.048562e-14 -4.339949e-01 -7.882073e-01 -1.096615e+00 -1.354260e+00 -1.546373e+00 -1.281240e+00 -2.408936e+00 -9.797237e+00 -1.574543e+01 -1.268635e+01 -3.364392e+00 -4.143776e+00 -9.799407e+00 -2.152163e+01 -2.345180e+01 5.405724e-12 2.345180e+01 2.152163e+01 9.799407e+00 4.143776e+00 3.364392e+00 1.268635e+01 1.574543e+01 9.797237e+00 2.408936e+00 1.281240e+00 1.546373e+00 1.354260e+00 1.096615e+00 7.882073e-01 4.339949e-01 
6.461732e-14 -1.558007e-01 -3.272424e-01 -5.760328e-01 -9.154353e-01 -1.337421e+00 -1.309187e+00 -7.526271e-01 -2.432333e+00 -6.022828e+00 -1.126935e+01 -1.316716e+01 -1.093412e+01 3.247449e+00 7.333657e+00 -8.050555e+00 -1.244323e-13 8.050555e+00 -7.333657e+00 -3.247449e+00 1.093412e+01 1.316716e+01 1.126935e+01 6.022828e+00 2.432333e+00 7.526271e-01 1.309187e+00 1.337421e+00 9.154353e-01 5.760328e-01 3.272424e-01 1.558007e-01 
4.222199e-14 -4.914870e-02 -1.204981e-01 -2.563288e-01 -4.956217e-01 -8.319320e-01 -1.111695e+00 -1.242077e+00 -8.274259e-01 -1.208510e+00 -2.747062e+00 -6.816264e+00 -1.040921e+01 5.447194e+00 3.719357e+01 2.853223e+01 4.578725e-13 -2.853223e+01 -3.719357e+01 -5.447194e+00 1.040921e+01 6.816264e+00 2.747062e+00 1.208510e+00 8.274259e-01 1.242077e+00 1.111695e+00 8.319320e-01 4.956217e-01 2.563288e-01 1.204981e-01 4.914870e-02 
-9.723484e-15 -1.264920e-02 -3.664159e-02 -9.347272e-02 -2.126082e-01 -3.896522e-01 -6.307158e-01 -9.656407e-01 -5.813272e-01 -5.713415e-01 -5.055595e-01 -9.807227e-01 -3.541997e-01 7.018978e+00 3.582433e+01 4.394972e+01 2.306889e-12 -4.394972e+01 -3.582433e+01 -7.018978e+00 3.541997e-01 9.807227e-01 5.055595e-01 5.713415e-01 5.813272e-01 9.656407e-01 6.307158e-01 3.896522e-01 2.126082e-01 9.347272e-02 3.664159e-02 1.264920e-02 
-4.183649e-14 -8.782954e-04 -6.895596e-03 -2.390309e-02 -7.203408e-02 -1.421621e-01 -2.703911e-01 -4.615744e-01 -3.862250e-01 -4.046231e-01 -3.245923e-01 1.981941e-01 4.072449e+00 1.273679e+01 3.000953e+01 4.190438e+01 1.782692e-12 -4.190438e+01 -3.000953e+01 -1.273679e+01 -4.072449e+00 -1.981941e-01 3.245923e-01 4.046231e-01 3.862250e-01 4.615744e-01 2.703911e-01 1.421621e-01 7.203408e-02 2.390309e-02 6.895596e-03 8.782954e-04 
-6.596635e-14 1.425108e-03 1.023828e-03 -2.315986e-03 -1.747207e-02 -4.045564e-02 -8.709854e-02 -1.595393e-01 -1.678700e-01 -1.838137e-01 -8.686894e-02 5.966977e-01 2.450672e+00 7.296187e+00 1.713956e+01 2.725672e+01 2.063835e-12 -2.725672e+01 -1.713956e+01 -7.296187e+00 -2.450672e+00 -5.966977e-01 8.686894e-02 1.838137e-01 1.678700e-01 1.595393e-01 8.709854e-02 4.045564e-02 1.747207e-02 2.315986e-03 -1.023828e-03 -1.425108e-03 
-8.172270e-14 1.114052e-03 1.413886e-03 1.559151e-03 -2.665876e-03 -8.565314e-03 -2.183414e-02 -4.261958e-02 -5.135521e-02 -4.651046e-02 2.235502e-02 3.515910e-01 1.030991e+00 2.874745e+00 7.017751e+00 1.131599e+01 1.487808e-12 -1.131599e+01 -7.017751e+00 -2.874745e+00 -1.030991e+00 -3.515910e-01 -2.235502e-02 4.651046e-02 5.135521e-02 4.261958e-02 2.183414e-02 8.565314e-03 2.665876e-03 -1.559151e-03 -1.413886e-03 -1.114052e-03 
