# vtk DataFile Version 2.0
Comment goes here
ASCII

DATASET STRUCTURED_POINTS
FIELD FieldData 1
TIME 1 1 double
0.64000000
DIMENSIONS    32   32   1

ORIGIN    0.000   0.000   0.000
SPACING   0.03125 0.03125   1.000

POINT_DATA   1024
SCALARS Omega double
LOOKUP_TABLE default

-3.239151e-14 -2.690817e-14 -1.857604e-14 -8.063220e-15 -1.322821e-14 -3.033540e-14 -1.198431e-13 -2.208330e-13 -3.826869e-13 -4.267099e-13 -3.982457e-13 -2.405445e-13 -9.758416e-14 3.034005e-14 2.471342e-13 5.120382e-13 4.680853e-13 3.509219e-13 2.708538e-13 2.179536e-13 1.737866e-13 1.702140e-14 -1.970916e-13 -2.519628e-13 -2.715847e-13 -1.892343e-13 -1.351133e-13 -8.944029e-14 -5.269536e-14 -4.403373e-14 -3.953872e-14 -3.580576e-14 
-2.402041e-14 1.892906e-02 2.973852e-02 1.436296e-02 -5.739347e-02 -2.806114e-01 -7.801759e-01 -1.741975e+00 -3.224045e+00 -5.218310e+00 -7.620987e+00 -1.026077e+01 -1.288577e+01 -1.446998e+01 -1.352054e+01 -8.837796e+00 3.061770e-13 8.837796e+00 1.352054e+01 1.446998e+01 1.288577e+01 1.026077e+01 7.620987e+00 5.218310e+00 3.224045e+00 1.741975e+00 7.801759e-01 2.806114e-01 5.739347e-02 -1.436296e-02 -2.973852e-02 -1.892906e-02 
-2.184102e-14 4.827902e-02 7.780388e-02 5.896265e-02 -5.063913e-02 -4.001865e-01 -1.191734e+00 -2.754092e+00 -5.221091e+00 -8.585576e+00 -1.261416e+01 -1.683491e+01 -2.100612e+01 -2.338507e+01 -2.122302e+01 -1.317735e+01 3.620501e-13 1.317735e+01 2.122302e+01 2.338507e+01 2.100612e+01 1.683491e+01 1.261416e+01 8.585576e+00 5.221091e+00 2.754092e+00 1.191734e+00 4.001865e-01 5.063913e-02 -5.896265e-02 -7.780388e-02 -4.827902e-02 
2.248091e-15 1.068314e-01 1.728245e-01 1.626242e-01 4.716761e-02 -3.252148e-01 -1.170045e+00 -2.877229e+00 -5.643623e+00 -9.450908e+00 -1.401878e+01 -1.863265e+01 -2.372942e+01 -2.708096e+01 -2.375490e+01 -1.362638e+01 1.208469e-12 1.362638e+01 2.375490e+01 2.708096e+01 2.372942e+01 1.863265e+01 1.401878e+01 9.450908e+00 5.643623e+00 2.877229e+00 1.170045e+00 3.252148e-01 -4.716761e-02 -1.626242e-01 -1.728245e-01 -1.068314e-01 
-1.081030e-14 2.259582e-01 3.579278e-01 3.606005e-01 2.428858e-01 -9.675877e-02 -8.342317e-01 -2.340181e+00 -4.831597e+00 -8.328749e+00 -1.280516e+01 -1.823631e+01 -2.609804e+01 -3.330309e+01 -2.849889e+01 -1.712004e+01 3.763720e-12 1.712004e+01 2.849889e+01 3.330309e+01 2.609804e+01 1.823631e+01 1.280516e+01 8.328749e+00 4.831597e+00 2.340181e+00 8.342317e-01 9.675877e-02 -2.428858e-01 -3.606005e-01 -3.579278e-01 -2.259582e-01 
-3.638850e-14 4.775029e-01 7.381842e-01 7.450450e-01 5.813630e-01 2.454743e-01 -3.671403e-01 -1.571364e+00 -3.586159e+00 -6.708793e+00 -1.251318e+01 -2.457243e+01 -3.975291e+01 -5.082521e+01 -2.585285e+01 -4.330031e+00 4.759546e-12 4.330031e+00 2.585285e+01 5.082521e+01 3.975291e+01 2.457243e+01 1.251318e+01 6.708793e+00 3.586159e+00 1.571364e+00 3.671403e-01 -2.454743e-01 -5.813630e-01 -7.450450e-01 -7.381842e-01 -4.775029e-01 
-1.091834e-13 9.551055e-01 1.450359e+00 1.448061e+00 1.144230e+00 7.161122e-01 1.404046e-01 -8.371902e-01 -2.569538e+00 -6.850977e+00 -1.979107e+01 -4.026643e+01 -2.194482e+01 3.317623e+01 6.621050e+01 3.506967e+01 -2.249471e-12 -3.506967e+01 -6.621050e+01 -3.317623e+01 2.194482e+01 4.026643e+01 1.979107e+01 6.850977e+00 2.569538e+00 8.371902e-01 -1.404046e-01 -7.161122e-01 -1.144230e+00 -1.448061e+00 -1.450359e+00 -9.551055e-01 
-2.256112e-13 1.793002e+00 2.711321e+00 2.692241e+00 2.095565e+00 1.376185e+00 6.441775e-01 -2.751365e-01 -2.917543e+00 -1.027841e+01 -2.659964e+01 -4.096916e+00 5.708874e+01 6.875590e+01 1.903094e+01 -1.652682e+01 -8.150159e-12 1.652682e+01 -1.903094e+01 -6.875590e+01 -5.708874e+01 4.096916e+00 2.659964e+01 1.027841e+01 2.917543e+00 2.751365e-01 -6.441775e-01 -1.376185e+00 -2.095565e+00 -2.692241e+00 -2.711321e+00 -1.793002e+00 
-4.213069e-13 3.067206e+00 4.666725e+00 4.676047e+00 3.646304e+00 2.638023e+00 1.931007e+00 1.795449e-01 -4.722560e+00 -2.356725e+00 -2.265651e+00 3.761309e+01 4.381896e+01 -2.931288e+01 -7.066889e+01 -4.188595e+01 -2.319886e-12 4.188595e+01 7.066889e+01 2.931288e+01 -4.381896e+01 -3.761309e+01 2.265651e+00 2.356725e+00 4.722560e+00 -1.795449e-01 -1.931007e+00 -2.638023e+00 -3.646304e+00 -4.676047e+00 -4.666725e+00 -3.067206e+00 
-6.517235e-13 4.771926e+00 7.387564e+00 7.553568e+00 5.931307e+00 3.800811e+00 1.377639e+00 -3.179009e+00 3.464111e+00 4.130864e+00 -1.514271e+00 7.062555e+00 -1.363792e+01 -2.581618e+01 -8.522893e+00 5.445751e+00 6.870385e-13 -5.445751e+00 8.522893e+00 2.581618e+01 1.363792e+01 -7.062555e+00 1.514271e+00 -4.130864e+00 -3.464111e+00 3.179009e+00 -1.377639e+00 -3.800811e+00 -5.931307e+00 -7.553568e+00 -7.387564e+00 -4.771926e+00 
-8.424175e-13 6.738796e+00 1.071310e+01 1.132955e+01 9.183019e+00 5.883486e+00 3.472026e-01 -4.207367e+00 1.342328e+01 -1.609034e+01 -1.334774e+01 1.472959e+00 -1.026048e+01 9.016046e+00 2.312735e+01 1.951803e+01 -7.895932e-13 -1.951803e+01 -2.312735e+01 -9.016046e+00 1.026048e+01 -1.472959e+00 1.334774e+01 1.609034e+01 -1.342328e+01 4.207367e+00 -3.472026e-01 -5.883486e+00 -9.183019e+00 -1.132955e+01 -1.071310e+01 -6.738796e+00 
-9.486414e-13 8.617165e+00 1.418000e+01 1.558954e+01 1.356189e+01 9.526154e+00 3.558494e+00 1.644340e+01 2.448410e-01 -3.719866e+01 5.548366e+00 7.976628e+00 -3.139788e+00 1.479200e+01 1.987537e+01 1.466313e+01 -4.002106e-13 -1.466313e+01 -1.987537e+01 -1.479200e+01 3.139788e+00 -7.976628e+00 -5.548366e+00 3.719866e+01 -2.448410e-01 -1.644340e+01 -3.558494e+00 -9.526154e+00 -1.356189e+01 -1.558954e+01 -1.418000e+01 -8.617165e+00 
-7.783746e-13 1.006336e+01 1.729145e+01 2.026249e+01 1.930862e+01 1.325536e+01 1.016207e+01 2.992637e+01 -3.755278e+01 -2.995871e+01 2.125338e+01 -7.686829e+00 -6.879181e+00 1.263267e+00 5.392543e+00 5.628674e+00 -1.377543e-13 -5.628674e+00 -5.392543e+00 -1.263267e+00 6.879181e+00 7.686829e+00 -2.125338e+01 2.995871e+01 3.755278e+01 -2.992637e+01 -1.016207e+01 -1.325536e+01 -1.930862e+01 -2.026249e+01 -1.729145e+01 -1.006336e+01 
-3.875926e-13 1.075091e+01 1.952568e+01 2.509880e+01 2.650933e+01 2.342168e+01 2.751604e+01 1.765677e+01 -5.175346e+01 -3.150529e+00 1.989196e+01 -2.085985e+01 -1.080151e+01 -3.819264e+00 7.355394e-01 1.919984e+00 -1.715339e-14 -1.919984e+00 -7.355394e-01 3.819264e+00 1.080151e+01 2.085985e+01 -1.989196e+01 3.150529e+00 5.175346e+01 -1.765677e+01 -2.751604e+01 -2.342168e+01 -2.650933e+01 -2.509880e+01 -1.952568e+01 -1.075091e+01 
5.933540e-14 1.037359e+01 2.042541e+01 2.976714e+01 3.782547e+01 4.161021e+01 3.286912e+01 -1.781105e+01 -4.002285e+01 9.869787e+00 9.520147e+00 -1.938148e+01 -1.081023e+01 -5.377167e+00 -1.419299e+00 1.832637e-01 -5.390129e-14 -1.832637e-01 1.419299e+00 5.377167e+00 1.081023e+01 1.938148e+01 -9.520147e+00 -9.869787e+00 4.002285e+01 1.781105e+01 -3.286912e+01 -4.161021e+01 -3.782547e+01 -2.976714e+01 -2.042541e+01 -1.037359e+01 
1.002817e-12 7.725528e+00 1.661023e+01 2.649421e+01 3.475235e+01 3.540374e+01 1.519081e+01 -2.420213e+01 -9.228678e+00 8.070240e+00 -5.237725e+00 -1.381896e+01 -8.317170e+00 -4.557272e+00 -1.742031e+00 -3.214275e-01 -2.621458e-14 3.214275e-01 1.742031e+00 4.557272e+00 8.317170e+00 1.381896e+01 5.237725e+00 -8.070240e+00 9.228678e+00 2.420213e+01 -1.519081e+01 -3.540374e+01 -3.475235e+01 -2.649421e+01 -1.661023e+01 -7.725528e+00 
1.278256e-12 1.133093e-12 1.058160e-12 1.015298e-12 7.222038e-13 -2.840645e-13 1.437862e-13 4.522041e-12 5.630047e-12 -7.732117e-13 -3.605498e-12 -7.320630e-13 6.825200e-14 1.064454e-14 -1.307867e-14 -6.272138e-14 -4.093600e-14 -5.890886e-14 3.210540e-14 2.979757e-13 1.621722e-12 5.466129e-12 1.019482e-11 5.558103e-12 -7.621484e-12 -6.777844e-12 2.201497e-12 1.799371e-12 1.406614e-12 1.623911e-12 1.666685e-12 1.450232e-12 
3.982888e-13 -7.725528e+00 -1.661023e+01 -2.649421e+01 -3.475235e+01 -3.540374e+01 -1.519081e+01 2.420213e+01 9.228678e+00 -8.070240e+00 5.237725e+00 1.381896e+01 8.317170e+00 4.557272e+00 1.742031e+00 3.214275e-01 -2.880224e-14 -3.214275e-01 -1.742031e+00 -4.557272e+00 -8.317170e+00 -1.381896e+01 -5.237725e+00 8.070240e+00 -9.228678e+00 -2.420213e+01 1.519081e+01 3.540374e+01 3.475235e+01 2.649421e+01 1.661023e+01 7.725528e+00 
-2.734362e-13 -1.037359e+01 -2.042541e+01 -2.976714e+01 -3.782547e+01 -4.161021e+01 -3.286912e+01 1.781105e+01 4.002285e+01 -9.869787e+00 -9.520147e+00 1.938148e+01 1.081023e+01 5.377167e+00 1.419299e+00 -1.832637e-01 -3.624306e-14 1.832637e-01 -1.419299e+00 -5.377167e+00 -1.081023e+01 -1.938148e+01 9.520147e+00 9.869787e+00 -4.002285e+01 -1.781105e+01 3.286912e+01 4.161021e+01 3.782547e+01 2.976714e+01 2.042541e+01 1.037359e+01 
-8.566892e-13 -1.075091e+01 -1.952568e+01 -2.509880e+01 -2.650933e+01 -2.342168e+01 -2.751604e+01 -1.765677e+01 5.175346e+01 3.150529e+00 -1.989196e+01 2.085985e+01 1.080151e+01 3.819264e+00 -7.355394e-01 -1.919984e+00 1.902738e-13 1.919984e+00 7.355394e-01 -3.819264e+00 -1.080151e+01 -2.085985e+01 1.989196e+01 -3.150529e+00 -5.175346e+01 1.765677e+01 2.751604e+01 2.342168e+01 2.650933e+01 2.509880e+01 1.952568e+01 1.075091e+01 
-1.186558e-12 -1.006336e+01 -1.729145e+01 -2.026249e+01 -1.930862e+01 -1.325536e+01 -1.016207e+01 -2.992637e+01 3.755278e+01 2.995871e+01 -2.125338e+01 7.686829e+00 6.879181e+00 -1.263267e+00 -5.392543e+00 -5.628674e+00 1.999181e-13 5.628674e+00 5.392543e+00 1.263267e+00 -6.879181e+00 -7.686829e+00 2.125338e+01 -2.995871e+01 -3.755278e+01 2.992637e+01 1.016207e+01 1.325536e+01 1.930862e+01 2.026249e+01 1.729145e+01 1.006336e+01 
-1.284604e-12 -8.617165e+00 -1.418000e+01 -1.558954e+01 -1.356189e+01 -9.526154e+00 -3.558494e+00 -1.644340e+01 -2.448410e-01 3.719866e+01 -5.548366e+00 -7.976628e+00 3.139788e+00 -1.479200e+01 -1.987537e+01 -1.466313e+01 -1.574565e-13 1.466313e+01 1.987537e+01 1.479200e+01 -3.139788e+00 7.976628e+00 5.548366e+00 -3.719866e+01 2.448410e-01 1.644340e+01 3.558494e+00 9.526154e+00 1.356189e+01 1.558954e+01 1.418000e+01 8.617165e+00 
-1.066069e-12 -6.738796e+00 -1.071310e+01 -1.132955e+01 -9.183019e+00 -5.883486e+00 -3.472026e-01 4.207367e+00 -1.342328e+01 1.609034e+01 1.334774e+01 -1.472959e+00 1.026048e+01 -9.016046e+00 -2.312735e+01 -1.951803e+01 -1.665012e-12 1.951803e+01 2.312735e+01 9.016046e+00 -1.026048e+01 1.472959e+00 -1.334774e+01 -1.609034e+01 1.342328e+01 -4.207367e+00 3.472026e-01 5.883486e+00 9.183019e+00 1.132955e+01 1.071310e+01 6.738796e+00 
-8.027841e-13 -4.771926e+00 -7.387564e+00 -7.553568e+00 -5.931307e+00 -3.800811e+00 -1.377639e+00 3.179009e+00 -3.464111e+00 -4.130864e+00 1.514271e+00 -7.062555e+00 1.363792e+01 2.581618e+01 8.522893e+00 -5.445751e+00 -2.050026e-12 5.445751e+00 -8.522893e+00 -2.581618e+01 -1.363792e+01 7.062555e+00 -1.514271e+00 4.130864e+00 3.464111e+00 -3.179009e+00 1.377639e+00 3.800811e+00 5.931307e+00 7.553568e+00 7.387564e+00 4.771926e+00 
-4.527759e-13 -3.067206e+00 -4.666725e+00 -4.676047e+00 -3.646304e+00 -2.638023e+00 -1.931007e+00 -1.795449e-01 4.722560e+00 2.356725e+00 2.265651e+00 -3.761309e+01 -4.381896e+01 2.931288e+01 7.066889e+01 4.188595e+01 -3.358530e-12 -4.188595e+01 -7.066889e+01 -2.931288e+01 4.381896e+01 3.761309e+01 -2.265651e+00 -2.356725e+00 -4.722560e+00 1.795449e-01 1.931007e+00 2.638023e+00 3.646304e+00 4.676047e+00 4.666725e+00 3.067206e+00 
-2.646335e-13 -1.793002e+00 -2.711321e+00 -2.692241e+00 -2.095565e+00 -1.376185e+00 -6.441775e-01 2.751365e-01 2.917543e+00 1.027841e+01 2.659964e+01 4.096916e+00 -5.708874e+01 -6.875590e+01 -1.903094e+01 1.652682e+01 -3.457877e-12 -1.652682e+01 1.903094e+01 6.875590e+01 5.708874e+01 -4.096916e+00 -2.659964e+01 -1.027841e+01 -2.917543e+00 -2.751365e-01 6.441775e-01 1.376185e+00 2.095565e+00 2.692241e+00 2.711321e+00 1.793002e+00 
-9.189008e-14 -9.551055e-01 -1.450359e+00 -1.448061e+00 -1.144230e+00 -7.161122e-01 -1.404046e-01 8.371902e-01 2.569538e+00 6.850977e+00 1.979107e+01 4.026643e+01 2.194482e+01 -3.317623e+01 -6.621050e+01 -3.506967e+01 1.333525e-12 3.506967e+01 6.621050e+01 3.317623e+01 -2.194482e+01 -4.026643e+01 -1.979107e+01 -6.850977e+00 -2.569538e+00 -8.371902e-01 1.404046e-01 7.161122e-01 1.144230e+00 1.448061e+00 1.450359e+00 9.551055e-01 
-4.013795e-14 -4.775029e-01 -7.381842e-01 -7.450450e-01 -5.813630e-01 -2.454743e-01 3.671403e-01 1.571364e+00 3.586159e+00 6.708793e+00 1.251318e+01 2.457243e+01 3.975291e+01 5.082521e+01 2.585285e+01 4.330031e+00 -8.921106e-13 -4.330031e+00 -2.585285e+01 -5.082521e+01 -3.975291e+01 -2.457243e+01 -1.251318e+01 -6.708793e+00 -3.586159e+00 -1.571364e+00 -3.671403e-01 2.454743e-01 5.813630e-01 7.450450e-01 7.381842e-01 4.775029e-01 
-6.556621e-15 -2.259582e-01 -3.579278e-01 -3.606005e-01 -2.428858e-01 9.675877e-02 8.342317e-01 2.340181e+00 4.831597e+00 8.328749e+00 1.280516e+01 1.823631e+01 2.609804e+01 3.330309e+01 2.849889e+01 1.712004e+01 -2.995400e-12 -1.712004e+01 -2.849889e+01 -3.330309e+01 -2.609804e+01 -1.823631e+01 -1.280516e+01 -8.328749e+00 -4.831597e+00 -2.340181e+00 -8.342317e-01 -9.675877e-02 2.428858e-01 3.606005e-01 3.579278e-01 2.259582e-01 
-6.656619e-15 -1.068314e-01 -1.728245e-01 -1.626242e-01 -4.716761e-02 3.252148e-01 1.170045e+00 2.877229e+00 5.643623e+00 9.450908e+00 1.401878e+01 1.863265e+01 2.372942e+01 2.708096e+01 2.375490e+01 1.362638e+01 -2.332460e-12 -1.362638e+01 -2.375490e+01 -2.708096e+01 -2.372942e+01 -1.863265e+01 -1.401878e+01 -9.450908e+00 -5.643623e+00 -2.877229e+00 -1.170045e+00 -3.252148e-01 4.716761e-02 1.626242e-01 1.728245e-01 1.068314e-01 
-1.157492e-14 -4.827902e-02 -7.780388e-02 -5.896265e-02 5.063913e-02 4.001865e-01 1.191734e+00 2.754092e+00 5.221091e+00 8.585576e+00 1.261416e+01 1.683491e+01 2.100612e+01 2.338507e+01 2.122302e+01 1.317735e+01 -1.269600e-12 -1.317735e+01 -2.122302e+01 -2.338507e+01 -2.100612e+01 -1.683491e+01 -1.261416e+01 -8.585576e+00 -5.221091e+00 -2.754092e+00 -1.191734e+00 -4.001865e-01 -5.063913e-02 5.896265e-02 7.780388e-02 4.827902e-02 
-2.255227e-14 -1.892906e-02 -2.973852e-02 -1.436296e-02 5.739347e-02 2.806114e-01 7.801759e-01 1.741975e+00 3.224045e+00 5.218310e+00 7.620987e+00 1.026077e+01 1.288577e+01 1.446998e+01 1.352054e+01 8.837796e+00 5.635768e-14 -8.837796e+00 -1.352054e+01 -1.446998e+01 -1.288577e+01 -1.026077e+01 -7.620987e+00 -5.218310e+00 -3.224045e+00 -1.741975e+00 -7.801759e-01 -2.806114e-01 -5.739347e-02 1.436296e-02 2.973852e-02 1.892906e-02 
