# vtk DataFile Version 2.0
Comment goes here
ASCII

DATASET STRUCTURED_POINTS
FIELD FieldData 1
TIME 1 1 double
1.24000000
DIMENSIONS    32   32   1

ORIGIN    0.000   0.000   0.000
SPACING   0.03125 0.03125   1.000

POINT_DATA   1024
SCALARS Omega double
LOOKUP_TABLE default

-8.129658e-14 -4.451290e-14 1.414043e-14 7.611810e-14 4.253538e-13 1.272745e-12 3.280838e-12 6.260897e-12 1.023809e-11 1.385033e-11 1.650017e-11 1.693383e-11 1.527268e-11 1.123051e-11 4.654742e-12 -4.032700e-12 -1.032420e-11 -8.319768e-12 -7.064374e-13 6.615158e-12 1.195049e-11 1.516262e-11 1.618820e-11 1.482236e-11 1.199837e-11 8.225078e-12 4.992884e-12 2.421070e-12 1.060550e-12 2.466861e-13 1.268847e-14 -1.003353e-13 
-1.022989e-13 4.513814e-02 1.966740e-03 -2.105455e-01 -6.389088e-01 -1.338281e+00 -2.306812e+00 -3.519916e+00 -4.901828e+00 -6.333443e+00 -7.679952e+00 -8.764512e+00 -9.475225e+00 -9.587407e+00 -8.559602e+00 -5.618666e+00 -9.793770e-12 5.618666e+00 8.559602e+00 9.587407e+00 9.475225e+00 8.764512e+00 7.679952e+00 6.333443e+00 4.901828e+00 3.519916e+00 2.306812e+00 1.338281e+00 6.389088e-01 2.105455e-01 -1.966740e-03 -4.513814e-02 
-1.528437e-13 1.714421e-01 1.620964e-01 -1.776440e-01 -9.192959e-01 -2.154298e+00 -3.872404e+00 -6.021436e+00 -8.439177e+00 -1.091152e+01 -1.322847e+01 -1.515667e+01 -1.664034e+01 -1.725202e+01 -1.572656e+01 -1.034849e+01 -1.201280e-11 1.034849e+01 1.572656e+01 1.725202e+01 1.664034e+01 1.515667e+01 1.322847e+01 1.091152e+01 8.439177e+00 6.021436e+00 3.872404e+00 2.154298e+00 9.192959e-01 1.776440e-01 -1.620964e-01 -1.714421e-01 
-3.345711e-13 4.546229e-01 6.176898e-01 2.845825e-01 -6.067255e-01 -2.144197e+00 -4.303585e+00 -7.011987e+00 -1.004457e+01 -1.307188e+01 -1.585545e+01 -1.810331e+01 -2.008846e+01 -2.145760e+01 -2.021800e+01 -1.328275e+01 -1.630803e-11 1.328275e+01 2.021800e+01 2.145760e+01 2.008846e+01 1.810331e+01 1.585545e+01 1.307188e+01 1.004457e+01 7.011987e+00 4.303585e+00 2.144197e+00 6.067255e-01 -2.845825e-01 -6.176898e-01 -4.546229e-01 
-6.160359e-13 9.464178e-01 1.452331e+00 1.260503e+00 3.475562e-01 -1.312046e+00 -3.644549e+00 -6.570155e+00 -9.809182e+00 -1.294309e+01 -1.565317e+01 -1.756616e+01 -1.971116e+01 -2.240320e+01 -2.224924e+01 -1.436703e+01 -2.083102e-11 1.436703e+01 2.224924e+01 2.240320e+01 1.971116e+01 1.756616e+01 1.565317e+01 1.294309e+01 9.809182e+00 6.570155e+00 3.644549e+00 1.312046e+00 -3.475562e-01 -1.260503e+00 -1.452331e+00 -9.464178e-01 
-1.354939e-12 1.685104e+00 2.730332e+00 2.815829e+00 1.959617e+00 2.548767e-01 -2.121987e+00 -5.066487e+00 -8.309615e+00 -1.138741e+01 -1.405207e+01 -1.556825e+01 -1.739231e+01 -2.243128e+01 -2.373589e+01 -1.379266e+01 -2.326155e-11 1.379266e+01 2.373589e+01 2.243128e+01 1.739231e+01 1.556825e+01 1.405207e+01 1.138741e+01 8.309615e+00 5.066487e+00 2.121987e+00 -2.548767e-01 -1.959617e+00 -2.815829e+00 -2.730332e+00 -1.685104e+00 
-2.627828e-12 2.660975e+00 4.434243e+00 4.932423e+00 4.184706e+00 2.439198e+00 2.137997e-02 -2.898542e+00 -6.072229e+00 -9.071766e+00 -1.203468e+01 -1.514509e+01 -1.551931e+01 -2.972740e+01 -2.990356e+01 -1.215424e+01 -1.856126e-11 1.215424e+01 2.990356e+01 2.972740e+01 1.551931e+01 1.514509e+01 1.203468e+01 9.071766e+00 6.072229e+00 2.898542e+00 -2.137997e-02 -2.439198e+00 -4.184706e+00 -4.932423e+00 -4.434243e+00 -2.660975e+00 
-4.622474e-12 3.826917e+00 6.482839e+00 7.500833e+00 6.906160e+00 5.095675e+00 2.573101e+00 -4.050877e-01 -3.549586e+00 -6.807470e+00 -1.149029e+01 -2.255881e+01 -2.396396e+01 -3.107093e+01 -1.090660e+01 1.153914e+01 3.110586e-11 -1.153914e+01 1.090660e+01 3.107093e+01 2.396396e+01 2.255881e+01 1.149029e+01 6.807470e+00 3.549586e+00 4.050877e-01 -2.573101e+00 -5.095675e+00 -6.906160e+00 -7.500833e+00 -6.482839e+00 -3.826917e+00 
-7.047270e-12 5.104973e+00 8.728122e+00 1.032303e+01 9.890489e+00 8.031567e+00 5.356437e+00 2.248769e+00 -1.160597e+00 -6.300729e+00 -1.837899e+01 -2.621839e+01 -3.842062e+00 4.997629e+01 5.861537e+01 2.954116e+01 5.246669e-11 -2.954116e+01 -5.861537e+01 -4.997629e+01 3.842062e+00 2.621839e+01 1.837899e+01 6.300729e+00 1.160597e+00 -2.248769e+00 -5.356437e+00 -8.031567e+00 -9.890489e+00 -1.032303e+01 -8.728122e+00 -5.104973e+00 
-9.439591e-12 6.409146e+00 1.101566e+01 1.312348e+01 1.281636e+01 1.090161e+01 8.132227e+00 4.838560e+00 3.604601e-01 -6.174600e+00 -7.064867e+00 1.083803e+01 2.872375e+01 3.735723e+01 -1.024339e+01 -2.487451e+01 6.456335e-12 2.487451e+01 1.024339e+01 -3.735723e+01 -2.872375e+01 -1.083803e+01 7.064867e+00 6.174600e+00 -3.604601e-01 -4.838560e+00 -8.132227e+00 -1.090161e+01 -1.281636e+01 -1.312348e+01 -1.101566e+01 -6.409146e+00 
-1.129196e-11 7.683390e+00 1.322312e+01 1.574718e+01 1.541870e+01 1.348259e+01 1.063794e+01 7.168578e+00 9.582394e+00 1.845867e+01 3.044230e+00 -1.796045e+00 5.156890e+00 -2.711842e+01 -5.122200e+01 -1.877162e+01 -1.811550e-11 1.877162e+01 5.122200e+01 2.711842e+01 -5.156890e+00 1.796045e+00 -3.044230e+00 -1.845867e+01 -9.582394e+00 -7.168578e+00 -1.063794e+01 -1.348259e+01 -1.541870e+01 -1.574718e+01 -1.322312e+01 -7.683390e+00 
-1.186070e-11 8.815459e+00 1.519595e+01 1.801609e+01 1.761292e+01 1.556415e+01 1.324601e+01 1.145678e+01 1.810096e+01 -1.168766e+00 -3.430619e+01 -1.704317e+01 3.953598e+00 4.136178e+00 1.284050e+01 2.295858e+01 -6.484562e-12 -2.295858e+01 -1.284050e+01 -4.136178e+00 -3.953598e+00 1.704317e+01 3.430619e+01 1.168766e+00 -1.810096e+01 -1.145678e+01 -1.324601e+01 -1.556415e+01 -1.761292e+01 -1.801609e+01 -1.519595e+01 -8.815459e+00 
-1.082800e-11 9.622320e+00 1.669637e+01 1.999716e+01 2.003978e+01 1.802223e+01 1.443639e+01 5.622483e+00 1.287668e+01 -4.227066e+01 -2.783593e+01 1.530840e+01 -3.102208e+00 2.868053e+00 1.237187e+01 1.136102e+01 -8.634683e-13 -1.136102e+01 -1.237187e+01 -2.868053e+00 3.102208e+00 -1.530840e+01 2.783593e+01 4.227066e+01 -1.287668e+01 -5.622483e+00 -1.443639e+01 -1.802223e+01 -2.003978e+01 -1.999716e+01 -1.669637e+01 -9.622320e+00 
-7.694251e-12 9.744065e+00 1.718533e+01 2.138661e+01 2.317321e+01 2.260954e+01 2.175862e+01 2.652776e+01 4.059758e+00 -5.623831e+01 4.171857e+00 1.742995e+01 -9.233103e+00 1.097899e+00 3.085898e+00 3.384271e+00 -2.004785e-12 -3.384271e+00 -3.085898e+00 -1.097899e+00 9.233103e+00 -1.742995e+01 -4.171857e+00 5.623831e+01 -4.059758e+00 -2.652776e+01 -2.175862e+01 -2.260954e+01 -2.317321e+01 -2.138661e+01 -1.718533e+01 -9.744065e+00 
-2.429806e-12 8.491035e+00 1.534680e+01 2.035756e+01 2.467460e+01 2.814736e+01 3.378446e+01 4.322762e+01 -3.137205e+01 -4.432144e+01 1.974805e+01 1.968485e+00 -7.956195e+00 -2.458175e+00 -1.227098e-02 8.459253e-01 -2.742033e-13 -8.459253e-01 1.227098e-02 2.458175e+00 7.956195e+00 -1.968485e+00 -1.974805e+01 4.432144e+01 3.137205e+01 -4.322762e+01 -3.378446e+01 -2.814736e+01 -2.467460e+01 -2.035756e+01 -1.534680e+01 -8.491035e+00 
3.073266e-12 5.123616e+00 9.473889e+00 1.324775e+01 1.713608e+01 2.080133e+01 2.501313e+01 2.372049e+01 -3.617451e+01 -9.518754e+00 1.461430e+01 -1.439257e+01 -1.128188e+01 -3.925723e+00 -1.048486e+00 -7.109983e-02 -3.369759e-13 7.109983e-02 1.048486e+00 3.925723e+00 1.128188e+01 1.439257e+01 -1.461430e+01 9.518754e+00 3.617451e+01 -2.372049e+01 -2.501313e+01 -2.080133e+01 -1.713608e+01 -1.324775e+01 -9.473889e+00 -5.123616e+00 
6.505683e-12 5.329410e-12 5.823931e-12 7.517766e-12 8.822348e-12 8.888887e-12 1.077313e-11 1.862945e-11 -2.712547e-11 -2.540893e-11 1.629427e-11 1.085032e-11 -2.894794e-12 -4.423229e-12 -2.479490e-12 -6.044043e-13 -4.487401e-13 6.003284e-13 1.557073e-12 8.077235e-12 2.496217e-11 3.628765e-11 -1.094263e-11 -6.847262e-11 -8.794162e-11 5.606673e-11 6.100890e-11 4.784708e-11 3.797735e-11 2.889572e-11 1.938949e-11 1.119232e-11 
4.576661e-12 -5.123616e+00 -9.473889e+00 -1.324775e+01 -1.713608e+01 -2.080133e+01 -2.501313e+01 -2.372049e+01 3.617451e+01 9.518754e+00 -1.461430e+01 1.439257e+01 1.128188e+01 3.925723e+00 1.048486e+00 7.109983e-02 -1.746163e-12 -7.109983e-02 -1.048486e+00 -3.925723e+00 -1.128188e+01 -1.439257e+01 1.461430e+01 -9.518754e+00 -3.617451e+01 2.372049e+01 2.501313e+01 2.080133e+01 1.713608e+01 1.324775e+01 9.473889e+00 5.123616e+00 
-1.652110e-12 -8.491035e+00 -1.534680e+01 -2.035756e+01 -2.467460e+01 -2.814736e+01 -3.378446e+01 -4.322762e+01 3.137205e+01 4.432144e+01 -1.974805e+01 -1.968485e+00 7.956195e+00 2.458175e+00 1.227098e-02 -8.459253e-01 -4.645167e-12 8.459253e-01 -1.227098e-02 -2.458175e+00 -7.956195e+00 1.968485e+00 1.974805e+01 -4.432144e+01 -3.137205e+01 4.322762e+01 3.378446e+01 2.814736e+01 2.467460e+01 2.035756e+01 1.534680e+01 8.491035e+00 
-7.209839e-12 -9.744065e+00 -1.718533e+01 -2.138661e+01 -2.317321e+01 -2.260954e+01 -2.175862e+01 -2.652776e+01 -4.059758e+00 5.623831e+01 -4.171857e+00 -1.742995e+01 9.233103e+00 -1.097899e+00 -3.085898e+00 -3.384271e+00 -1.627112e-11 3.384271e+00 3.085898e+00 1.097899e+00 -9.233103e+00 1.742995e+01 4.171857e+00 -5.623831e+01 4.059758e+00 2.652776e+01 2.175862e+01 2.260954e+01 2.317321e+01 2.138661e+01 1.718533e+01 9.744065e+00 
-1.127806e-11 -9.622320e+00 -1.669637e+01 -1.999716e+01 -2.003978e+01 -1.802223e+01 -1.443639e+01 -5.622483e+00 -1.287668e+01 4.227066e+01 2.783593e+01 -1.530840e+01 3.102208e+00 -2.868053e+00 -1.237187e+01 -1.136102e+01 -3.558780e-11 1.136102e+01 1.237187e+01 2.868053e+00 -3.102208e+00 1.530840e+01 -2.783593e+01 -4.227066e+01 1.287668e+01 5.622483e+00 1.443639e+01 1.802223e+01 2.003978e+01 1.999716e+01 1.669637e+01 9.622320e+00 
-1.327047e-11 -8.815459e+00 -1.519595e+01 -1.801609e+01 -1.761292e+01 -1.556415e+01 -1.324601e+01 -1.145678e+01 -1.810096e+01 1.168766e+00 3.430619e+01 1.704317e+01 -3.953598e+00 -4.136178e+00 -1.284050e+01 -2.295858e+01 -8.826729e-11 2.295858e+01 1.284050e+01 4.136178e+00 3.953598e+00 -1.704317e+01 -3.430619e+01 -1.168766e+00 1.810096e+01 1.145678e+01 1.324601e+01 1.556415e+01 1.761292e+01 1.801609e+01 1.519595e+01 8.815459e+00 
-1.346109e-11 -7.683390e+00 -1.322312e+01 -1.574718e+01 -1.541870e+01 -1.348259e+01 -1.063794e+01 -7.168578e+00 -9.582394e+00 -1.845867e+01 -3.044230e+00 1.796045e+00 -5.156890e+00 2.711842e+01 5.122200e+01 1.877162e+01 -2.671855e-11 -1.877162e+01 -5.122200e+01 -2.711842e+01 5.156890e+00 -1.796045e+00 3.044230e+00 1.845867e+01 9.582394e+00 7.168578e+00 1.063794e+01 1.348259e+01 1.541870e+01 1.574718e+01 1.322312e+01 7.683390e+00 
-1.213596e-11 -6.409146e+00 -1.101566e+01 -1.312348e+01 -1.281636e+01 -1.090161e+01 -8.132227e+00 -4.838560e+00 -3.604601e-01 6.174600e+00 7.064867e+00 -1.083803e+01 -2.872375e+01 -3.735723e+01 1.024339e+01 2.487451e+01 7.553601e-11 -2.487451e+01 -1.024339e+01 3.735723e+01 2.872375e+01 1.083803e+01 -7.064867e+00 -6.174600e+00 3.604601e-01 4.838560e+00 8.132227e+00 1.090161e+01 1.281636e+01 1.312348e+01 1.101566e+01 6.409146e+00 
-9.938082e-12 -5.104973e+00 -8.728122e+00 -1.032303e+01 -9.890489e+00 -8.031567e+00 -5.356437e+00 -2.248769e+00 1.160597e+00 6.300729e+00 1.837899e+01 2.621839e+01 3.842062e+00 -4.997629e+01 -5.861537e+01 -2.954116e+01 1.377242e-10 2.954116e+01 5.861537e+01 4.997629e+01 -3.842062e+00 -2.621839e+01 -1.837899e+01 -6.300729e+00 -1.160597e+00 2.248769e+00 5.356437e+00 8.031567e+00 9.890489e+00 1.032303e+01 8.728122e+00 5.104973e+00 
-7.236666e-12 -3.826917e+00 -6.482839e+00 -7.500833e+00 -6.906160e+00 -5.095675e+00 -2.573101e+00 4.050877e-01 3.549586e+00 6.807470e+00 1.149029e+01 2.255881e+01 2.396396e+01 3.107093e+01 1.090660e+01 -1.153914e+01 1.006967e-10 1.153914e+01 -1.090660e+01 -3.107093e+01 -2.396396e+01 -2.255881e+01 -1.149029e+01 -6.807470e+00 -3.549586e+00 -4.050877e-01 2.573101e+00 5.095675e+00 6.906160e+00 7.500833e+00 6.482839e+00 3.826917e+00 
-4.809128e-12 -2.660975e+00 -4.434243e+00 -4.932423e+00 -4.184706e+00 -2.439198e+00 -2.137997e-02 2.898542e+00 6.072229e+00 9.071766e+00 1.203468e+01 1.514509e+01 1.551931e+01 2.972740e+01 2.990356e+01 1.215424e+01 -2.553887e-11 -1.215424e+01 -2.990356e+01 -2.972740e+01 -1.551931e+01 -1.514509e+01 -1.203468e+01 -9.071766e+00 -6.072229e+00 -2.898542e+00 2.137997e-02 2.439198e+00 4.184706e+00 4.932423e+00 4.434243e+00 2.660975e+00 
-2.775226e-12 -1.685104e+00 -2.730332e+00 -2.815829e+00 -1.959617e+00 -2.548767e-01 2.121987e+00 5.066487e+00 8.309615e+00 1.138741e+01 1.405207e+01 1.556825e+01 1.739231e+01 2.243128e+01 2.373589e+01 1.379266e+01 -6.848164e-11 -1.379266e+01 -2.373589e+01 -2.243128e+01 -1.739231e+01 -1.556825e+01 -1.405207e+01 -1.138741e+01 -8.309615e+00 -5.066487e+00 -2.121987e+00 2.548767e-01 1.959617e+00 2.815829e+00 2.730332e+00 1.685104e+00 
-1.525138e-12 -9.464178e-01 -1.452331e+00 -1.260503e+00 -3.475562e-01 1.312046e+00 3.644549e+00 6.570155e+00 9.809182e+00 1.294309e+01 1.565317e+01 1.756616e+01 1.971116e+01 2.240320e+01 2.224924e+01 1.436703e+01 -7.117339e-11 -1.436703e+01 -2.224924e+01 -2.240320e+01 -1.971116e+01 -1.756616e+01 -1.565317e+01 -1.294309e+01 -9.809182e+00 -6.570155e+00 -3.644549e+00 -1.312046e+00 3.475562e-01 1.260503e+00 1.452331e+00 9.464178e-01 
-6.652550e-13 -4.546229e-01 -6.176898e-01 -2.845825e-01 6.067255e-01 2.144197e+00 4.303585e+00 7.011987e+00 1.004457e+01 1.307188e+01 1.585545e+01 1.810331e+01 2.008846e+01 2.145760e+01 2.021800e+01 1.328275e+01 -5.371397e-11 -1.328275e+01 -2.021800e+01 -2.145760e+01 -2.008846e+01 -1.810331e+01 -1.585545e+01 -1.307188e+01 -1.004457e+01 -7.011987e+00 -4.303585e+00 -2.144197e+00 -6.067255e-01 2.845825e-01 6.176898e-01 4.546229e-01 
-3.252349e-13 -1.714421e-01 -1.620964e-01 1.776440e-01 9.192959e-01 2.154298e+00 3.872404e+00 6.021436e+00 8.439177e+00 1.091152e+01 1.322847e+01 1.515667e+01 1.664034e+01 1.725202e+01 1.572656e+01 1.034849e+01 -3.222880e-11 -1.034849e+01 -1.572656e+01 -1.725202e+01 -1.664034e+01 -1.515667e+01 -1.322847e+01 -1.091152e+01 -8.439177e+00 -6.021436e+00 -3.872404e+00 -2.154298e+00 -9.192959e-01 -1.776440e-01 1.620964e-01 1.714421e-01 
-1.121538e-13 -4.513814e-02 -1.966740e-03 2.105455e-01 6.389088e-01 1.338281e+00 2.306812e+00 3.519916e+00 4.901828e+00 6.333443e+00 7.679952e+00 8.764512e+00 9.475225e+00 9.587407e+00 8.559602e+00 5.618666e+00 -1.699944e-11 -5.618666e+00 -8.559602e+00 -9.587407e+00 -9.475225e+00 -8.764512e+00 -7.679952e+00 -6.333443e+00 -4.901828e+00 -3.519916e+00 -2.306812e+00 -1.338281e+00 -6.389088e-01 -2.105455e-01 1.966740e-03 4.513814e-02 
