# vtk DataFile Version 2.0
Comment goes here
ASCII

DATASET STRUCTURED_POINTS
FIELD FieldData 1
TIME 1 1 double
0.76000000
DIMENSIONS    32   32   1

ORIGIN    0.000   0.000   0.000
SPACING   0.03125 0.03125   1.000

POINT_DATA   1024
SCALARS Omega double
LOOKUP_TABLE default

-1.206793e-14 -1.956637e-14 -4.477254e-14 -7.161975e-14 -8.844614e-14 -1.220741e-13 -1.798987e-13 -2.422786e-13 -3.026743e-13 -2.140634e-13 -8.979089e-14 -4.714003e-14 -8.581999e-14 -2.184527e-13 -5.204670e-13 -8.660405e-13 -8.790384e-13 -3.887558e-13 -8.961154e-14 4.910187e-14 1.201912e-13 9.397854e-14 7.700016e-15 -1.508908e-13 -2.223164e-13 -2.009652e-13 -1.828942e-13 -9.725757e-14 -9.420033e-14 -5.196444e-14 -5.533446e-14 -2.839462e-14 
-1.587022e-14 2.830292e-02 3.581678e-02 -6.441765e-04 -1.317122e-01 -4.369495e-01 -1.067686e+00 -2.126982e+00 -3.651108e+00 -5.475324e+00 -7.335076e+00 -9.041612e+00 -1.050699e+01 -1.178167e+01 -1.227263e+01 -9.077850e+00 -6.865603e-13 9.077850e+00 1.227263e+01 1.178167e+01 1.050699e+01 9.041612e+00 7.335076e+00 5.475324e+00 3.651108e+00 2.126982e+00 1.067686e+00 4.369495e-01 1.317122e-01 6.441765e-04 -3.581678e-02 -2.830292e-02 
-3.113389e-14 8.303315e-02 1.187683e-01 6.862348e-02 -1.386131e-01 -6.158981e-01 -1.612359e+00 -3.313119e+00 -5.827755e+00 -8.952183e+00 -1.228840e+01 -1.560384e+01 -1.870912e+01 -2.168380e+01 -2.303624e+01 -1.681033e+01 -6.232338e-13 1.681033e+01 2.303624e+01 2.168380e+01 1.870912e+01 1.560384e+01 1.228840e+01 8.952183e+00 5.827755e+00 3.313119e+00 1.612359e+00 6.158981e-01 1.386131e-01 -6.862348e-02 -1.187683e-01 -8.303315e-02 
-3.248908e-14 2.032798e-01 3.093556e-01 2.654736e-01 2.580358e-02 -5.008533e-01 -1.580682e+00 -3.446202e+00 -6.271448e+00 -9.917840e+00 -1.391677e+01 -1.812857e+01 -2.235324e+01 -2.697056e+01 -2.930768e+01 -2.046646e+01 6.933920e-14 2.046646e+01 2.930768e+01 2.697056e+01 2.235324e+01 1.812857e+01 1.391677e+01 9.917840e+00 6.271448e+00 3.446202e+00 1.580682e+00 5.008533e-01 -2.580358e-02 -2.654736e-01 -3.093556e-01 -2.032798e-01 
-9.777792e-14 4.556184e-01 7.109991e-01 6.879622e-01 4.187985e-01 -1.005196e-01 -1.077615e+00 -2.727842e+00 -5.243591e+00 -8.574975e+00 -1.221313e+01 -1.638782e+01 -2.120872e+01 -2.739787e+01 -3.004470e+01 -1.862960e+01 1.100235e-12 1.862960e+01 3.004470e+01 2.739787e+01 2.120872e+01 1.638782e+01 1.221313e+01 8.574975e+00 5.243591e+00 2.727842e+00 1.077615e+00 1.005196e-01 -4.187985e-01 -6.879622e-01 -7.109991e-01 -4.556184e-01 
-1.966959e-13 9.453494e-01 1.493766e+00 1.498247e+00 1.133265e+00 5.373708e-01 -3.631456e-01 -1.731486e+00 -3.736861e+00 -6.441251e+00 -9.154005e+00 -1.292739e+01 -1.873527e+01 -2.571592e+01 -2.650733e+01 -1.238851e+01 7.982599e-13 1.238851e+01 2.650733e+01 2.571592e+01 1.873527e+01 1.292739e+01 9.154005e+00 6.441251e+00 3.736861e+00 1.731486e+00 3.631456e-01 -5.373708e-01 -1.133265e+00 -1.498247e+00 -1.493766e+00 -9.453494e-01 
-3.455323e-13 1.755985e+00 2.812076e+00 2.876117e+00 2.329019e+00 1.509542e+00 5.323833e-01 -6.268406e-01 -2.000896e+00 -3.952550e+00 -7.711859e+00 -1.493325e+01 -2.649459e+01 -3.187500e+01 -2.671938e+01 -6.927454e+00 -3.254004e-12 6.927454e+00 2.671938e+01 3.187500e+01 2.649459e+01 1.493325e+01 7.711859e+00 3.952550e+00 2.000896e+00 6.268406e-01 -5.323833e-01 -1.509542e+00 -2.329019e+00 -2.876117e+00 -2.812076e+00 -1.755985e+00 
-5.688977e-13 2.955829e+00 4.802535e+00 4.995998e+00 4.174668e+00 2.911658e+00 1.610997e+00 4.557732e-01 -9.603586e-01 -5.741614e+00 -2.443807e+01 -3.995142e+01 -4.289366e+01 -1.482777e+01 9.724797e+00 1.423511e+01 -8.140330e-12 -1.423511e+01 -9.724797e+00 1.482777e+01 4.289366e+01 3.995142e+01 2.443807e+01 5.741614e+00 9.603586e-01 -4.557732e-01 -1.610997e+00 -2.911658e+00 -4.174668e+00 -4.995998e+00 -4.802535e+00 -2.955829e+00 
-7.556065e-13 4.486870e+00 7.376142e+00 7.801558e+00 6.700563e+00 4.852651e+00 3.062521e+00 1.622391e+00 -4.121826e+00 -2.686406e+01 -5.778071e+01 -3.283352e+01 1.107469e+01 2.645737e+01 1.961687e+01 3.934518e+00 -3.011551e-12 -3.934518e+00 -1.961687e+01 -2.645737e+01 -1.107469e+01 3.283352e+01 5.778071e+01 2.686406e+01 4.121826e+00 -1.622391e+00 -3.062521e+00 -4.852651e+00 -6.700563e+00 -7.801558e+00 -7.376142e+00 -4.486870e+00 
-8.610818e-13 6.325658e+00 1.043593e+01 1.119027e+01 9.840890e+00 7.186164e+00 3.733980e+00 -1.693803e+00 -1.272099e+01 -4.484830e+01 -3.760084e+01 -2.359163e+00 6.336022e+00 -2.725866e+01 -3.823914e+01 -2.234260e+01 5.281371e-12 2.234260e+01 3.823914e+01 2.725866e+01 -6.336022e+00 2.359163e+00 3.760084e+01 4.484830e+01 1.272099e+01 1.693803e+00 -3.733980e+00 -7.186164e+00 -9.840890e+00 -1.119027e+01 -1.043593e+01 -6.325658e+00 
-8.321127e-13 8.351449e+00 1.371876e+01 1.489956e+01 1.343663e+01 1.013995e+01 5.118268e+00 4.160123e-01 -2.198752e+01 -5.469762e+01 -2.027365e+01 -1.701776e+01 -2.628671e+01 -2.538290e+01 -8.831737e+00 3.508053e+00 3.423774e-12 -3.508053e+00 8.831737e+00 2.538290e+01 2.628671e+01 1.701776e+01 2.027365e+01 5.469762e+01 2.198752e+01 -4.160123e-01 -5.118268e+00 -1.013995e+01 -1.343663e+01 -1.489956e+01 -1.371876e+01 -8.351449e+00 
-6.532311e-13 1.037795e+01 1.696968e+01 1.882277e+01 1.767838e+01 1.414092e+01 1.184613e+01 1.302332e+01 -6.268180e+01 -6.274146e+01 -1.634626e+01 -7.378351e+00 1.650101e+01 2.865664e+01 3.021942e+01 1.950800e+01 2.071687e-13 -1.950800e+01 -3.021942e+01 -2.865664e+01 -1.650101e+01 7.378351e+00 1.634626e+01 6.274146e+01 6.268180e+01 -1.302332e+01 -1.184613e+01 -1.414092e+01 -1.767838e+01 -1.882277e+01 -1.696968e+01 -1.037795e+01 
-3.233298e-13 1.195377e+01 1.965156e+01 2.317593e+01 2.282627e+01 1.667224e+01 2.880073e+01 -5.414601e+00 -1.003059e+02 -3.068596e+01 8.472615e+00 1.053102e+01 1.378999e+01 9.106896e+00 9.260482e+00 7.594056e+00 4.704154e-14 -7.594056e+00 -9.260482e+00 -9.106896e+00 -1.378999e+01 -1.053102e+01 -8.472615e+00 3.068596e+01 1.003059e+02 5.414601e+00 -2.880073e+01 -1.667224e+01 -2.282627e+01 -2.317593e+01 -1.965156e+01 -1.195377e+01 
1.643878e-13 1.229628e+01 2.065820e+01 2.658376e+01 2.986929e+01 3.467834e+01 5.552758e+01 -7.008662e+01 -8.051418e+01 2.247499e+01 7.287560e+00 -4.761753e+00 -3.834756e+00 -4.217201e-03 2.925119e+00 3.180648e+00 -3.461554e-14 -3.180648e+00 -2.925119e+00 4.217201e-03 3.834756e+00 4.761753e+00 -7.287560e+00 -2.247499e+01 8.051418e+01 7.008662e+01 -5.552758e+01 -3.467834e+01 -2.986929e+01 -2.658376e+01 -2.065820e+01 -1.229628e+01 
7.132805e-13 1.051895e+01 1.828870e+01 2.525810e+01 3.548195e+01 5.570149e+01 3.007061e+01 -9.578635e+01 -1.862760e+01 3.538710e+01 -4.226002e+00 -1.115357e+01 -7.741487e+00 -2.741294e+00 3.076075e-01 1.078372e+00 -4.329957e-14 -1.078372e+00 -3.076075e-01 2.741294e+00 7.741487e+00 1.115357e+01 4.226002e+00 -3.538710e+01 1.862760e+01 9.578635e+01 -3.007061e+01 -5.570149e+01 -3.548195e+01 -2.525810e+01 -1.828870e+01 -1.051895e+01 
1.118905e-12 6.603207e+00 1.202183e+01 1.864219e+01 3.122151e+01 4.994358e+01 -6.039705e+00 -5.160878e+01 6.012634e+00 9.709187e+00 -1.115802e+01 -1.032647e+01 -6.930202e+00 -3.124177e+00 -6.823631e-01 1.707824e-01 -3.402187e-14 -1.707824e-01 6.823631e-01 3.124177e+00 6.930202e+00 1.032647e+01 1.115802e+01 -9.709187e+00 -6.012634e+00 5.160878e+01 6.039705e+00 -4.994358e+01 -3.122151e+01 -1.864219e+01 -1.202183e+01 -6.603207e+00 
9.071375e-13 3.437885e-13 -4.137436e-13 -1.296563e-12 -2.104215e-12 -1.475463e-12 1.238600e-12 9.758825e-13 -1.880927e-12 -2.359796e-12 -1.406058e-12 -3.412629e-13 4.673699e-14 -4.743488e-14 -3.593969e-16 -8.679704e-14 -2.620265e-14 -3.194772e-14 1.087424e-13 2.945929e-13 9.874873e-13 1.559587e-12 4.337164e-13 -2.482108e-12 -5.517596e-12 -1.295371e-12 -1.759398e-12 -2.041977e-12 -3.426998e-15 7.714489e-13 1.171897e-12 1.172270e-12 
3.585403e-13 -6.603207e+00 -1.202183e+01 -1.864219e+01 -3.122151e+01 -4.994358e+01 6.039705e+00 5.160878e+01 -6.012634e+00 -9.709187e+00 1.115802e+01 1.032647e+01 6.930202e+00 3.124177e+00 6.823631e-01 -1.707824e-01 -7.626887e-15 1.707824e-01 -6.823631e-01 -3.124177e+00 -6.930202e+00 -1.032647e+01 -1.115802e+01 9.709187e+00 6.012634e+00 -5.160878e+01 -6.039705e+00 4.994358e+01 3.122151e+01 1.864219e+01 1.202183e+01 6.603207e+00 
-1.607506e-13 -1.051895e+01 -1.828870e+01 -2.525810e+01 -3.548195e+01 -5.570149e+01 -3.007061e+01 9.578635e+01 1.862760e+01 -3.538710e+01 4.226002e+00 1.115357e+01 7.741487e+00 2.741294e+00 -3.076075e-01 -1.078372e+00 -1.812391e-14 1.078372e+00 3.076075e-01 -2.741294e+00 -7.741487e+00 -1.115357e+01 -4.226002e+00 3.538710e+01 -1.862760e+01 -9.578635e+01 3.007061e+01 5.570149e+01 3.548195e+01 2.525810e+01 1.828870e+01 1.051895e+01 
-7.848906e-13 -1.229628e+01 -2.065820e+01 -2.658376e+01 -2.986929e+01 -3.467834e+01 -5.552758e+01 7.008662e+01 8.051418e+01 -2.247499e+01 -7.287560e+00 4.761753e+00 3.834756e+00 4.217201e-03 -2.925119e+00 -3.180648e+00 -2.683397e-15 3.180648e+00 2.925119e+00 -4.217201e-03 -3.834756e+00 -4.761753e+00 7.287560e+00 2.247499e+01 -8.051418e+01 -7.008662e+01 5.552758e+01 3.467834e+01 2.986929e+01 2.658376e+01 2.065820e+01 1.229628e+01 
-1.218971e-12 -1.195377e+01 -1.965156e+01 -2.317593e+01 -2.282627e+01 -1.667224e+01 -2.880073e+01 5.414601e+00 1.003059e+02 3.068596e+01 -8.472615e+00 -1.053102e+01 -1.378999e+01 -9.106896e+00 -9.260482e+00 -7.594056e+00 -2.972921e-13 7.594056e+00 9.260482e+00 9.106896e+00 1.378999e+01 1.053102e+01 8.472615e+00 -3.068596e+01 -1.003059e+02 -5.414601e+00 2.880073e+01 1.667224e+01 2.282627e+01 2.317593e+01 1.965156e+01 1.195377e+01 
-1.323984e-12 -1.037795e+01 -1.696968e+01 -1.882277e+01 -1.767838e+01 -1.414092e+01 -1.184613e+01 -1.302332e+01 6.268180e+01 6.274146e+01 1.634626e+01 7.378351e+00 -1.650101e+01 -2.865664e+01 -3.021942e+01 -1.950800e+01 1.069829e-12 1.950800e+01 3.021942e+01 2.865664e+01 1.650101e+01 -7.378351e+00 -1.634626e+01 -6.274146e+01 -6.268180e+01 1.302332e+01 1.184613e+01 1.414092e+01 1.767838e+01 1.882277e+01 1.696968e+01 1.037795e+01 
-1.288642e-12 -8.351449e+00 -1.371876e+01 -1.489956e+01 -1.343663e+01 -1.013995e+01 -5.118268e+00 -4.160123e-01 2.198752e+01 5.469762e+01 2.027365e+01 1.701776e+01 2.628671e+01 2.538290e+01 8.831737e+00 -3.508053e+00 -2.900421e-12 3.508053e+00 -8.831737e+00 -2.538290e+01 -2.628671e+01 -1.701776e+01 -2.027365e+01 -5.469762e+01 -2.198752e+01 4.160123e-01 5.118268e+00 1.013995e+01 1.343663e+01 1.489956e+01 1.371876e+01 8.351449e+00 
-1.118310e-12 -6.325658e+00 -1.043593e+01 -1.119027e+01 -9.840890e+00 -7.186164e+00 -3.733980e+00 1.693803e+00 1.272099e+01 4.484830e+01 3.760084e+01 2.359163e+00 -6.336022e+00 2.725866e+01 3.823914e+01 2.234260e+01 -1.000663e-11 -2.234260e+01 -3.823914e+01 -2.725866e+01 6.336022e+00 -2.359163e+00 -3.760084e+01 -4.484830e+01 -1.272099e+01 -1.693803e+00 3.733980e+00 7.186164e+00 9.840890e+00 1.119027e+01 1.043593e+01 6.325658e+00 
-8.652740e-13 -4.486870e+00 -7.376142e+00 -7.801558e+00 -6.700563e+00 -4.852651e+00 -3.062521e+00 -1.622391e+00 4.121826e+00 2.686406e+01 5.778071e+01 3.283352e+01 -1.107469e+01 -2.645737e+01 -1.961687e+01 -3.934518e+00 -2.539880e-12 3.934518e+00 1.961687e+01 2.645737e+01 1.107469e+01 -3.283352e+01 -5.778071e+01 -2.686406e+01 -4.121826e+00 1.622391e+00 3.062521e+00 4.852651e+00 6.700563e+00 7.801558e+00 7.376142e+00 4.486870e+00 
-6.220693e-13 -2.955829e+00 -4.802535e+00 -4.995998e+00 -4.174668e+00 -2.911658e+00 -1.610997e+00 -4.557732e-01 9.603586e-01 5.741614e+00 2.443807e+01 3.995142e+01 4.289366e+01 1.482777e+01 -9.724797e+00 -1.423511e+01 3.654904e-12 1.423511e+01 9.724797e+00 -1.482777e+01 -4.289366e+01 -3.995142e+01 -2.443807e+01 -5.741614e+00 -9.603586e-01 4.557732e-01 1.610997e+00 2.911658e+00 4.174668e+00 4.995998e+00 4.802535e+00 2.955829e+00 
-3.544657e-13 -1.755985e+00 -2.812076e+00 -2.876117e+00 -2.329019e+00 -1.509542e+00 -5.323833e-01 6.268406e-01 2.000896e+00 3.952550e+00 7.711859e+00 1.493325e+01 2.649459e+01 3.187500e+01 2.671938e+01 6.927454e+00 1.768523e-12 -6.927454e+00 -2.671938e+01 -3.187500e+01 -2.649459e+01 -1.493325e+01 -7.711859e+00 -3.952550e+00 -2.000896e+00 -6.268406e-01 5.323833e-01 1.509542e+00 2.329019e+00 2.876117e+00 2.812076e+00 1.755985e+00 
-2.055682e-13 -9.453494e-01 -1.493766e+00 -1.498247e+00 -1.133265e+00 -5.373708e-01 3.631456e-01 1.731486e+00 3.736861e+00 6.441251e+00 9.154005e+00 1.292739e+01 1.873527e+01 2.571592e+01 2.650733e+01 1.238851e+01 5.721799e-13 -1.238851e+01 -2.650733e+01 -2.571592e+01 -1.873527e+01 -1.292739e+01 -9.154005e+00 -6.441251e+00 -3.736861e+00 -1.731486e+00 -3.631456e-01 5.373708e-01 1.133265e+00 1.498247e+00 1.493766e+00 9.453494e-01 
-8.230645e-14 -4.556184e-01 -7.109991e-01 -6.879622e-01 -4.187985e-01 1.005196e-01 1.077615e+00 2.727842e+00 5.243591e+00 8.574975e+00 1.221313e+01 1.638782e+01 2.120872e+01 2.739787e+01 3.004470e+01 1.862960e+01 5.146618e-13 -1.862960e+01 -3.004470e+01 -2.739787e+01 -2.120872e+01 -1.638782e+01 -1.221313e+01 -8.574975e+00 -5.243591e+00 -2.727842e+00 -1.077615e+00 -1.005196e-01 4.187985e-01 6.879622e-01 7.109991e-01 4.556184e-01 
-4.421133e-14 -2.032798e-01 -3.093556e-01 -2.654736e-01 -2.580358e-02 5.008533e-01 1.580682e+00 3.446202e+00 6.271448e+00 9.917840e+00 1.391677e+01 1.812857e+01 2.235324e+01 2.697056e+01 2.930768e+01 2.046646e+01 -5.310063e-13 -2.046646e+01 -2.930768e+01 -2.697056e+01 -2.235324e+01 -1.812857e+01 -1.391677e+01 -9.917840e+00 -6.271448e+00 -3.446202e+00 -1.580682e+00 -5.008533e-01 2.580358e-02 2.654736e-01 3.093556e-01 2.032798e-01 
-3.217501e-14 -8.303315e-02 -1.187683e-01 -6.862348e-02 1.386131e-01 6.158981e-01 1.612359e+00 3.313119e+00 5.827755e+00 8.952183e+00 1.228840e+01 1.560384e+01 1.870912e+01 2.168380e+01 2.303624e+01 1.681033e+01 -1.406003e-12 -1.681033e+01 -2.303624e+01 -2.168380e+01 -1.870912e+01 -1.560384e+01 -1.228840e+01 -8.952183e+00 -5.827755e+00 -3.313119e+00 -1.612359e+00 -6.158981e-01 -1.386131e-01 6.862348e-02 1.187683e-01 8.303315e-02 
-1.424947e-14 -2.830292e-02 -3.581678e-02 6.441765e-04 1.317122e-01 4.369495e-01 1.067686e+00 2.126982e+00 3.651108e+00 5.475324e+00 7.335076e+00 9.041612e+00 1.050699e+01 1.178167e+01 1.227263e+01 9.077850e+00 -1.355148e-12 -9.077850e+00 -1.227263e+01 -1.178167e+01 -1.050699e+01 -9.041612e+00 -7.335076e+00 -5.475324e+00 -3.651108e+00 -2.126982e+00 -1.067686e+00 -4.369495e-01 -1.317122e-01 -6.441765e-04 3.581678e-02 2.830292e-02 
