# vtk DataFile Version 2.0
Comment goes here
ASCII

DATASET STRUCTURED_POINTS
FIELD FieldData 1
TIME 1 1 double
0.06000000
DIMENSIONS    32   32   1

ORIGIN    0.000   0.000   0.000
SPACING   0.03125 0.03125   1.000

POINT_DATA   1024
SCALARS Omega double
LOOKUP_TABLE default

-8.274785e-14 -8.536969e-14 -7.751997e-14 -6.291748e-14 -3.311986e-14 -2.443753e-14 -1.144991e-13 -4.947091e-14 -6.100423e-14 -5.222393e-14 4.931879e-14 4.835361e-14 3.618958e-14 3.910796e-14 8.068200e-14 5.370586e-14 4.474570e-14 1.092423e-13 1.186344e-13 9.888837e-14 1.594398e-14 -2.669973e-15 1.482306e-14 3.317716e-14 3.741246e-14 -3.575379e-14 -5.002695e-14 -4.132619e-14 -4.695811e-14 -7.932888e-14 -8.216730e-14 -7.581991e-14 
-7.554438e-14 -1.797696e-03 -1.771068e-03 -5.894784e-03 -3.464752e-03 -7.462420e-03 -1.120655e-02 -8.182316e-03 -1.747914e-02 6.486177e-03 -7.577153e-02 -2.188550e-02 -2.923799e-01 -2.957714e-02 4.080459e+00 3.103428e+00 1.936294e-14 -3.103428e+00 -4.080459e+00 2.957714e-02 2.923799e-01 2.188550e-02 7.577153e-02 -6.486177e-03 1.747914e-02 8.182316e-03 1.120655e-02 7.462420e-03 3.464752e-03 5.894784e-03 1.771068e-03 1.797696e-03 
-6.117340e-14 -3.559824e-03 -4.253013e-03 -1.327356e-02 -6.909437e-03 -2.157063e-02 -3.057375e-02 -2.260236e-02 -3.778173e-03 -3.346314e-02 -4.775883e-02 -4.186669e-01 -6.852577e-01 2.884969e+00 -2.743188e-01 -1.394285e+01 2.765705e-13 1.394285e+01 2.743188e-01 -2.884969e+00 6.852577e-01 4.186669e-01 4.775883e-02 3.346314e-02 3.778173e-03 2.260236e-02 3.057375e-02 2.157063e-02 6.909437e-03 1.327356e-02 4.253013e-03 3.559824e-03 
-8.686940e-14 -4.784588e-03 -6.367203e-03 -2.048205e-02 -3.016543e-03 -3.943516e-02 -6.881545e-02 4.882823e-02 5.567653e-02 -1.176255e-01 -3.953383e-01 -1.407331e+00 2.651072e+00 4.767567e+00 -1.799318e+01 -3.246518e+01 1.530676e-13 3.246518e+01 1.799318e+01 -4.767567e+00 -2.651072e+00 1.407331e+00 3.953383e-01 1.176255e-01 -5.567653e-02 -4.882823e-02 6.881545e-02 3.943516e-02 3.016543e-03 2.048205e-02 6.367203e-03 4.784588e-03 
-7.635988e-14 -5.265973e-03 -1.112127e-02 -2.759536e-02 -2.005257e-04 -7.865175e-02 -1.802433e-01 3.921443e-01 3.257746e-02 -6.644426e-01 -7.675245e-01 1.762760e+00 7.636533e+00 1.820128e+00 -1.773550e+01 -1.543307e+01 5.335401e-14 1.543307e+01 1.773550e+01 -1.820128e+00 -7.636533e+00 -1.762760e+00 7.675245e-01 6.644426e-01 -3.257746e-02 -3.921443e-01 1.802433e-01 7.865175e-02 2.005257e-04 2.759536e-02 1.112127e-02 5.265973e-03 
-3.149514e-14 -5.216715e-03 -1.843473e-02 -2.877480e-02 -7.804632e-03 -1.148109e-01 -1.617865e-01 1.101844e+00 -2.273141e-01 2.879592e-01 4.978299e+00 1.477765e+01 1.891686e+01 3.219027e+00 -2.360879e+00 6.986698e+00 2.290886e-13 -6.986698e+00 2.360879e+00 -3.219027e+00 -1.891686e+01 -1.477765e+01 -4.978299e+00 -2.879592e-01 2.273141e-01 -1.101844e+00 1.617865e-01 1.148109e-01 7.804632e-03 2.877480e-02 1.843473e-02 5.216715e-03 
3.006988e-14 -3.981169e-03 -2.834381e-02 -1.193193e-02 -6.274789e-02 -4.838764e-02 5.102099e-01 1.000462e+00 3.125589e+00 1.138784e+01 2.754550e+01 3.561587e+01 1.683324e+01 -1.817265e+00 8.477381e+00 1.562312e+01 1.563262e-13 -1.562312e+01 -8.477381e+00 1.817265e+00 -1.683324e+01 -3.561587e+01 -2.754550e+01 -1.138784e+01 -3.125589e+00 -1.000462e+00 -5.102099e-01 4.838764e-02 6.274789e-02 1.193193e-02 2.834381e-02 3.981169e-03 
-5.105503e-15 -4.240566e-03 -3.920504e-02 4.943032e-03 -1.024208e-01 3.426640e-01 2.217433e+00 4.885448e+00 2.094424e+01 3.543744e+01 3.538587e+01 8.808649e+00 -2.052274e+01 -6.622217e+00 1.384061e+01 1.245291e+01 1.020877e-12 -1.245291e+01 -1.384061e+01 6.622217e+00 2.052274e+01 -8.808649e+00 -3.538587e+01 -3.543744e+01 -2.094424e+01 -4.885448e+00 -2.217433e+00 -3.426640e-01 1.024208e-01 -4.943032e-03 3.920504e-02 4.240566e-03 
3.740458e-14 -6.581118e-03 -3.185386e-02 2.865374e-02 1.850025e-01 1.939764e+00 9.909184e+00 2.570542e+01 4.162773e+01 3.421123e+01 8.873896e+00 -2.110892e+01 -1.056580e+01 2.270252e+01 1.460254e+01 -3.585924e+00 -8.154861e-13 3.585924e+00 -1.460254e+01 -2.270252e+01 1.056580e+01 2.110892e+01 -8.873896e+00 -3.421123e+01 -4.162773e+01 -2.570542e+01 -9.909184e+00 -1.939764e+00 -1.850025e-01 -2.865374e-02 3.185386e-02 6.581118e-03 
6.709514e-14 -7.637685e-03 6.034750e-03 1.592867e-01 1.188706e+00 1.084801e+01 3.787934e+01 6.898399e+01 7.850990e+01 5.592928e+01 2.620697e+01 3.071978e+01 4.272312e+01 2.781716e+01 1.073872e+01 1.421855e+00 -3.341611e-12 -1.421855e+00 -1.073872e+01 -2.781716e+01 -4.272312e+01 -3.071978e+01 -2.620697e+01 -5.592928e+01 -7.850990e+01 -6.898399e+01 -3.787934e+01 -1.084801e+01 -1.188706e+00 -1.592867e-01 -6.034750e-03 7.637685e-03 
6.140082e-14 2.417468e-04 1.273581e-01 6.887826e-01 7.244494e+00 4.658245e+01 1.044889e+02 1.252239e+02 8.494103e+01 5.394302e+01 7.128589e+01 7.965994e+01 4.182075e+01 1.594120e+01 2.273802e+01 2.250211e+01 -1.500077e-12 -2.250211e+01 -2.273802e+01 -1.594120e+01 -4.182075e+01 -7.965994e+01 -7.128589e+01 -5.394302e+01 -8.494103e+01 -1.252239e+02 -1.044889e+02 -4.658245e+01 -7.244494e+00 -6.887826e-01 -1.273581e-01 -2.417468e-04 
1.212754e-13 2.744814e-02 3.641456e-01 3.304775e+00 3.323823e+01 1.101111e+02 1.343384e+02 7.443056e+01 2.165506e+01 3.113474e+01 5.700302e+01 3.883112e+01 3.197978e+01 3.474243e+01 2.039002e+01 1.628125e+01 -1.470701e-13 -1.628125e+01 -2.039002e+01 -3.474243e+01 -3.197978e+01 -3.883112e+01 -5.700302e+01 -3.113474e+01 -2.165506e+01 -7.443056e+01 -1.343384e+02 -1.101111e+02 -3.323823e+01 -3.304775e+00 -3.641456e-01 -2.744814e-02 
1.117721e-13 8.203466e-02 1.011989e+00 1.189242e+01 7.183436e+01 1.187178e+02 7.394757e+01 7.874448e+00 4.326101e+00 1.262984e+01 -1.667302e+01 -1.779029e+01 3.329241e+01 3.044595e+01 2.522741e+00 3.363395e+00 -2.485919e-13 -3.363395e+00 -2.522741e+00 -3.044595e+01 -3.329241e+01 1.779029e+01 1.667302e+01 -1.262984e+01 -4.326101e+00 -7.874448e+00 -7.394757e+01 -1.187178e+02 -7.183436e+01 -1.189242e+01 -1.011989e+00 -8.203466e-02 
8.777201e-14 1.376889e-01 2.467672e+00 2.318944e+01 8.044996e+01 7.030038e+01 2.807696e+01 2.124719e+01 9.652410e+00 -2.941574e+01 -7.163087e+01 -3.177315e+01 2.506734e+01 1.173670e+01 -3.091225e+00 1.132097e+00 -1.651292e-13 -1.132097e+00 3.091225e+00 -1.173670e+01 -2.506734e+01 3.177315e+01 7.163087e+01 2.941574e+01 -9.652410e+00 -2.124719e+01 -2.807696e+01 -7.030038e+01 -8.044996e+01 -2.318944e+01 -2.467672e+00 -1.376889e-01 
5.817309e-14 2.173535e-01 3.399748e+00 2.703643e+01 5.824361e+01 3.507629e+01 1.605313e+01 2.562078e+01 6.236405e+00 -4.597885e+01 -7.719555e+01 -2.673152e+01 1.026684e+01 2.139155e+00 -1.751659e+00 5.226872e-01 -1.175124e-13 -5.226872e-01 1.751659e+00 -2.139155e+00 -1.026684e+01 2.673152e+01 7.719555e+01 4.597885e+01 -6.236405e+00 -2.562078e+01 -1.605313e+01 -3.507629e+01 -5.824361e+01 -2.703643e+01 -3.399748e+00 -2.173535e-01 
5.456126e-14 1.827121e-01 2.417195e+00 1.784370e+01 2.877542e+01 1.619736e+01 8.527360e+00 1.433035e+01 3.647887e+00 -3.342750e+01 -4.881120e+01 -1.526980e+01 1.967775e+00 -1.223808e-02 -4.106884e-01 1.874488e-01 -1.117061e-13 -1.874488e-01 4.106884e-01 1.223808e-02 -1.967775e+00 1.526980e+01 4.881120e+01 3.342750e+01 -3.647887e+00 -1.433035e+01 -8.527360e+00 -1.619736e+01 -2.877542e+01 -1.784370e+01 -2.417195e+00 -1.827121e-01 
9.335092e-14 1.190330e-13 4.932348e-13 2.514074e-12 4.142318e-12 -6.483958e-13 -4.764383e-12 -1.570774e-12 4.801028e-13 -4.613145e-13 -6.015245e-13 -3.465038e-13 -1.184750e-14 -8.430993e-14 -7.535832e-14 -8.387155e-14 -8.085855e-14 -7.827088e-14 -6.473181e-14 -8.763583e-14 -1.417275e-13 -7.912121e-14 1.517447e-13 4.530480e-13 3.194533e-13 -1.012841e-12 -1.671878e-12 1.339986e-13 1.769214e-12 1.156387e-12 1.465344e-13 7.472169e-14 
6.608616e-14 -1.827121e-01 -2.417195e+00 -1.784370e+01 -2.877542e+01 -1.619736e+01 -8.527360e+00 -1.433035e+01 -3.647887e+00 3.342750e+01 4.881120e+01 1.526980e+01 -1.967775e+00 1.223808e-02 4.106884e-01 -1.874488e-01 -3.512059e-14 1.874488e-01 -4.106884e-01 -1.223808e-02 1.967775e+00 -1.526980e+01 -4.881120e+01 -3.342750e+01 3.647887e+00 1.433035e+01 8.527360e+00 1.619736e+01 2.877542e+01 1.784370e+01 2.417195e+00 1.827121e-01 
2.701684e-14 -2.173535e-01 -3.399748e+00 -2.703643e+01 -5.824361e+01 -3.507629e+01 -1.605313e+01 -2.562078e+01 -6.236405e+00 4.597885e+01 7.719555e+01 2.673152e+01 -1.026684e+01 -2.139155e+00 1.751659e+00 -5.226872e-01 -2.791874e-14 5.226872e-01 -1.751659e+00 2.139155e+00 1.026684e+01 -2.673152e+01 -7.719555e+01 -4.597885e+01 6.236405e+00 2.562078e+01 1.605313e+01 3.507629e+01 5.824361e+01 2.703643e+01 3.399748e+00 2.173535e-01 
3.342302e-14 -1.376889e-01 -2.467672e+00 -2.318944e+01 -8.044996e+01 -7.030038e+01 -2.807696e+01 -2.124719e+01 -9.652410e+00 2.941574e+01 7.163087e+01 3.177315e+01 -2.506734e+01 -1.173670e+01 3.091225e+00 -1.132097e+00 2.797158e-14 1.132097e+00 -3.091225e+00 1.173670e+01 2.506734e+01 -3.177315e+01 -7.163087e+01 -2.941574e+01 9.652410e+00 2.124719e+01 2.807696e+01 7.030038e+01 8.044996e+01 2.318944e+01 2.467672e+00 1.376889e-01 
6.829032e-14 -8.203466e-02 -1.011989e+00 -1.189242e+01 -7.183436e+01 -1.187178e+02 -7.394757e+01 -7.874448e+00 -4.326101e+00 -1.262984e+01 1.667302e+01 1.779029e+01 -3.329241e+01 -3.044595e+01 -2.522741e+00 -3.363395e+00 1.237875e-13 3.363395e+00 2.522741e+00 3.044595e+01 3.329241e+01 -1.779029e+01 -1.667302e+01 1.262984e+01 4.326101e+00 7.874448e+00 7.394757e+01 1.187178e+02 7.183436e+01 1.189242e+01 1.011989e+00 8.203466e-02 
8.066942e-14 -2.744814e-02 -3.641456e-01 -3.304775e+00 -3.323823e+01 -1.101111e+02 -1.343384e+02 -7.443056e+01 -2.165506e+01 -3.113474e+01 -5.700302e+01 -3.883112e+01 -3.197978e+01 -3.474243e+01 -2.039002e+01 -1.628125e+01 4.521584e-13 1.628125e+01 2.039002e+01 3.474243e+01 3.197978e+01 3.883112e+01 5.700302e+01 3.113474e+01 2.165506e+01 7.443056e+01 1.343384e+02 1.101111e+02 3.323823e+01 3.304775e+00 3.641456e-01 2.744814e-02 
5.513041e-15 -2.417468e-04 -1.273581e-01 -6.887826e-01 -7.244494e+00 -4.658245e+01 -1.044889e+02 -1.252239e+02 -8.494103e+01 -5.394302e+01 -7.128589e+01 -7.965994e+01 -4.182075e+01 -1.594120e+01 -2.273802e+01 -2.250211e+01 2.899692e-12 2.250211e+01 2.273802e+01 1.594120e+01 4.182075e+01 7.965994e+01 7.128589e+01 5.394302e+01 8.494103e+01 1.252239e+02 1.044889e+02 4.658245e+01 7.244494e+00 6.887826e-01 1.273581e-01 2.417468e-04 
5.833798e-14 7.637685e-03 -6.034750e-03 -1.592867e-01 -1.188706e+00 -1.084801e+01 -3.787934e+01 -6.898399e+01 -7.850990e+01 -5.592928e+01 -2.620697e+01 -3.071978e+01 -4.272312e+01 -2.781716e+01 -1.073872e+01 -1.421855e+00 4.293502e-12 1.421855e+00 1.073872e+01 2.781716e+01 4.272312e+01 3.071978e+01 2.620697e+01 5.592928e+01 7.850990e+01 6.898399e+01 3.787934e+01 1.084801e+01 1.188706e+00 1.592867e-01 6.034750e-03 -7.637685e-03 
3.834826e-14 6.581118e-03 3.185386e-02 -2.865374e-02 -1.850025e-01 -1.939764e+00 -9.909184e+00 -2.570542e+01 -4.162773e+01 -3.421123e+01 -8.873896e+00 2.110892e+01 1.056580e+01 -2.270252e+01 -1.460254e+01 3.585924e+00 -2.296683e-15 -3.585924e+00 1.460254e+01 2.270252e+01 -1.056580e+01 -2.110892e+01 8.873896e+00 3.421123e+01 4.162773e+01 2.570542e+01 9.909184e+00 1.939764e+00 1.850025e-01 2.865374e-02 -3.185386e-02 -6.581118e-03 
-8.837996e-15 4.240566e-03 3.920504e-02 -4.943032e-03 1.024208e-01 -3.426640e-01 -2.217433e+00 -4.885448e+00 -2.094424e+01 -3.543744e+01 -3.538587e+01 -8.808649e+00 2.052274e+01 6.622217e+00 -1.384061e+01 -1.245291e+01 -1.483690e-12 1.245291e+01 1.384061e+01 -6.622217e+00 -2.052274e+01 8.808649e+00 3.538587e+01 3.543744e+01 2.094424e+01 4.885448e+00 2.217433e+00 3.426640e-01 -1.024208e-01 4.943032e-03 -3.920504e-02 -4.240566e-03 
-8.791772e-15 3.981169e-03 2.834381e-02 1.193193e-02 6.274789e-02 4.838764e-02 -5.102099e-01 -1.000462e+00 -3.125589e+00 -1.138784e+01 -2.754550e+01 -3.561587e+01 -1.683324e+01 1.817265e+00 -8.477381e+00 -1.562312e+01 6.500219e-13 1.562312e+01 8.477381e+00 -1.817265e+00 1.683324e+01 3.561587e+01 2.754550e+01 1.138784e+01 3.125589e+00 1.000462e+00 5.102099e-01 -4.838764e-02 -6.274789e-02 -1.193193e-02 -2.834381e-02 -3.981169e-03 
-2.908481e-14 5.216715e-03 1.843473e-02 2.877480e-02 7.804632e-03 1.148109e-01 1.617865e-01 -1.101844e+00 2.273141e-01 -2.879592e-01 -4.978299e+00 -1.477765e+01 -1.891686e+01 -3.219027e+00 2.360879e+00 -6.986698e+00 7.493288e-13 6.986698e+00 -2.360879e+00 3.219027e+00 1.891686e+01 1.477765e+01 4.978299e+00 2.879592e-01 -2.273141e-01 1.101844e+00 -1.617865e-01 -1.148109e-01 -7.804632e-03 -2.877480e-02 -1.843473e-02 -5.216715e-03 
-7.992640e-14 5.265973e-03 1.112127e-02 2.759536e-02 2.005257e-04 7.865175e-02 1.802433e-01 -3.921443e-01 -3.257746e-02 6.644426e-01 7.675245e-01 -1.762760e+00 -7.636533e+00 -1.820128e+00 1.773550e+01 1.543307e+01 6.319786e-13 -1.543307e+01 -1.773550e+01 1.820128e+00 7.636533e+00 1.762760e+00 -7.675245e-01 -6.644426e-01 3.257746e-02 3.921443e-01 -1.802433e-01 -7.865175e-02 -2.005257e-04 -2.759536e-02 -1.112127e-02 -5.265973e-03 
-7.226006e-14 4.784588e-03 6.367203e-03 2.048205e-02 3.016543e-03 3.943516e-02 6.881545e-02 -4.882823e-02 -5.567653e-02 1.176255e-01 3.953383e-01 1.407331e+00 -2.651072e+00 -4.767567e+00 1.799318e+01 3.246518e+01 5.192852e-15 -3.246518e+01 -1.799318e+01 4.767567e+00 2.651072e+00 -1.407331e+00 -3.953383e-01 -1.176255e-01 5.567653e-02 4.882823e-02 -6.881545e-02 -3.943516e-02 -3.016543e-03 -2.048205e-02 -6.367203e-03 -4.784588e-03 
-7.058799e-14 3.559824e-03 4.253013e-03 1.327356e-02 6.909437e-03 2.157063e-02 3.057375e-02 2.260236e-02 3.778173e-03 3.346314e-02 4.775883e-02 4.186669e-01 6.852577e-01 -2.884969e+00 2.743188e-01 1.394285e+01 -2.293015e-13 -1.394285e+01 -2.743188e-01 2.884969e+00 -6.852577e-01 -4.186669e-01 -4.775883e-02 -3.346314e-02 -3.778173e-03 -2.260236e-02 -3.057375e-02 -2.157063e-02 -6.909437e-03 -1.327356e-02 -4.253013e-03 -3.559824e-03 
-8.238738e-14 1.797696e-03 1.771068e-03 5.894784e-03 3.464752e-03 7.462420e-03 1.120655e-02 8.182316e-03 1.747914e-02 -6.486177e-03 7.577153e-02 2.188550e-02 2.923799e-01 2.957714e-02 -4.080459e+00 -3.103428e+00 6.483742e-14 3.103428e+00 4.080459e+00 -2.957714e-02 -2.923799e-01 -2.188550e-02 -7.577153e-02 6.486177e-03 -1.747914e-02 -8.182316e-03 -1.120655e-02 -7.462420e-03 -3.464752e-03 -5.894784e-03 -1.771068e-03 -1.797696e-03 
