# vtk DataFile Version 2.0
Comment goes here
ASCII

DATASET STRUCTURED_POINTS
FIELD FieldData 1
TIME 1 1 double
0.22000000
DIMENSIONS    32   32   1

ORIGIN    0.000   0.000   0.000
SPACING   0.03125 0.03125   1.000

POINT_DATA   1024
SCALARS Omega double
LOOKUP_TABLE default

-7.503864e-14 -6.699269e-14 -6.261711e-14 -5.073392e-14 -2.769092e-14 -4.447747e-14 -1.966052e-14 -4.015422e-15 -4.458964e-14 -9.541771e-15 -4.171105e-14 -2.525055e-14 1.987679e-14 -1.407533e-13 -4.190667e-13 9.746764e-16 7.796629e-13 1.777651e-13 -2.209633e-13 -7.938470e-14 1.231869e-14 5.477928e-15 3.927285e-14 1.894613e-14 5.945433e-14 2.555309e-14 3.838735e-15 -8.143633e-15 -5.502454e-15 -3.021351e-14 -4.286008e-14 -6.097658e-14 
-9.747865e-14 -1.305337e-03 -1.459940e-03 -2.835793e-03 7.769194e-04 4.325272e-03 1.456561e-02 3.306607e-02 4.034093e-02 3.771228e-02 -3.072554e-02 -4.007446e-01 -9.886694e-01 -2.621850e+00 -6.210102e+00 -1.029623e+01 5.856618e-13 1.029623e+01 6.210102e+00 2.621850e+00 9.886694e-01 4.007446e-01 3.072554e-02 -3.771228e-02 -4.034093e-02 -3.306607e-02 -1.456561e-02 -4.325272e-03 -7.769194e-04 2.835793e-03 1.459940e-03 1.305337e-03 
-8.897118e-14 -2.246691e-03 -2.308078e-03 -2.476467e-03 9.842780e-03 2.682242e-02 6.910567e-02 1.386049e-01 1.522174e-01 1.911218e-01 8.604184e-02 -7.390584e-01 -2.667291e+00 -6.980802e+00 -1.582037e+01 -2.944857e+01 8.148161e-13 2.944857e+01 1.582037e+01 6.980802e+00 2.667291e+00 7.390584e-01 -8.604184e-02 -1.911218e-01 -1.522174e-01 -1.386049e-01 -6.910567e-02 -2.682242e-02 -9.842780e-03 2.476467e-03 2.308078e-03 2.246691e-03 
-6.264210e-14 -2.073686e-03 7.749278e-04 8.613708e-03 4.965618e-02 1.058685e-01 2.456359e-01 4.435932e-01 3.592273e-01 4.334581e-01 3.846258e-01 -2.577424e-01 -4.547132e+00 -1.249540e+01 -3.775925e+01 -5.703689e+01 9.203264e-13 5.703689e+01 3.775925e+01 1.249540e+01 4.547132e+00 2.577424e-01 -3.846258e-01 -4.334581e-01 -3.592273e-01 -4.435932e-01 -2.456359e-01 -1.058685e-01 -4.965618e-02 -8.613708e-03 -7.749278e-04 2.073686e-03 
-5.116901e-14 2.685961e-03 1.589704e-02 5.476435e-02 1.654935e-01 3.332578e-01 6.469460e-01 1.099503e+00 3.777504e-01 5.626590e-01 1.407480e-01 2.233337e+00 4.916464e+00 -8.788119e+00 -5.748731e+01 -6.463081e+01 -9.415481e-13 6.463081e+01 5.748731e+01 8.788119e+00 -4.916464e+00 -2.233337e+00 -1.407480e-01 -5.626590e-01 -3.777504e-01 -1.099503e+00 -6.469460e-01 -3.332578e-01 -1.654935e-01 -5.476435e-02 -1.589704e-02 -2.685961e-03 
-7.797278e-14 1.893949e-02 6.359006e-02 1.777157e-01 4.345870e-01 8.184697e-01 1.268648e+00 1.635721e+00 -3.760523e-02 7.539507e-01 4.536420e+00 1.300074e+01 1.139225e+01 -2.561756e+01 -4.930347e+01 -1.538092e+01 -2.256627e-13 1.538092e+01 4.930347e+01 2.561756e+01 -1.139225e+01 -1.300074e+01 -4.536420e+00 -7.539507e-01 3.760523e-02 -1.635721e+00 -1.268648e+00 -8.184697e-01 -4.345870e-01 -1.777157e-01 -6.359006e-02 -1.893949e-02 
-8.971674e-14 6.725783e-02 1.858209e-01 4.422926e-01 8.967789e-01 1.498970e+00 1.473198e+00 2.065814e-01 1.350346e+00 8.233991e+00 1.814875e+01 1.389828e+01 4.606286e+00 7.587043e+00 3.272893e+01 4.068491e+01 -1.221552e-12 -4.068491e+01 -3.272893e+01 -7.587043e+00 -4.606286e+00 -1.389828e+01 -1.814875e+01 -8.233991e+00 -1.350346e+00 -2.065814e-01 -1.473198e+00 -1.498970e+00 -8.967789e-01 -4.422926e-01 -1.858209e-01 -6.725783e-02 
-3.460820e-14 1.938763e-01 4.484987e-01 8.636334e-01 1.393012e+00 1.699984e+00 1.525563e-01 -5.625712e-01 1.498937e+01 2.652466e+01 2.452038e+01 2.757130e+01 5.348911e+01 7.178738e+01 6.073404e+01 3.444510e+01 -3.128574e-12 -3.444510e+01 -6.073404e+01 -7.178738e+01 -5.348911e+01 -2.757130e+01 -2.452038e+01 -2.652466e+01 -1.498937e+01 5.625712e-01 -1.525563e-01 -1.699984e+00 -1.393012e+00 -8.636334e-01 -4.484987e-01 -1.938763e-01 
2.245263e-15 5.145012e-01 9.759002e-01 1.392501e+00 1.553098e+00 6.554183e-01 2.230313e-01 1.575149e+01 4.045737e+01 4.309029e+01 4.818346e+01 5.277076e+01 4.365741e+01 2.266835e+01 9.994956e-01 3.061166e+00 1.319268e-12 -3.061166e+00 -9.994956e-01 -2.266835e+01 -4.365741e+01 -5.277076e+01 -4.818346e+01 -4.309029e+01 -4.045737e+01 -1.575149e+01 -2.230313e-01 -6.554183e-01 -1.553098e+00 -1.392501e+00 -9.759002e-01 -5.145012e-01 
-2.321699e-14 1.290527e+00 2.059030e+00 2.125381e+00 1.325766e+00 9.125163e-01 1.506700e+01 5.583935e+01 6.740205e+01 4.986941e+01 4.409939e+01 3.016062e+01 3.843008e+00 -1.680444e+01 -1.947172e+01 -3.414077e+00 3.826596e-12 3.414077e+00 1.947172e+01 1.680444e+01 -3.843008e+00 -3.016062e+01 -4.409939e+01 -4.986941e+01 -6.740205e+01 -5.583935e+01 -1.506700e+01 -9.125163e-01 -1.325766e+00 -2.125381e+00 -2.059030e+00 -1.290527e+00 
-5.002141e-14 2.935585e+00 4.227840e+00 3.542203e+00 2.202060e+00 1.124030e+01 5.187341e+01 8.416884e+01 6.015248e+01 4.246873e+01 3.292494e+01 1.534042e+01 1.742438e+01 1.757413e+01 1.697986e+01 1.437747e+01 8.663894e-13 -1.437747e+01 -1.697986e+01 -1.757413e+01 -1.742438e+01 -1.534042e+01 -3.292494e+01 -4.246873e+01 -6.015248e+01 -8.416884e+01 -5.187341e+01 -1.124030e+01 -2.202060e+00 -3.542203e+00 -4.227840e+00 -2.935585e+00 
-1.014639e-13 5.841699e+00 8.136401e+00 6.735168e+00 8.104006e+00 3.734528e+01 8.296039e+01 6.974050e+01 4.308061e+01 3.895105e+01 1.231982e+01 4.271621e+00 2.568020e+01 2.879030e+01 2.392844e+01 1.590583e+01 -5.050892e-13 -1.590583e+01 -2.392844e+01 -2.879030e+01 -2.568020e+01 -4.271621e+00 -1.231982e+01 -3.895105e+01 -4.308061e+01 -6.974050e+01 -8.296039e+01 -3.734528e+01 -8.104006e+00 -6.735168e+00 -8.136401e+00 -5.841699e+00 
-1.949081e-13 9.779298e+00 1.359763e+01 1.237136e+01 1.994179e+01 6.381285e+01 7.687834e+01 3.706536e+01 2.176915e+01 -6.194975e-01 -3.337139e+01 -1.859631e+01 8.743419e+00 1.702931e+01 1.702165e+01 1.240981e+01 -4.717571e-13 -1.240981e+01 -1.702165e+01 -1.702931e+01 -8.743419e+00 1.859631e+01 3.337139e+01 6.194975e-01 -2.176915e+01 -3.706536e+01 -7.687834e+01 -6.381285e+01 -1.994179e+01 -1.237136e+01 -1.359763e+01 -9.779298e+00 
-2.939251e-13 1.358247e+01 1.892809e+01 1.844054e+01 2.861202e+01 5.842070e+01 4.038425e+01 1.372550e+01 -4.098870e-01 -4.210034e+01 -5.424325e+01 -2.615602e+01 -4.790876e+00 2.969959e+00 6.500231e+00 6.214868e+00 -2.634206e-13 -6.214868e+00 -6.500231e+00 -2.969959e+00 4.790876e+00 2.615602e+01 5.424325e+01 4.210034e+01 4.098870e-01 -1.372550e+01 -4.038425e+01 -5.842070e+01 -2.861202e+01 -1.844054e+01 -1.892809e+01 -1.358247e+01 
-2.671685e-13 1.485704e+01 2.014152e+01 1.828117e+01 2.228737e+01 2.479693e+01 1.775945e+01 2.313907e+01 -1.977331e+00 -4.385120e+01 -4.517940e+01 -2.744595e+01 -1.245974e+01 -5.257376e+00 -8.947027e-01 1.137208e+00 -1.732361e-13 -1.137208e+00 8.947027e-01 5.257376e+00 1.245974e+01 2.744595e+01 4.517940e+01 4.385120e+01 1.977331e+00 -2.313907e+01 -1.775945e+01 -2.479693e+01 -2.228737e+01 -1.828117e+01 -2.014152e+01 -1.485704e+01 
-2.349846e-14 1.040757e+01 1.283242e+01 9.461195e+00 8.670278e+00 2.146960e+00 6.856678e+00 2.203831e+01 4.351847e-01 -2.631946e+01 -2.552021e+01 -1.789550e+01 -1.000434e+01 -5.692665e+00 -2.731660e+00 -7.805462e-01 -1.068035e-13 7.805462e-01 2.731660e+00 5.692665e+00 1.000434e+01 1.789550e+01 2.552021e+01 2.631946e+01 -4.351847e-01 -2.203831e+01 -6.856678e+00 -2.146960e+00 -8.670278e+00 -9.461195e+00 -1.283242e+01 -1.040757e+01 
2.330848e-13 2.288801e-13 1.809819e-13 -5.771925e-15 -4.346999e-13 -7.691247e-13 -5.087267e-14 3.863411e-13 -2.993452e-13 2.373936e-14 3.095351e-13 -6.372213e-14 -2.602399e-13 -2.413134e-13 -1.173191e-13 -9.257634e-14 -7.080676e-14 -8.351705e-14 -1.531647e-13 -1.901343e-13 -2.847271e-13 -3.517259e-13 -3.762262e-13 -5.804565e-14 -7.793046e-13 9.554532e-13 1.842360e-12 3.398131e-13 6.637148e-13 5.367975e-13 4.555435e-13 2.766381e-13 
1.460096e-13 -1.040757e+01 -1.283242e+01 -9.461195e+00 -8.670278e+00 -2.146960e+00 -6.856678e+00 -2.203831e+01 -4.351847e-01 2.631946e+01 2.552021e+01 1.789550e+01 1.000434e+01 5.692665e+00 2.731660e+00 7.805462e-01 -5.220358e-14 -7.805462e-01 -2.731660e+00 -5.692665e+00 -1.000434e+01 -1.789550e+01 -2.552021e+01 -2.631946e+01 4.351847e-01 2.203831e+01 6.856678e+00 2.146960e+00 8.670278e+00 9.461195e+00 1.283242e+01 1.040757e+01 
-5.137664e-15 -1.485704e+01 -2.014152e+01 -1.828117e+01 -2.228737e+01 -2.479693e+01 -1.775945e+01 -2.313907e+01 1.977331e+00 4.385120e+01 4.517940e+01 2.744595e+01 1.245974e+01 5.257376e+00 8.947027e-01 -1.137208e+00 1.532803e-14 1.137208e+00 -8.947027e-01 -5.257376e+00 -1.245974e+01 -2.744595e+01 -4.517940e+01 -4.385120e+01 -1.977331e+00 2.313907e+01 1.775945e+01 2.479693e+01 2.228737e+01 1.828117e+01 2.014152e+01 1.485704e+01 
-1.049470e-14 -1.358247e+01 -1.892809e+01 -1.844054e+01 -2.861202e+01 -5.842070e+01 -4.038425e+01 -1.372550e+01 4.098870e-01 4.210034e+01 5.424325e+01 2.615602e+01 4.790876e+00 -2.969959e+00 -6.500231e+00 -6.214868e+00 7.268087e-14 6.214868e+00 6.500231e+00 2.969959e+00 -4.790876e+00 -2.615602e+01 -5.424325e+01 -4.210034e+01 -4.098870e-01 1.372550e+01 4.038425e+01 5.842070e+01 2.861202e+01 1.844054e+01 1.892809e+01 1.358247e+01 
1.242751e-15 -9.779298e+00 -1.359763e+01 -1.237136e+01 -1.994179e+01 -6.381285e+01 -7.687834e+01 -3.706536e+01 -2.176915e+01 6.194975e-01 3.337139e+01 1.859631e+01 -8.743419e+00 -1.702931e+01 -1.702165e+01 -1.240981e+01 3.675091e-13 1.240981e+01 1.702165e+01 1.702931e+01 8.743419e+00 -1.859631e+01 -3.337139e+01 -6.194975e-01 2.176915e+01 3.706536e+01 7.687834e+01 6.381285e+01 1.994179e+01 1.237136e+01 1.359763e+01 9.779298e+00 
4.178612e-14 -5.841699e+00 -8.136401e+00 -6.735168e+00 -8.104006e+00 -3.734528e+01 -8.296039e+01 -6.974050e+01 -4.308061e+01 -3.895105e+01 -1.231982e+01 -4.271621e+00 -2.568020e+01 -2.879030e+01 -2.392844e+01 -1.590583e+01 4.452968e-13 1.590583e+01 2.392844e+01 2.879030e+01 2.568020e+01 4.271621e+00 1.231982e+01 3.895105e+01 4.308061e+01 6.974050e+01 8.296039e+01 3.734528e+01 8.104006e+00 6.735168e+00 8.136401e+00 5.841699e+00 
1.118158e-13 -2.935585e+00 -4.227840e+00 -3.542203e+00 -2.202060e+00 -1.124030e+01 -5.187341e+01 -8.416884e+01 -6.015248e+01 -4.246873e+01 -3.292494e+01 -1.534042e+01 -1.742438e+01 -1.757413e+01 -1.697986e+01 -1.437747e+01 -2.540439e-12 1.437747e+01 1.697986e+01 1.757413e+01 1.742438e+01 1.534042e+01 3.292494e+01 4.246873e+01 6.015248e+01 8.416884e+01 5.187341e+01 1.124030e+01 2.202060e+00 3.542203e+00 4.227840e+00 2.935585e+00 
1.216448e-13 -1.290527e+00 -2.059030e+00 -2.125381e+00 -1.325766e+00 -9.125163e-01 -1.506700e+01 -5.583935e+01 -6.740205e+01 -4.986941e+01 -4.409939e+01 -3.016062e+01 -3.843008e+00 1.680444e+01 1.947172e+01 3.414077e+00 -1.006095e-11 -3.414077e+00 -1.947172e+01 -1.680444e+01 3.843008e+00 3.016062e+01 4.409939e+01 4.986941e+01 6.740205e+01 5.583935e+01 1.506700e+01 9.125163e-01 1.325766e+00 2.125381e+00 2.059030e+00 1.290527e+00 
9.918711e-14 -5.145012e-01 -9.759002e-01 -1.392501e+00 -1.553098e+00 -6.554183e-01 -2.230313e-01 -1.575149e+01 -4.045737e+01 -4.309029e+01 -4.818346e+01 -5.277076e+01 -4.365741e+01 -2.266835e+01 -9.994956e-01 -3.061166e+00 -2.389839e-12 3.061166e+00 9.994956e-01 2.266835e+01 4.365741e+01 5.277076e+01 4.818346e+01 4.309029e+01 4.045737e+01 1.575149e+01 2.230313e-01 6.554183e-01 1.553098e+00 1.392501e+00 9.759002e-01 5.145012e-01 
4.659306e-14 -1.938763e-01 -4.484987e-01 -8.636334e-01 -1.393012e+00 -1.699984e+00 -1.525563e-01 5.625712e-01 -1.498937e+01 -2.652466e+01 -2.452038e+01 -2.757130e+01 -5.348911e+01 -7.178738e+01 -6.073404e+01 -3.444510e+01 1.409379e-11 3.444510e+01 6.073404e+01 7.178738e+01 5.348911e+01 2.757130e+01 2.452038e+01 2.652466e+01 1.498937e+01 -5.625712e-01 1.525563e-01 1.699984e+00 1.393012e+00 8.636334e-01 4.484987e-01 1.938763e-01 
4.630217e-14 -6.725783e-02 -1.858209e-01 -4.422926e-01 -8.967789e-01 -1.498970e+00 -1.473198e+00 -2.065814e-01 -1.350346e+00 -8.233991e+00 -1.814875e+01 -1.389828e+01 -4.606286e+00 -7.587043e+00 -3.272893e+01 -4.068491e+01 7.426726e-12 4.068491e+01 3.272893e+01 7.587043e+00 4.606286e+00 1.389828e+01 1.814875e+01 8.233991e+00 1.350346e+00 2.065814e-01 1.473198e+00 1.498970e+00 8.967789e-01 4.422926e-01 1.858209e-01 6.725783e-02 
4.695729e-15 -1.893949e-02 -6.359006e-02 -1.777157e-01 -4.345870e-01 -8.184697e-01 -1.268648e+00 -1.635721e+00 3.760523e-02 -7.539507e-01 -4.536420e+00 -1.300074e+01 -1.139225e+01 2.561756e+01 4.930347e+01 1.538092e+01 -9.445549e-14 -1.538092e+01 -4.930347e+01 -2.561756e+01 1.139225e+01 1.300074e+01 4.536420e+00 7.539507e-01 -3.760523e-02 1.635721e+00 1.268648e+00 8.184697e-01 4.345870e-01 1.777157e-01 6.359006e-02 1.893949e-02 
-2.091252e-14 -2.685961e-03 -1.589704e-02 -5.476435e-02 -1.654935e-01 -3.332578e-01 -6.469460e-01 -1.099503e+00 -3.777504e-01 -5.626590e-01 -1.407480e-01 -2.233337e+00 -4.916464e+00 8.788119e+00 5.748731e+01 6.463081e+01 2.321086e-12 -6.463081e+01 -5.748731e+01 -8.788119e+00 4.916464e+00 2.233337e+00 1.407480e-01 5.626590e-01 3.777504e-01 1.099503e+00 6.469460e-01 3.332578e-01 1.654935e-01 5.476435e-02 1.589704e-02 2.685961e-03 
-3.669256e-14 2.073686e-03 -7.749278e-04 -8.613708e-03 -4.965618e-02 -1.058685e-01 -2.456359e-01 -4.435932e-01 -3.592273e-01 -4.334581e-01 -3.846258e-01 2.577424e-01 4.547132e+00 1.249540e+01 3.775925e+01 5.703689e+01 2.349332e-12 -5.703689e+01 -3.775925e+01 -1.249540e+01 -4.547132e+00 -2.577424e-01 3.846258e-01 4.334581e-01 3.592273e-01 4.435932e-01 2.456359e-01 1.058685e-01 4.965618e-02 8.613708e-03 7.749278e-04 -2.073686e-03 
-5.949920e-14 2.246691e-03 2.308078e-03 2.476467e-03 -9.842780e-03 -2.682242e-02 -6.910567e-02 -1.386049e-01 -1.522174e-01 -1.911218e-01 -8.604184e-02 7.390584e-01 2.667291e+00 6.980802e+00 1.582037e+01 2.944857e+01 3.098621e-12 -2.944857e+01 -1.582037e+01 -6.980802e+00 -2.667291e+00 -7.390584e-01 8.604184e-02 1.911218e-01 1.522174e-01 1.386049e-01 6.910567e-02 2.682242e-02 9.842780e-03 -2.476467e-03 -2.308078e-03 -2.246691e-03 
-7.302311e-14 1.305337e-03 1.459940e-03 2.835793e-03 -7.769194e-04 -4.325272e-03 -1.456561e-02 -3.306607e-02 -4.034093e-02 -3.771228e-02 3.072554e-02 4.007446e-01 9.886694e-01 2.621850e+00 6.210102e+00 1.029623e+01 1.842376e-12 -1.029623e+01 -6.210102e+00 -2.621850e+00 -9.886694e-01 -4.007446e-01 -3.072554e-02 3.771228e-02 4.034093e-02 3.306607e-02 1.456561e-02 4.325272e-03 7.769194e-04 -2.835793e-03 -1.459940e-03 -1.305337e-03 
