# vtk DataFile Version 2.0
Comment goes here
ASCII

DATASET STRUCTURED_POINTS
FIELD FieldData 1
TIME 1 1 double
0.90000000
DIMENSIONS    32   32   1

ORIGIN    0.000   0.000   0.000
SPACING   0.03125 0.03125   1.000

POINT_DATA   1024
SCALARS Omega double
LOOKUP_TABLE default

-4.232049e-14 -4.075011e-14 -5.650708e-14 -4.733624e-14 -8.390350e-14 -1.403430e-13 -2.302336e-13 -2.408716e-13 -2.554927e-13 -2.740867e-13 -3.036671e-13 -3.213125e-13 -2.793470e-13 -2.172201e-13 -9.382280e-14 -3.862188e-13 -1.066554e-12 -9.019553e-13 -4.352402e-13 -8.827480e-14 4.674129e-15 -3.095802e-14 -8.928020e-14 -1.988946e-13 -2.539042e-13 -2.619109e-13 -2.415796e-13 -1.378684e-13 -1.347050e-13 -5.969287e-14 -4.123142e-14 -4.337132e-14 
-3.294787e-14 3.797808e-02 3.742344e-02 -5.087932e-02 -2.763717e-01 -7.410736e-01 -1.531274e+00 -2.706770e+00 -4.230287e+00 -5.974135e+00 -7.752489e+00 -9.287241e+00 -1.041211e+01 -1.098814e+01 -1.059362e+01 -7.754317e+00 -1.087740e-12 7.754317e+00 1.059362e+01 1.098814e+01 1.041211e+01 9.287241e+00 7.752489e+00 5.974135e+00 4.230287e+00 2.706770e+00 1.531274e+00 7.410736e-01 2.763717e-01 5.087932e-02 -3.742344e-02 -3.797808e-02 
-5.240206e-14 1.237524e-01 1.623783e-01 3.044509e-02 -3.360294e-01 -1.096062e+00 -2.399420e+00 -4.367006e+00 -6.951530e+00 -9.947850e+00 -1.310185e+01 -1.599992e+01 -1.847729e+01 -2.032941e+01 -2.048796e+01 -1.533199e+01 -4.044172e-13 1.533199e+01 2.048796e+01 2.032941e+01 1.847729e+01 1.599992e+01 1.310185e+01 9.947850e+00 6.951530e+00 4.367006e+00 2.399420e+00 1.096062e+00 3.360294e-01 -3.044509e-02 -1.623783e-01 -1.237524e-01 
-1.124333e-13 3.199822e-01 4.773093e-01 3.584689e-01 -6.270050e-02 -9.291831e-01 -2.405229e+00 -4.669638e+00 -7.699601e+00 -1.124426e+01 -1.507798e+01 -1.874247e+01 -2.233404e+01 -2.597230e+01 -2.785325e+01 -2.106797e+01 9.434543e-13 2.106797e+01 2.785325e+01 2.597230e+01 2.233404e+01 1.874247e+01 1.507798e+01 1.124426e+01 7.699601e+00 4.669638e+00 2.405229e+00 9.291831e-01 6.270050e-02 -3.584689e-01 -4.773093e-01 -3.199822e-01 
-2.293425e-13 7.073881e-01 1.109400e+00 1.053262e+00 6.005795e-01 -2.818943e-01 -1.695022e+00 -3.825091e+00 -6.703185e+00 -1.007662e+01 -1.380414e+01 -1.745232e+01 -2.171416e+01 -2.739472e+01 -3.146930e+01 -2.314914e+01 2.090354e-12 2.314914e+01 3.146930e+01 2.739472e+01 2.171416e+01 1.745232e+01 1.380414e+01 1.007662e+01 6.703185e+00 3.825091e+00 1.695022e+00 2.818943e-01 -6.005795e-01 -1.053262e+00 -1.109400e+00 -7.073881e-01 
-3.856268e-13 1.382614e+00 2.225928e+00 2.295165e+00 1.771526e+00 8.069446e-01 -5.461809e-01 -2.418975e+00 -4.889098e+00 -7.691027e+00 -1.102162e+01 -1.434006e+01 -1.824021e+01 -2.487824e+01 -3.015280e+01 -1.999098e+01 2.176204e-12 1.999098e+01 3.015280e+01 2.487824e+01 1.824021e+01 1.434006e+01 1.102162e+01 7.691027e+00 4.889098e+00 2.418975e+00 5.461809e-01 -8.069446e-01 -1.771526e+00 -2.295165e+00 -2.225928e+00 -1.382614e+00 
-5.829591e-13 2.397537e+00 3.933100e+00 4.224768e+00 3.576843e+00 2.392469e+00 9.344022e-01 -7.630128e-01 -2.857651e+00 -4.865580e+00 -7.407575e+00 -1.227824e+01 -1.738185e+01 -2.480362e+01 -2.666838e+01 -1.437412e+01 2.996594e-12 1.437412e+01 2.666838e+01 2.480362e+01 1.738185e+01 1.227824e+01 7.407575e+00 4.865580e+00 2.857651e+00 7.630128e-01 -9.344022e-01 -2.392469e+00 -3.576843e+00 -4.224768e+00 -3.933100e+00 -2.397537e+00 
-6.605430e-13 3.731698e+00 6.225013e+00 6.862625e+00 6.074634e+00 4.523828e+00 2.721550e+00 9.230498e-01 -8.598488e-01 -2.010769e+00 -6.227940e+00 -2.565362e+01 -3.150515e+01 -3.096543e+01 -1.594014e+01 -3.260751e+00 7.331491e-12 3.260751e+00 1.594014e+01 3.096543e+01 3.150515e+01 2.565362e+01 6.227940e+00 2.010769e+00 8.598488e-01 -9.230498e-01 -2.721550e+00 -4.523828e+00 -6.074634e+00 -6.862625e+00 -6.225013e+00 -3.731698e+00 
-6.293902e-13 5.305145e+00 8.963254e+00 1.004075e+01 9.127859e+00 7.145135e+00 4.828694e+00 2.912545e+00 5.536082e-01 -7.262286e+00 -2.816568e+01 -4.267922e+01 -8.711817e+00 2.768792e+01 4.009446e+01 1.874558e+01 5.018907e-12 -1.874558e+01 -4.009446e+01 -2.768792e+01 8.711817e+00 4.267922e+01 2.816568e+01 7.262286e+00 -5.536082e-01 -2.912545e+00 -4.828694e+00 -7.145135e+00 -9.127859e+00 -1.004075e+01 -8.963254e+00 -5.305145e+00 
-3.482656e-13 7.030321e+00 1.194362e+01 1.344876e+01 1.239789e+01 9.939151e+00 6.773110e+00 3.179534e+00 -6.198861e+00 -3.270618e+01 -3.820933e+01 3.857776e+00 2.662960e+01 9.019488e+00 -1.388689e+01 -1.609116e+01 -5.806556e-12 1.609116e+01 1.388689e+01 -9.019488e+00 -2.662960e+01 -3.857776e+00 3.820933e+01 3.270618e+01 6.198861e+00 -3.179534e+00 -6.773110e+00 -9.939151e+00 -1.239789e+01 -1.344876e+01 -1.194362e+01 -7.030321e+00 
-3.368667e-15 8.880301e+00 1.504463e+01 1.692174e+01 1.581463e+01 1.288281e+01 7.853302e+00 4.661336e+00 -1.118222e+01 -4.829108e+01 -2.132983e+01 -2.077821e+00 -2.334788e+01 -3.486571e+01 -3.349494e+01 -1.530657e+01 -7.749708e-12 1.530657e+01 3.349494e+01 3.486571e+01 2.334788e+01 2.077821e+00 2.132983e+01 4.829108e+01 1.118222e+01 -4.661336e+00 -7.853302e+00 -1.288281e+01 -1.581463e+01 -1.692174e+01 -1.504463e+01 -8.880301e+00 
4.468786e-13 1.073662e+01 1.802033e+01 2.028431e+01 1.943005e+01 1.730141e+01 2.041986e+01 2.298763e+01 -3.843460e+01 -6.075483e+01 -9.692380e+00 -1.560725e+01 -1.272457e+01 1.429074e+01 2.427046e+01 1.851103e+01 -3.035382e-12 -1.851103e+01 -2.427046e+01 -1.429074e+01 1.272457e+01 1.560725e+01 9.692380e+00 6.075483e+01 3.843460e+01 -2.298763e+01 -2.041986e+01 -1.730141e+01 -1.943005e+01 -2.028431e+01 -1.802033e+01 -1.073662e+01 
7.213768e-13 1.226241e+01 2.044268e+01 2.345584e+01 2.368680e+01 2.358373e+01 3.493702e+01 8.588096e+00 -9.143834e+01 -4.444353e+01 4.296795e+00 1.103504e+01 1.662220e+01 1.426767e+01 1.018361e+01 7.696467e+00 -4.063858e-13 -7.696467e+00 -1.018361e+01 -1.426767e+01 -1.662220e+01 -1.103504e+01 -4.296795e+00 4.444353e+01 9.143834e+01 -8.588096e+00 -3.493702e+01 -2.358373e+01 -2.368680e+01 -2.345584e+01 -2.044268e+01 -1.226241e+01 
8.025311e-13 1.276512e+01 2.135041e+01 2.591772e+01 2.807908e+01 3.165149e+01 4.271156e+01 -6.498130e+01 -9.706357e+01 2.102313e+01 1.502135e+01 7.810561e-01 -1.379135e+00 1.256315e+00 3.348610e+00 3.237589e+00 1.512508e-13 -3.237589e+00 -3.348610e+00 -1.256315e+00 1.379135e+00 -7.810561e-01 -1.502135e+01 -2.102313e+01 9.706357e+01 6.498130e+01 -4.271156e+01 -3.165149e+01 -2.807908e+01 -2.591772e+01 -2.135041e+01 -1.276512e+01 
3.703430e-13 1.113532e+01 1.880718e+01 2.421211e+01 2.952956e+01 4.183073e+01 3.245742e+01 -9.707813e+01 -3.220582e+01 5.534784e+01 4.228603e+00 -9.945825e+00 -6.531300e+00 -1.739285e+00 6.552128e-01 1.177114e+00 6.939638e-14 -1.177114e+00 -6.552128e-01 1.739285e+00 6.531300e+00 9.945825e+00 -4.228603e+00 -5.534784e+01 3.220582e+01 9.707813e+01 -3.245742e+01 -4.183073e+01 -2.952956e+01 -2.421211e+01 -1.880718e+01 -1.113532e+01 
-3.630782e-13 6.491090e+00 1.099139e+01 1.487480e+01 2.040743e+01 3.108407e+01 1.935920e+00 -5.931507e+01 3.481753e+00 2.898079e+01 -7.606904e+00 -1.176643e+01 -6.502908e+00 -2.426729e+00 -3.924387e-01 2.375079e-01 4.345776e-14 -2.375079e-01 3.924387e-01 2.426729e+00 6.502908e+00 1.176643e+01 7.606904e+00 -2.898079e+01 -3.481753e+00 5.931507e+01 -1.935920e+00 -3.108407e+01 -2.040743e+01 -1.487480e+01 -1.099139e+01 -6.491090e+00 
-1.159604e-12 -1.464200e-12 -1.589087e-12 -1.230568e-12 -3.405363e-13 1.826005e-13 -1.153497e-12 -4.078902e-12 4.148261e-13 1.307158e-12 -6.466493e-13 -2.239427e-14 3.130112e-14 5.577675e-15 1.150429e-13 -4.888546e-14 7.037626e-14 1.226975e-13 2.746733e-13 5.109871e-13 9.308213e-13 1.167336e-12 -1.914141e-12 -5.274602e-12 -3.731025e-12 1.411591e-12 3.004632e-12 1.120031e-12 -6.758420e-13 -1.535569e-12 -1.632230e-12 -1.305998e-12 
-1.032148e-12 -6.491090e+00 -1.099139e+01 -1.487480e+01 -2.040743e+01 -3.108407e+01 -1.935920e+00 5.931507e+01 -3.481753e+00 -2.898079e+01 7.606904e+00 1.176643e+01 6.502908e+00 2.426729e+00 3.924387e-01 -2.375079e-01 9.933536e-14 2.375079e-01 -3.924387e-01 -2.426729e+00 -6.502908e+00 -1.176643e+01 -7.606904e+00 2.898079e+01 3.481753e+00 -5.931507e+01 1.935920e+00 3.108407e+01 2.040743e+01 1.487480e+01 1.099139e+01 6.491090e+00 
-3.426071e-13 -1.113532e+01 -1.880718e+01 -2.421211e+01 -2.952956e+01 -4.183073e+01 -3.245742e+01 9.707813e+01 3.220582e+01 -5.534784e+01 -4.228603e+00 9.945825e+00 6.531300e+00 1.739285e+00 -6.552128e-01 -1.177114e+00 2.770429e-13 1.177114e+00 6.552128e-01 -1.739285e+00 -6.531300e+00 -9.945825e+00 4.228603e+00 5.534784e+01 -3.220582e+01 -9.707813e+01 3.245742e+01 4.183073e+01 2.952956e+01 2.421211e+01 1.880718e+01 1.113532e+01 
-1.721879e-14 -1.276512e+01 -2.135041e+01 -2.591772e+01 -2.807908e+01 -3.165149e+01 -4.271156e+01 6.498130e+01 9.706357e+01 -2.102313e+01 -1.502135e+01 -7.810561e-01 1.379135e+00 -1.256315e+00 -3.348610e+00 -3.237589e+00 6.399171e-13 3.237589e+00 3.348610e+00 1.256315e+00 -1.379135e+00 7.810561e-01 1.502135e+01 2.102313e+01 -9.706357e+01 -6.498130e+01 4.271156e+01 3.165149e+01 2.807908e+01 2.591772e+01 2.135041e+01 1.276512e+01 
-4.518603e-14 -1.226241e+01 -2.044268e+01 -2.345584e+01 -2.368680e+01 -2.358373e+01 -3.493702e+01 -8.588096e+00 9.143834e+01 4.444353e+01 -4.296795e+00 -1.103504e+01 -1.662220e+01 -1.426767e+01 -1.018361e+01 -7.696467e+00 2.583222e-13 7.696467e+00 1.018361e+01 1.426767e+01 1.662220e+01 1.103504e+01 4.296795e+00 -4.444353e+01 -9.143834e+01 8.588096e+00 3.493702e+01 2.358373e+01 2.368680e+01 2.345584e+01 2.044268e+01 1.226241e+01 
-2.387126e-13 -1.073662e+01 -1.802033e+01 -2.028431e+01 -1.943005e+01 -1.730141e+01 -2.041986e+01 -2.298763e+01 3.843460e+01 6.075483e+01 9.692380e+00 1.560725e+01 1.272457e+01 -1.429074e+01 -2.427046e+01 -1.851103e+01 -1.793783e-12 1.851103e+01 2.427046e+01 1.429074e+01 -1.272457e+01 -1.560725e+01 -9.692380e+00 -6.075483e+01 -3.843460e+01 2.298763e+01 2.041986e+01 1.730141e+01 1.943005e+01 2.028431e+01 1.802033e+01 1.073662e+01 
-5.801269e-13 -8.880301e+00 -1.504463e+01 -1.692174e+01 -1.581463e+01 -1.288281e+01 -7.853302e+00 -4.661336e+00 1.118222e+01 4.829108e+01 2.132983e+01 2.077821e+00 2.334788e+01 3.486571e+01 3.349494e+01 1.530657e+01 -6.830424e-12 -1.530657e+01 -3.349494e+01 -3.486571e+01 -2.334788e+01 -2.077821e+00 -2.132983e+01 -4.829108e+01 -1.118222e+01 4.661336e+00 7.853302e+00 1.288281e+01 1.581463e+01 1.692174e+01 1.504463e+01 8.880301e+00 
-8.395539e-13 -7.030321e+00 -1.194362e+01 -1.344876e+01 -1.239789e+01 -9.939151e+00 -6.773110e+00 -3.179534e+00 6.198861e+00 3.270618e+01 3.820933e+01 -3.857776e+00 -2.662960e+01 -9.019488e+00 1.388689e+01 1.609116e+01 -3.151853e-12 -1.609116e+01 -1.388689e+01 9.019488e+00 2.662960e+01 3.857776e+00 -3.820933e+01 -3.270618e+01 -6.198861e+00 3.179534e+00 6.773110e+00 9.939151e+00 1.239789e+01 1.344876e+01 1.194362e+01 7.030321e+00 
-9.534340e-13 -5.305145e+00 -8.963254e+00 -1.004075e+01 -9.127859e+00 -7.145135e+00 -4.828694e+00 -2.912545e+00 -5.536082e-01 7.262286e+00 2.816568e+01 4.267922e+01 8.711817e+00 -2.768792e+01 -4.009446e+01 -1.874558e+01 7.033803e-12 1.874558e+01 4.009446e+01 2.768792e+01 -8.711817e+00 -4.267922e+01 -2.816568e+01 -7.262286e+00 5.536082e-01 2.912545e+00 4.828694e+00 7.145135e+00 9.127859e+00 1.004075e+01 8.963254e+00 5.305145e+00 
-8.603244e-13 -3.731698e+00 -6.225013e+00 -6.862625e+00 -6.074634e+00 -4.523828e+00 -2.721550e+00 -9.230498e-01 8.598488e-01 2.010769e+00 6.227940e+00 2.565362e+01 3.150515e+01 3.096543e+01 1.594014e+01 3.260751e+00 4.182965e-12 -3.260751e+00 -1.594014e+01 -3.096543e+01 -3.150515e+01 -2.565362e+01 -6.227940e+00 -2.010769e+00 -8.598488e-01 9.230498e-01 2.721550e+00 4.523828e+00 6.074634e+00 6.862625e+00 6.225013e+00 3.731698e+00 
-6.356371e-13 -2.397537e+00 -3.933100e+00 -4.224768e+00 -3.576843e+00 -2.392469e+00 -9.344022e-01 7.630128e-01 2.857651e+00 4.865580e+00 7.407575e+00 1.227824e+01 1.738185e+01 2.480362e+01 2.666838e+01 1.437412e+01 4.016444e-13 -1.437412e+01 -2.666838e+01 -2.480362e+01 -1.738185e+01 -1.227824e+01 -7.407575e+00 -4.865580e+00 -2.857651e+00 -7.630128e-01 9.344022e-01 2.392469e+00 3.576843e+00 4.224768e+00 3.933100e+00 2.397537e+00 
-3.873836e-13 -1.382614e+00 -2.225928e+00 -2.295165e+00 -1.771526e+00 -8.069446e-01 5.461809e-01 2.418975e+00 4.889098e+00 7.691027e+00 1.102162e+01 1.434006e+01 1.824021e+01 2.487824e+01 3.015280e+01 1.999098e+01 3.652167e-13 -1.999098e+01 -3.015280e+01 -2.487824e+01 -1.824021e+01 -1.434006e+01 -1.102162e+01 -7.691027e+00 -4.889098e+00 -2.418975e+00 -5.461809e-01 8.069446e-01 1.771526e+00 2.295165e+00 2.225928e+00 1.382614e+00 
-2.142148e-13 -7.073881e-01 -1.109400e+00 -1.053262e+00 -6.005795e-01 2.818943e-01 1.695022e+00 3.825091e+00 6.703185e+00 1.007662e+01 1.380414e+01 1.745232e+01 2.171416e+01 2.739472e+01 3.146930e+01 2.314914e+01 1.320314e-12 -2.314914e+01 -3.146930e+01 -2.739472e+01 -2.171416e+01 -1.745232e+01 -1.380414e+01 -1.007662e+01 -6.703185e+00 -3.825091e+00 -1.695022e+00 -2.818943e-01 6.005795e-01 1.053262e+00 1.109400e+00 7.073881e-01 
-1.240758e-13 -3.199822e-01 -4.773093e-01 -3.584689e-01 6.270050e-02 9.291831e-01 2.405229e+00 4.669638e+00 7.699601e+00 1.124426e+01 1.507798e+01 1.874247e+01 2.233404e+01 2.597230e+01 2.785325e+01 2.106797e+01 1.177235e-12 -2.106797e+01 -2.785325e+01 -2.597230e+01 -2.233404e+01 -1.874247e+01 -1.507798e+01 -1.124426e+01 -7.699601e+00 -4.669638e+00 -2.405229e+00 -9.291831e-01 -6.270050e-02 3.584689e-01 4.773093e-01 3.199822e-01 
-6.545806e-14 -1.237524e-01 -1.623783e-01 -3.044509e-02 3.360294e-01 1.096062e+00 2.399420e+00 4.367006e+00 6.951530e+00 9.947850e+00 1.310185e+01 1.599992e+01 1.847729e+01 2.032941e+01 2.048796e+01 1.533199e+01 2.375546e-13 -1.533199e+01 -2.048796e+01 -2.032941e+01 -1.847729e+01 -1.599992e+01 -1.310185e+01 -9.947850e+00 -6.951530e+00 -4.367006e+00 -2.399420e+00 -1.096062e+00 -3.360294e-01 3.044509e-02 1.623783e-01 1.237524e-01 
-4.951350e-14 -3.797808e-02 -3.742344e-02 5.087932e-02 2.763717e-01 7.410736e-01 1.531274e+00 2.706770e+00 4.230287e+00 5.974135e+00 7.752489e+00 9.287241e+00 1.041211e+01 1.098814e+01 1.059362e+01 7.754317e+00 -6.586954e-13 -7.754317e+00 -1.059362e+01 -1.098814e+01 -1.041211e+01 -9.287241e+00 -7.752489e+00 -5.974135e+00 -4.230287e+00 -2.706770e+00 -1.531274e+00 -7.410736e-01 -2.763717e-01 -5.087932e-02 3.742344e-02 3.797808e-02 
