# vtk DataFile Version 2.0
Comment goes here
ASCII

DATASET STRUCTURED_POINTS
FIELD FieldData 1
TIME 1 1 double
1.32000000
DIMENSIONS    32   32   1

ORIGIN    0.000   0.000   0.000
SPACING   0.03125 0.03125   1.000

POINT_DATA   1024
SCALARS Omega double
LOOKUP_TABLE default

-1.434247e-13 -5.746536e-14 3.261401e-14 2.361064e-13 8.406680e-13 2.363744e-12 5.588164e-12 1.044503e-11 1.664602e-11 2.263053e-11 2.711732e-11 2.852517e-11 2.573331e-11 1.769615e-11 3.974328e-12 -1.051156e-11 -1.828445e-11 -1.465489e-11 -1.812245e-12 1.217773e-11 2.207053e-11 2.709599e-11 2.769369e-11 2.478547e-11 1.966875e-11 1.357181e-11 8.250566e-12 4.158518e-12 1.856246e-12 5.222528e-13 7.209539e-14 -1.548093e-13 
-1.539990e-13 5.314375e-02 1.859664e-02 -1.781480e-01 -5.819747e-01 -1.224811e+00 -2.112809e+00 -3.207838e+00 -4.440961e+00 -5.702389e+00 -6.894834e+00 -7.887863e+00 -8.509085e+00 -8.468191e+00 -7.218322e+00 -4.206326e+00 -1.620345e-11 4.206326e+00 7.218322e+00 8.468191e+00 8.509085e+00 7.887863e+00 6.894834e+00 5.702389e+00 4.440961e+00 3.207838e+00 2.112809e+00 1.224811e+00 5.819747e-01 1.781480e-01 -1.859664e-02 -5.314375e-02 
-1.964043e-13 1.941743e-01 2.102814e-01 -9.377065e-02 -7.877658e-01 -1.918701e+00 -3.490689e+00 -5.435296e+00 -7.624384e+00 -9.868624e+00 -1.197454e+01 -1.374544e+01 -1.492573e+01 -1.507258e+01 -1.311098e+01 -7.756393e+00 -1.777309e-11 7.756393e+00 1.311098e+01 1.507258e+01 1.492573e+01 1.374544e+01 1.197454e+01 9.868624e+00 7.624384e+00 5.435296e+00 3.490689e+00 1.918701e+00 7.877658e-01 9.377065e-02 -2.102814e-01 -1.941743e-01 
-4.600669e-13 5.014361e-01 7.209798e-01 4.521671e-01 -3.707701e-01 -1.780537e+00 -3.767703e+00 -6.233902e+00 -9.011106e+00 -1.181218e+01 -1.439387e+01 -1.653839e+01 -1.819661e+01 -1.904571e+01 -1.742492e+01 -1.067984e+01 -2.328908e-11 1.067984e+01 1.742492e+01 1.904571e+01 1.819661e+01 1.653839e+01 1.439387e+01 1.181218e+01 9.011106e+00 6.233902e+00 3.767703e+00 1.780537e+00 3.707701e-01 -4.521671e-01 -7.209798e-01 -5.014361e-01 
-1.085878e-12 1.017174e+00 1.622811e+00 1.537774e+00 7.276618e-01 -7.869048e-01 -2.945944e+00 -5.628574e+00 -8.629773e+00 -1.163115e+01 -1.428086e+01 -1.645610e+01 -1.847165e+01 -2.059959e+01 -2.066675e+01 -1.337335e+01 -3.214238e-11 1.337335e+01 2.066675e+01 2.059959e+01 1.847165e+01 1.645610e+01 1.428086e+01 1.163115e+01 8.629773e+00 5.628574e+00 2.945944e+00 7.869048e-01 -7.276618e-01 -1.537774e+00 -1.622811e+00 -1.017174e+00 
-2.603699e-12 1.770028e+00 2.963245e+00 3.210285e+00 2.521657e+00 9.999514e-01 -1.199793e+00 -3.909338e+00 -6.930580e+00 -9.931184e+00 -1.254972e+01 -1.465003e+01 -1.690693e+01 -2.072002e+01 -2.358184e+01 -1.621648e+01 -4.434545e-11 1.621648e+01 2.358184e+01 2.072002e+01 1.690693e+01 1.465003e+01 1.254972e+01 9.931184e+00 6.930580e+00 3.909338e+00 1.199793e+00 -9.999514e-01 -2.521657e+00 -3.210285e+00 -2.963245e+00 -1.770028e+00 
-5.283030e-12 2.743070e+00 4.699887e+00 5.403911e+00 4.909447e+00 3.414129e+00 1.204412e+00 -1.484467e+00 -4.428470e+00 -7.411536e+00 -9.975993e+00 -1.237341e+01 -1.374695e+01 -1.999549e+01 -2.780203e+01 -1.969954e+01 -5.900479e-11 1.969954e+01 2.780203e+01 1.999549e+01 1.374695e+01 1.237341e+01 9.975993e+00 7.411536e+00 4.428470e+00 1.484467e+00 -1.204412e+00 -3.414129e+00 -4.909447e+00 -5.403911e+00 -4.699887e+00 -2.743070e+00 
-9.087583e-12 3.898863e+00 6.747025e+00 7.984391e+00 7.724463e+00 6.257230e+00 4.026426e+00 1.342870e+00 -1.525534e+00 -4.439142e+00 -6.687799e+00 -9.644762e+00 -4.549244e+00 -1.949529e+01 -3.066633e+01 -1.619179e+01 -5.300112e-11 1.619179e+01 3.066633e+01 1.949529e+01 4.549244e+00 9.644762e+00 6.687799e+00 4.439142e+00 1.525534e+00 -1.342870e+00 -4.026426e+00 -6.257230e+00 -7.724463e+00 -7.984391e+00 -6.747025e+00 -3.898863e+00 
-1.324920e-11 5.173609e+00 8.962995e+00 1.074854e+01 1.068564e+01 9.231670e+00 6.970263e+00 4.249918e+00 1.542465e+00 -1.457468e+00 -8.234459e+00 -1.119066e+01 -1.265069e+01 -1.075035e+01 1.961570e+01 2.898752e+01 7.676718e-11 -2.898752e+01 -1.961570e+01 1.075035e+01 1.265069e+01 1.119066e+01 8.234459e+00 1.457468e+00 -1.542465e+00 -4.249918e+00 -6.970263e+00 -9.231670e+00 -1.068564e+01 -1.074854e+01 -8.962995e+00 -5.173609e+00 
-1.682186e-11 6.461812e+00 1.116870e+01 1.342916e+01 1.344548e+01 1.192350e+01 9.638096e+00 7.026957e+00 5.590988e+00 2.821152e+00 -2.146943e+01 -8.235669e+00 2.542290e+01 4.714468e+01 3.544337e+01 6.869045e+00 2.828020e-11 -6.869045e+00 -3.544337e+01 -4.714468e+01 -2.542290e+01 8.235669e+00 2.146943e+01 -2.821152e+00 -5.590988e+00 -7.026957e+00 -9.638096e+00 -1.192350e+01 -1.344548e+01 -1.342916e+01 -1.116870e+01 -6.461812e+00 
-1.869311e-11 7.645931e+00 1.319242e+01 1.585686e+01 1.576629e+01 1.413671e+01 1.199901e+01 1.031603e+01 1.461685e+01 3.838271e+00 -1.313026e+01 1.789675e+01 2.382007e+01 -2.224074e+00 -2.402420e+01 -1.638533e+01 2.395445e-12 1.638533e+01 2.402420e+01 2.224074e+00 -2.382007e+01 -1.789675e+01 1.313026e+01 -3.838271e+00 -1.461685e+01 -1.031603e+01 -1.199901e+01 -1.413671e+01 -1.576629e+01 -1.585686e+01 -1.319242e+01 -7.645931e+00 
-1.823514e-11 8.575619e+00 1.485836e+01 1.784736e+01 1.748509e+01 1.550561e+01 1.428330e+01 1.876473e+01 2.262663e+01 -8.755079e+00 -5.430844e+00 9.322940e+00 -1.203150e+01 -2.006769e+01 -6.207065e+00 1.602199e+01 1.623715e-11 -1.602199e+01 6.207065e+00 2.006769e+01 1.203150e+01 -9.322940e+00 5.430844e+00 8.755079e+00 -2.262663e+01 -1.876473e+01 -1.428330e+01 -1.550561e+01 -1.748509e+01 -1.784736e+01 -1.485836e+01 -8.575619e+00 
-1.535445e-11 9.136705e+00 1.608632e+01 1.959443e+01 1.946027e+01 1.748660e+01 1.608296e+01 2.138724e+01 1.175504e+01 -3.618771e+01 -2.149966e+01 -4.811806e+00 4.815224e+00 1.612662e+01 1.718800e+01 1.902917e+01 6.526545e-12 -1.902917e+01 -1.718800e+01 -1.612662e+01 -4.815224e+00 4.811806e+00 2.149966e+01 3.618771e+01 -1.175504e+01 -2.138724e+01 -1.608296e+01 -1.748660e+01 -1.946027e+01 -1.959443e+01 -1.608632e+01 -9.136705e+00 
-1.014577e-11 9.103383e+00 1.644214e+01 2.068541e+01 2.184262e+01 2.206496e+01 2.791527e+01 3.432041e+01 -4.112219e+01 -6.040922e+01 1.833745e+01 9.375792e+00 3.786749e-01 9.207567e-01 5.541450e+00 7.181849e+00 -9.067917e-13 -7.181849e+00 -5.541450e+00 -9.207567e-01 -3.786749e-01 -9.375792e+00 -1.833745e+01 6.040922e+01 4.112219e+01 -3.432041e+01 -2.791527e+01 -2.206496e+01 -2.184262e+01 -2.068541e+01 -1.644214e+01 -9.103383e+00 
-3.258296e-12 7.945186e+00 1.470292e+01 1.917015e+01 2.131742e+01 2.254556e+01 2.673647e+01 2.227437e+01 -6.587194e+01 -9.621097e+00 6.135582e+01 -5.141630e+00 -1.212225e+01 -2.260495e+00 1.329321e+00 2.351411e+00 -5.304147e-13 -2.351411e+00 -1.329321e+00 2.260495e+00 1.212225e+01 5.141630e+00 -6.135582e+01 9.621097e+00 6.587194e+01 -2.227437e+01 -2.673647e+01 -2.254556e+01 -2.131742e+01 -1.917015e+01 -1.470292e+01 -7.945186e+00 
5.033579e-12 5.027918e+00 9.394025e+00 1.227721e+01 1.345893e+01 1.290786e+01 1.189002e+01 -9.856862e-01 -3.731562e+01 1.772922e+01 2.617890e+01 -2.250332e+01 -1.142279e+01 -3.121900e+00 -3.106922e-01 5.377545e-01 1.844617e-13 -5.377545e-01 3.106922e-01 3.121900e+00 1.142279e+01 2.250332e+01 -2.617890e+01 -1.772922e+01 3.731562e+01 9.856862e-01 -1.189002e+01 -1.290786e+01 -1.345893e+01 -1.227721e+01 -9.394025e+00 -5.027918e+00 
1.158193e-11 8.336980e-12 6.143476e-12 5.517045e-12 7.938857e-12 1.421146e-11 4.095943e-11 1.334840e-11 -7.112308e-11 7.011763e-11 1.284980e-10 -9.731237e-13 -4.630948e-12 -6.666737e-12 -2.501903e-12 -7.326943e-13 -1.277400e-12 5.239744e-13 2.606070e-12 1.142115e-11 4.006031e-11 9.530939e-11 7.852657e-11 -3.328675e-11 -1.347787e-10 -2.453981e-11 5.748002e-11 7.088632e-11 7.215510e-11 5.418967e-11 3.335043e-11 1.858501e-11 
9.312637e-12 -5.027918e+00 -9.394025e+00 -1.227721e+01 -1.345893e+01 -1.290786e+01 -1.189002e+01 9.856862e-01 3.731562e+01 -1.772922e+01 -2.617890e+01 2.250332e+01 1.142279e+01 3.121900e+00 3.106922e-01 -5.377545e-01 -4.284503e-12 5.377545e-01 -3.106922e-01 -3.121900e+00 -1.142279e+01 -2.250332e+01 2.617890e+01 1.772922e+01 -3.731562e+01 -9.856862e-01 1.189002e+01 1.290786e+01 1.345893e+01 1.227721e+01 9.394025e+00 5.027918e+00 
1.462218e-12 -7.945186e+00 -1.470292e+01 -1.917015e+01 -2.131742e+01 -2.254556e+01 -2.673647e+01 -2.227437e+01 6.587194e+01 9.621097e+00 -6.135582e+01 5.141630e+00 1.212225e+01 2.260495e+00 -1.329321e+00 -2.351411e+00 -1.484180e-11 2.351411e+00 1.329321e+00 -2.260495e+00 -1.212225e+01 -5.141630e+00 6.135582e+01 -9.621097e+00 -6.587194e+01 2.227437e+01 2.673647e+01 2.254556e+01 2.131742e+01 1.917015e+01 1.470292e+01 7.945186e+00 
-6.817832e-12 -9.103383e+00 -1.644214e+01 -2.068541e+01 -2.184262e+01 -2.206496e+01 -2.791527e+01 -3.432041e+01 4.112219e+01 6.040922e+01 -1.833745e+01 -9.375792e+00 -3.786749e-01 -9.207567e-01 -5.541450e+00 -7.181849e+00 -3.870251e-11 7.181849e+00 5.541450e+00 9.207567e-01 3.786749e-01 9.375792e+00 1.833745e+01 -6.040922e+01 -4.112219e+01 3.432041e+01 2.791527e+01 2.206496e+01 2.184262e+01 2.068541e+01 1.644214e+01 9.103383e+00 
-1.426141e-11 -9.136705e+00 -1.608632e+01 -1.959443e+01 -1.946027e+01 -1.748660e+01 -1.608296e+01 -2.138724e+01 -1.175504e+01 3.618771e+01 2.149966e+01 4.811806e+00 -4.815224e+00 -1.612662e+01 -1.718800e+01 -1.902917e+01 -6.331662e-11 1.902917e+01 1.718800e+01 1.612662e+01 4.815224e+00 -4.811806e+00 -2.149966e+01 -3.618771e+01 1.175504e+01 2.138724e+01 1.608296e+01 1.748660e+01 1.946027e+01 1.959443e+01 1.608632e+01 9.136705e+00 
-1.953783e-11 -8.575619e+00 -1.485836e+01 -1.784736e+01 -1.748509e+01 -1.550561e+01 -1.428330e+01 -1.876473e+01 -2.262663e+01 8.755079e+00 5.430844e+00 -9.322940e+00 1.203150e+01 2.006769e+01 6.207065e+00 -1.602199e+01 -4.196674e-11 1.602199e+01 -6.207065e+00 -2.006769e+01 -1.203150e+01 9.322940e+00 -5.430844e+00 -8.755079e+00 2.262663e+01 1.876473e+01 1.428330e+01 1.550561e+01 1.748509e+01 1.784736e+01 1.485836e+01 8.575619e+00 
-2.194569e-11 -7.645931e+00 -1.319242e+01 -1.585686e+01 -1.576629e+01 -1.413671e+01 -1.199901e+01 -1.031603e+01 -1.461685e+01 -3.838271e+00 1.313026e+01 -1.789675e+01 -2.382007e+01 2.224074e+00 2.402420e+01 1.638533e+01 8.487960e-11 -1.638533e+01 -2.402420e+01 -2.224074e+00 2.382007e+01 1.789675e+01 -1.313026e+01 3.838271e+00 1.461685e+01 1.031603e+01 1.199901e+01 1.413671e+01 1.576629e+01 1.585686e+01 1.319242e+01 7.645931e+00 
-2.148859e-11 -6.461812e+00 -1.116870e+01 -1.342916e+01 -1.344548e+01 -1.192350e+01 -9.638096e+00 -7.026957e+00 -5.590988e+00 -2.821152e+00 2.146943e+01 8.235669e+00 -2.542290e+01 -4.714468e+01 -3.544337e+01 -6.869045e+00 1.335117e-10 6.869045e+00 3.544337e+01 4.714468e+01 2.542290e+01 -8.235669e+00 -2.146943e+01 2.821152e+00 5.590988e+00 7.026957e+00 9.638096e+00 1.192350e+01 1.344548e+01 1.342916e+01 1.116870e+01 6.461812e+00 
-1.846115e-11 -5.173609e+00 -8.962995e+00 -1.074854e+01 -1.068564e+01 -9.231670e+00 -6.970263e+00 -4.249918e+00 -1.542465e+00 1.457468e+00 8.234459e+00 1.119066e+01 1.265069e+01 1.075035e+01 -1.961570e+01 -2.898752e+01 2.058921e-10 2.898752e+01 1.961570e+01 -1.075035e+01 -1.265069e+01 -1.119066e+01 -8.234459e+00 -1.457468e+00 1.542465e+00 4.249918e+00 6.970263e+00 9.231670e+00 1.068564e+01 1.074854e+01 8.962995e+00 5.173609e+00 
-1.410722e-11 -3.898863e+00 -6.747025e+00 -7.984391e+00 -7.724463e+00 -6.257230e+00 -4.026426e+00 -1.342870e+00 1.525534e+00 4.439142e+00 6.687799e+00 9.644762e+00 4.549244e+00 1.949529e+01 3.066633e+01 1.619179e+01 -1.073546e-10 -1.619179e+01 -3.066633e+01 -1.949529e+01 -4.549244e+00 -9.644762e+00 -6.687799e+00 -4.439142e+00 -1.525534e+00 1.342870e+00 4.026426e+00 6.257230e+00 7.724463e+00 7.984391e+00 6.747025e+00 3.898863e+00 
-9.475282e-12 -2.743070e+00 -4.699887e+00 -5.403911e+00 -4.909447e+00 -3.414129e+00 -1.204412e+00 1.484467e+00 4.428470e+00 7.411536e+00 9.975993e+00 1.237341e+01 1.374695e+01 1.999549e+01 2.780203e+01 1.969954e+01 -1.396422e-10 -1.969954e+01 -2.780203e+01 -1.999549e+01 -1.374695e+01 -1.237341e+01 -9.975993e+00 -7.411536e+00 -4.428470e+00 -1.484467e+00 1.204412e+00 3.414129e+00 4.909447e+00 5.403911e+00 4.699887e+00 2.743070e+00 
-5.589059e-12 -1.770028e+00 -2.963245e+00 -3.210285e+00 -2.521657e+00 -9.999514e-01 1.199793e+00 3.909338e+00 6.930580e+00 9.931184e+00 1.254972e+01 1.465003e+01 1.690693e+01 2.072002e+01 2.358184e+01 1.621648e+01 -1.081606e-10 -1.621648e+01 -2.358184e+01 -2.072002e+01 -1.690693e+01 -1.465003e+01 -1.254972e+01 -9.931184e+00 -6.930580e+00 -3.909338e+00 -1.199793e+00 9.999514e-01 2.521657e+00 3.210285e+00 2.963245e+00 1.770028e+00 
-2.943067e-12 -1.017174e+00 -1.622811e+00 -1.537774e+00 -7.276618e-01 7.869048e-01 2.945944e+00 5.628574e+00 8.629773e+00 1.163115e+01 1.428086e+01 1.645610e+01 1.847165e+01 2.059959e+01 2.066675e+01 1.337335e+01 -8.292559e-11 -1.337335e+01 -2.066675e+01 -2.059959e+01 -1.847165e+01 -1.645610e+01 -1.428086e+01 -1.163115e+01 -8.629773e+00 -5.628574e+00 -2.945944e+00 -7.869048e-01 7.276618e-01 1.537774e+00 1.622811e+00 1.017174e+00 
-1.330469e-12 -5.014361e-01 -7.209798e-01 -4.521671e-01 3.707701e-01 1.780537e+00 3.767703e+00 6.233902e+00 9.011106e+00 1.181218e+01 1.439387e+01 1.653839e+01 1.819661e+01 1.904571e+01 1.742492e+01 1.067984e+01 -6.175802e-11 -1.067984e+01 -1.742492e+01 -1.904571e+01 -1.819661e+01 -1.653839e+01 -1.439387e+01 -1.181218e+01 -9.011106e+00 -6.233902e+00 -3.767703e+00 -1.780537e+00 -3.707701e-01 4.521671e-01 7.209798e-01 5.014361e-01 
-6.014647e-13 -1.941743e-01 -2.102814e-01 9.377065e-02 7.877658e-01 1.918701e+00 3.490689e+00 5.435296e+00 7.624384e+00 9.868624e+00 1.197454e+01 1.374544e+01 1.492573e+01 1.507258e+01 1.311098e+01 7.756393e+00 -4.214909e-11 -7.756393e+00 -1.311098e+01 -1.507258e+01 -1.492573e+01 -1.374544e+01 -1.197454e+01 -9.868624e+00 -7.624384e+00 -5.435296e+00 -3.490689e+00 -1.918701e+00 -7.877658e-01 -9.377065e-02 2.102814e-01 1.941743e-01 
-2.343020e-13 -5.314375e-02 -1.859664e-02 1.781480e-01 5.819747e-01 1.224811e+00 2.112809e+00 3.207838e+00 4.440961e+00 5.702389e+00 6.894834e+00 7.887863e+00 8.509085e+00 8.468191e+00 7.218322e+00 4.206326e+00 -2.690886e-11 -4.206326e+00 -7.218322e+00 -8.468191e+00 -8.509085e+00 -7.887863e+00 -6.894834e+00 -5.702389e+00 -4.440961e+00 -3.207838e+00 -2.112809e+00 -1.224811e+00 -5.819747e-01 -1.781480e-01 1.859664e-02 5.314375e-02 
