# vtk DataFile Version 2.0
Comment goes here
ASCII

DATASET STRUCTURED_POINTS
FIELD FieldData 1
TIME 1 1 double
0.82000000
DIMENSIONS    32   32   1

ORIGIN    0.000   0.000   0.000
SPACING   0.03125 0.03125   1.000

POINT_DATA   1024
SCALARS Omega double
LOOKUP_TABLE default

-4.579969e-14 -3.626436e-14 -3.593094e-14 -4.784965e-14 -9.083652e-14 -1.428928e-13 -1.946433e-13 -2.475174e-13 -2.586329e-13 -1.686480e-13 -1.583420e-13 -1.945021e-13 -3.416599e-13 -5.166330e-13 -7.037658e-13 -7.379923e-13 -1.083845e-12 -6.661851e-13 -5.023169e-14 -3.603319e-14 3.186762e-14 1.283115e-14 -4.754384e-14 -1.622357e-13 -1.925647e-13 -2.347423e-13 -1.915041e-13 -1.522151e-13 -6.989019e-14 -3.807826e-14 -4.286800e-14 -5.141690e-14 
-2.429034e-14 2.777280e-02 2.379639e-02 -5.044543e-02 -2.600093e-01 -7.162937e-01 -1.531413e+00 -2.767957e+00 -4.358903e+00 -6.199145e+00 -8.209959e+00 -1.027534e+01 -1.208124e+01 -1.286268e+01 -1.128882e+01 -6.577416e+00 -9.355071e-13 6.577416e+00 1.128882e+01 1.286268e+01 1.208124e+01 1.027534e+01 8.209959e+00 6.199145e+00 4.358903e+00 2.767957e+00 1.531413e+00 7.162937e-01 2.600093e-01 5.044543e-02 -2.379639e-02 -2.777280e-02 
-1.819659e-14 8.438499e-02 1.011911e-01 -1.232359e-02 -3.523381e-01 -1.094578e+00 -2.439886e+00 -4.530571e+00 -7.278289e+00 -1.046246e+01 -1.385292e+01 -1.720954e+01 -2.015962e+01 -2.162204e+01 -1.917237e+01 -1.118652e+01 -8.495033e-13 1.118652e+01 1.917237e+01 2.162204e+01 2.015962e+01 1.720954e+01 1.385292e+01 1.046246e+01 7.278289e+00 4.530571e+00 2.439886e+00 1.094578e+00 3.523381e-01 1.232359e-02 -1.011911e-01 -8.438499e-02 
-5.159991e-14 2.147784e-01 3.052340e-01 2.005384e-01 -1.752182e-01 -9.823242e-01 -2.451697e+00 -4.786561e+00 -7.934771e+00 -1.161437e+01 -1.553630e+01 -1.948893e+01 -2.362791e+01 -2.675517e+01 -2.471677e+01 -1.500832e+01 -1.000292e-12 1.500832e+01 2.471677e+01 2.675517e+01 2.362791e+01 1.948893e+01 1.553630e+01 1.161437e+01 7.934771e+00 4.786561e+00 2.451697e+00 9.823242e-01 1.752182e-01 -2.005384e-01 -3.052340e-01 -2.147784e-01 
-9.142455e-14 4.812364e-01 7.274354e-01 6.590376e-01 2.666276e-01 -5.121515e-01 -1.868624e+00 -4.024515e+00 -7.007467e+00 -1.055434e+01 -1.439873e+01 -1.855684e+01 -2.404365e+01 -3.043937e+01 -3.280334e+01 -2.271339e+01 -1.917264e-12 2.271339e+01 3.280334e+01 3.043937e+01 2.404365e+01 1.855684e+01 1.439873e+01 1.055434e+01 7.007467e+00 4.024515e+00 1.868624e+00 5.121515e-01 -2.666276e-01 -6.590376e-01 -7.274354e-01 -4.812364e-01 
-2.421303e-13 9.773614e-01 1.518373e+00 1.514386e+00 1.057249e+00 2.670678e-01 -9.366446e-01 -2.723747e+00 -5.197884e+00 -8.169357e+00 -1.157373e+01 -1.632938e+01 -2.369893e+01 -4.062135e+01 -5.429339e+01 -3.933659e+01 -3.985951e-12 3.933659e+01 5.429339e+01 4.062135e+01 2.369893e+01 1.632938e+01 1.157373e+01 8.169357e+00 5.197884e+00 2.723747e+00 9.366446e-01 -2.670678e-01 -1.057249e+00 -1.514386e+00 -1.518373e+00 -9.773614e-01 
-3.736215e-13 1.796811e+00 2.842309e+00 2.955406e+00 2.343227e+00 1.383508e+00 1.755932e-01 -1.330270e+00 -3.284730e+00 -5.498368e+00 -9.025190e+00 -2.180346e+01 -3.749432e+01 -3.887016e+01 4.101349e+00 3.256816e+01 -6.075219e-12 -3.256816e+01 -4.101349e+00 3.887016e+01 3.749432e+01 2.180346e+01 9.025190e+00 5.498368e+00 3.284730e+00 1.330270e+00 -1.755932e-01 -1.383508e+00 -2.343227e+00 -2.955406e+00 -2.842309e+00 -1.796811e+00 
-6.086850e-13 2.979028e+00 4.779703e+00 5.104858e+00 4.261830e+00 2.946676e+00 1.490699e+00 -1.491218e-02 -1.868742e+00 -2.579998e+00 -7.763491e+00 -1.216992e+01 2.856529e+01 9.426354e+01 1.012060e+02 4.704279e+01 1.578038e-12 -4.704279e+01 -1.012060e+02 -9.426354e+01 -2.856529e+01 1.216992e+01 7.763491e+00 2.579998e+00 1.868742e+00 1.491218e-02 -1.490699e+00 -2.946676e+00 -4.261830e+00 -5.104858e+00 -4.779703e+00 -2.979028e+00 
-7.539877e-13 4.502659e+00 7.310278e+00 7.968566e+00 6.849582e+00 5.011653e+00 3.041662e+00 1.144808e+00 -5.510630e-02 7.020431e+00 1.486778e+01 5.773053e+01 9.847125e+01 6.520661e+01 -1.796216e+00 -2.251727e+01 7.819033e-12 2.251727e+01 1.796216e+00 -6.520661e+01 -9.847125e+01 -5.773053e+01 -1.486778e+01 -7.020431e+00 5.510630e-02 -1.144808e+00 -3.041662e+00 -5.011653e+00 -6.849582e+00 -7.968566e+00 -7.310278e+00 -4.502659e+00 
-8.234356e-13 6.231778e+00 1.023486e+01 1.135242e+01 9.953472e+00 7.460092e+00 4.589796e+00 2.322125e+00 1.244579e+01 3.801071e+01 4.051709e+01 4.905454e+01 1.828605e+01 -4.235571e+01 -3.628602e+01 -1.048557e+01 3.576343e-12 1.048557e+01 3.628602e+01 4.235571e+01 -1.828605e+01 -4.905454e+01 -4.051709e+01 -3.801071e+01 -1.244579e+01 -2.322125e+00 -4.589796e+00 -7.460092e+00 -9.953472e+00 -1.135242e+01 -1.023486e+01 -6.231778e+00 
-7.180602e-13 7.961086e+00 1.328291e+01 1.500799e+01 1.335725e+01 1.015780e+01 6.424459e+00 7.602248e+00 3.598672e+01 3.072867e+01 7.895798e+00 1.510757e+01 -3.517781e+00 -1.573702e+01 4.405083e+00 9.357967e+00 1.482831e-12 -9.357967e+00 -4.405083e+00 1.573702e+01 3.517781e+00 -1.510757e+01 -7.895798e+00 -3.072867e+01 -3.598672e+01 -7.602248e+00 -6.424459e+00 -1.015780e+01 -1.335725e+01 -1.500799e+01 -1.328291e+01 -7.961086e+00 
-3.895445e-13 9.436122e+00 1.613307e+01 1.870638e+01 1.702049e+01 1.330838e+01 1.024887e+01 1.925037e+01 3.522559e+01 -9.952107e+00 8.095260e+00 2.295062e+01 -1.322573e+01 2.025470e+00 1.351721e+01 1.184984e+01 5.531598e-13 -1.184984e+01 -1.351721e+01 -2.025470e+00 1.322573e+01 -2.295062e+01 -8.095260e+00 9.952107e+00 -3.522559e+01 -1.925037e+01 -1.024887e+01 -1.330838e+01 -1.702049e+01 -1.870638e+01 -1.613307e+01 -9.436122e+00 
3.809072e-14 1.050660e+01 1.862182e+01 2.244257e+01 2.142536e+01 1.702138e+01 1.555613e+01 3.165953e+01 2.843110e+00 -2.021181e+01 2.949903e+01 6.637095e+00 -1.707347e+01 2.349020e+00 7.137988e+00 6.605084e+00 1.162749e-13 -6.605084e+00 -7.137988e+00 -2.349020e+00 1.707347e+01 -6.637095e+00 -2.949903e+01 2.021181e+01 -2.843110e+00 -3.165953e+01 -1.555613e+01 -1.702138e+01 -2.142536e+01 -2.244257e+01 -1.862182e+01 -1.050660e+01 
4.927443e-13 1.115410e+01 2.071399e+01 2.650046e+01 2.776515e+01 2.477896e+01 2.487439e+01 3.183149e+01 -3.247063e+01 -1.016165e+00 3.680544e+01 -1.809813e+01 -1.052071e+01 -1.201921e+00 1.832718e+00 2.474401e+00 -1.381283e-14 -2.474401e+00 -1.832718e+00 1.201921e+00 1.052071e+01 1.809813e+01 -3.680544e+01 1.016165e+00 3.247063e+01 -3.183149e+01 -2.487439e+01 -2.477896e+01 -2.776515e+01 -2.650046e+01 -2.071399e+01 -1.115410e+01 
7.780989e-13 1.115955e+01 2.166857e+01 2.945366e+01 3.304137e+01 3.072520e+01 2.571709e+01 1.422305e+01 -3.608604e+01 1.476684e+01 2.722167e+01 -2.547892e+01 -9.901919e+00 -3.569805e+00 -6.821073e-01 4.049118e-01 -3.269909e-14 -4.049118e-01 6.821073e-01 3.569805e+00 9.901919e+00 2.547892e+01 -2.722167e+01 -1.476684e+01 3.608604e+01 -1.422305e+01 -2.571709e+01 -3.072520e+01 -3.304137e+01 -2.945366e+01 -2.166857e+01 -1.115955e+01 
7.652528e-13 8.616224e+00 1.701048e+01 2.317228e+01 2.487367e+01 1.983976e+01 1.019353e+01 -3.158735e+00 -1.554287e+01 1.356741e+01 9.462652e+00 -1.764490e+01 -7.880322e+00 -3.433834e+00 -1.214536e+00 -2.264047e-01 2.703820e-14 2.264047e-01 1.214536e+00 3.433834e+00 7.880322e+00 1.764490e+01 -9.462652e+00 -1.356741e+01 1.554287e+01 3.158735e+00 -1.019353e+01 -1.983976e+01 -2.487367e+01 -2.317228e+01 -1.701048e+01 -8.616224e+00 
2.662815e-13 -4.715052e-13 -1.339643e-12 -1.731269e-12 -1.349186e-12 -3.747023e-13 2.711019e-13 -5.790850e-13 -2.068594e-12 -3.277177e-14 5.769614e-13 -8.324728e-13 -1.277066e-13 5.041065e-14 5.253435e-14 7.069280e-15 8.002991e-15 6.913874e-14 2.663362e-13 6.790761e-13 1.559902e-12 1.575539e-12 3.363602e-12 5.130265e-12 -3.440662e-13 -2.457468e-12 -2.358522e-12 -3.308666e-12 -3.144846e-12 -1.661032e-12 -3.114237e-13 3.772099e-13 
7.031530e-14 -8.616224e+00 -1.701048e+01 -2.317228e+01 -2.487367e+01 -1.983976e+01 -1.019353e+01 3.158735e+00 1.554287e+01 -1.356741e+01 -9.462652e+00 1.764490e+01 7.880322e+00 3.433834e+00 1.214536e+00 2.264047e-01 -1.892238e-14 -2.264047e-01 -1.214536e+00 -3.433834e+00 -7.880322e+00 -1.764490e+01 9.462652e+00 1.356741e+01 -1.554287e+01 -3.158735e+00 1.019353e+01 1.983976e+01 2.487367e+01 2.317228e+01 1.701048e+01 8.616224e+00 
1.651069e-13 -1.115955e+01 -2.166857e+01 -2.945366e+01 -3.304137e+01 -3.072520e+01 -2.571709e+01 -1.422305e+01 3.608604e+01 -1.476684e+01 -2.722167e+01 2.547892e+01 9.901919e+00 3.569805e+00 6.821073e-01 -4.049118e-01 1.261982e-14 4.049118e-01 -6.821073e-01 -3.569805e+00 -9.901919e+00 -2.547892e+01 2.722167e+01 1.476684e+01 -3.608604e+01 1.422305e+01 2.571709e+01 3.072520e+01 3.304137e+01 2.945366e+01 2.166857e+01 1.115955e+01 
-1.920095e-13 -1.115410e+01 -2.071399e+01 -2.650046e+01 -2.776515e+01 -2.477896e+01 -2.487439e+01 -3.183149e+01 3.247063e+01 1.016165e+00 -3.680544e+01 1.809813e+01 1.052071e+01 1.201921e+00 -1.832718e+00 -2.474401e+00 1.248651e-13 2.474401e+00 1.832718e+00 -1.201921e+00 -1.052071e+01 -1.809813e+01 3.680544e+01 -1.016165e+00 -3.247063e+01 3.183149e+01 2.487439e+01 2.477896e+01 2.776515e+01 2.650046e+01 2.071399e+01 1.115410e+01 
-6.809369e-13 -1.050660e+01 -1.862182e+01 -2.244257e+01 -2.142536e+01 -1.702138e+01 -1.555613e+01 -3.165953e+01 -2.843110e+00 2.021181e+01 -2.949903e+01 -6.637095e+00 1.707347e+01 -2.349020e+00 -7.137988e+00 -6.605084e+00 6.714876e-13 6.605084e+00 7.137988e+00 2.349020e+00 -1.707347e+01 6.637095e+00 2.949903e+01 -2.021181e+01 2.843110e+00 3.165953e+01 1.555613e+01 1.702138e+01 2.142536e+01 2.244257e+01 1.862182e+01 1.050660e+01 
-1.038761e-12 -9.436122e+00 -1.613307e+01 -1.870638e+01 -1.702049e+01 -1.330838e+01 -1.024887e+01 -1.925037e+01 -3.522559e+01 9.952107e+00 -8.095260e+00 -2.295062e+01 1.322573e+01 -2.025470e+00 -1.351721e+01 -1.184984e+01 2.253322e-12 1.184984e+01 1.351721e+01 2.025470e+00 -1.322573e+01 2.295062e+01 8.095260e+00 -9.952107e+00 3.522559e+01 1.925037e+01 1.024887e+01 1.330838e+01 1.702049e+01 1.870638e+01 1.613307e+01 9.436122e+00 
-1.172939e-12 -7.961086e+00 -1.328291e+01 -1.500799e+01 -1.335725e+01 -1.015780e+01 -6.424459e+00 -7.602248e+00 -3.598672e+01 -3.072867e+01 -7.895798e+00 -1.510757e+01 3.517781e+00 1.573702e+01 -4.405083e+00 -9.357967e+00 3.904987e-12 9.357967e+00 4.405083e+00 -1.573702e+01 -3.517781e+00 1.510757e+01 7.895798e+00 3.072867e+01 3.598672e+01 7.602248e+00 6.424459e+00 1.015780e+01 1.335725e+01 1.500799e+01 1.328291e+01 7.961086e+00 
-1.123545e-12 -6.231778e+00 -1.023486e+01 -1.135242e+01 -9.953472e+00 -7.460092e+00 -4.589796e+00 -2.322125e+00 -1.244579e+01 -3.801071e+01 -4.051709e+01 -4.905454e+01 -1.828605e+01 4.235571e+01 3.628602e+01 1.048557e+01 -2.759511e-12 -1.048557e+01 -3.628602e+01 -4.235571e+01 1.828605e+01 4.905454e+01 4.051709e+01 3.801071e+01 1.244579e+01 2.322125e+00 4.589796e+00 7.460092e+00 9.953472e+00 1.135242e+01 1.023486e+01 6.231778e+00 
-8.899103e-13 -4.502659e+00 -7.310278e+00 -7.968566e+00 -6.849582e+00 -5.011653e+00 -3.041662e+00 -1.144808e+00 5.510630e-02 -7.020431e+00 -1.486778e+01 -5.773053e+01 -9.847125e+01 -6.520661e+01 1.796216e+00 2.251727e+01 -8.166110e-12 -2.251727e+01 -1.796216e+00 6.520661e+01 9.847125e+01 5.773053e+01 1.486778e+01 7.020431e+00 -5.510630e-02 1.144808e+00 3.041662e+00 5.011653e+00 6.849582e+00 7.968566e+00 7.310278e+00 4.502659e+00 
-6.379706e-13 -2.979028e+00 -4.779703e+00 -5.104858e+00 -4.261830e+00 -2.946676e+00 -1.490699e+00 1.491218e-02 1.868742e+00 2.579998e+00 7.763491e+00 1.216992e+01 -2.856529e+01 -9.426354e+01 -1.012060e+02 -4.704279e+01 3.065078e-12 4.704279e+01 1.012060e+02 9.426354e+01 2.856529e+01 -1.216992e+01 -7.763491e+00 -2.579998e+00 -1.868742e+00 -1.491218e-02 1.490699e+00 2.946676e+00 4.261830e+00 5.104858e+00 4.779703e+00 2.979028e+00 
-3.681038e-13 -1.796811e+00 -2.842309e+00 -2.955406e+00 -2.343227e+00 -1.383508e+00 -1.755932e-01 1.330270e+00 3.284730e+00 5.498368e+00 9.025190e+00 2.180346e+01 3.749432e+01 3.887016e+01 -4.101349e+00 -3.256816e+01 2.752641e-12 3.256816e+01 4.101349e+00 -3.887016e+01 -3.749432e+01 -2.180346e+01 -9.025190e+00 -5.498368e+00 -3.284730e+00 -1.330270e+00 1.755932e-01 1.383508e+00 2.343227e+00 2.955406e+00 2.842309e+00 1.796811e+00 
-2.132294e-13 -9.773614e-01 -1.518373e+00 -1.514386e+00 -1.057249e+00 -2.670678e-01 9.366446e-01 2.723747e+00 5.197884e+00 8.169357e+00 1.157373e+01 1.632938e+01 2.369893e+01 4.062135e+01 5.429339e+01 3.933659e+01 -4.409127e-12 -3.933659e+01 -5.429339e+01 -4.062135e+01 -2.369893e+01 -1.632938e+01 -1.157373e+01 -8.169357e+00 -5.197884e+00 -2.723747e+00 -9.366446e-01 2.670678e-01 1.057249e+00 1.514386e+00 1.518373e+00 9.773614e-01 
-9.259171e-14 -4.812364e-01 -7.274354e-01 -6.590376e-01 -2.666276e-01 5.121515e-01 1.868624e+00 4.024515e+00 7.007467e+00 1.055434e+01 1.439873e+01 1.855684e+01 2.404365e+01 3.043937e+01 3.280334e+01 2.271339e+01 -3.053392e-12 -2.271339e+01 -3.280334e+01 -3.043937e+01 -2.404365e+01 -1.855684e+01 -1.439873e+01 -1.055434e+01 -7.007467e+00 -4.024515e+00 -1.868624e+00 -5.121515e-01 2.666276e-01 6.590376e-01 7.274354e-01 4.812364e-01 
-4.394599e-14 -2.147784e-01 -3.052340e-01 -2.005384e-01 1.752182e-01 9.823242e-01 2.451697e+00 4.786561e+00 7.934771e+00 1.161437e+01 1.553630e+01 1.948893e+01 2.362791e+01 2.675517e+01 2.471677e+01 1.500832e+01 -1.591639e-12 -1.500832e+01 -2.471677e+01 -2.675517e+01 -2.362791e+01 -1.948893e+01 -1.553630e+01 -1.161437e+01 -7.934771e+00 -4.786561e+00 -2.451697e+00 -9.823242e-01 -1.752182e-01 2.005384e-01 3.052340e-01 2.147784e-01 
-4.017577e-14 -8.438499e-02 -1.011911e-01 1.232359e-02 3.523381e-01 1.094578e+00 2.439886e+00 4.530571e+00 7.278289e+00 1.046246e+01 1.385292e+01 1.720954e+01 2.015962e+01 2.162204e+01 1.917237e+01 1.118652e+01 -1.083814e-12 -1.118652e+01 -1.917237e+01 -2.162204e+01 -2.015962e+01 -1.720954e+01 -1.385292e+01 -1.046246e+01 -7.278289e+00 -4.530571e+00 -2.439886e+00 -1.094578e+00 -3.523381e-01 -1.232359e-02 1.011911e-01 8.438499e-02 
-3.433364e-14 -2.777280e-02 -2.379639e-02 5.044543e-02 2.600093e-01 7.162937e-01 1.531413e+00 2.767957e+00 4.358903e+00 6.199145e+00 8.209959e+00 1.027534e+01 1.208124e+01 1.286268e+01 1.128882e+01 6.577416e+00 -1.103813e-12 -6.577416e+00 -1.128882e+01 -1.286268e+01 -1.208124e+01 -1.027534e+01 -8.209959e+00 -6.199145e+00 -4.358903e+00 -2.767957e+00 -1.531413e+00 -7.162937e-01 -2.600093e-01 -5.044543e-02 2.379639e-02 2.777280e-02 
