# vtk DataFile Version 2.0
Comment goes here
ASCII

DATASET STRUCTURED_POINTS
FIELD FieldData 1
TIME 1 1 double
1.02000000
DIMENSIONS    32   32   1

ORIGIN    0.000   0.000   0.000
SPACING   0.03125 0.03125   1.000

POINT_DATA   1024
SCALARS Omega double
LOOKUP_TABLE default

-9.093899e-14 -8.881644e-14 -7.381733e-14 -1.147448e-13 -1.128073e-13 -1.536991e-13 -1.015980e-13 -1.310305e-14 2.193707e-13 5.624782e-13 1.011588e-12 1.295733e-12 1.439337e-12 1.381154e-12 1.173495e-12 5.674418e-13 4.255626e-15 3.887769e-14 1.867677e-13 3.799554e-13 7.449865e-13 1.030372e-12 1.160817e-12 9.380814e-13 6.068599e-13 2.988763e-13 5.310122e-14 -8.175417e-15 -7.319356e-14 -7.973092e-14 -9.414619e-14 -8.679082e-14 
-6.186323e-14 4.397518e-02 2.677670e-02 -1.048393e-01 -4.170477e-01 -9.881224e-01 -1.874384e+00 -3.092050e+00 -4.572126e+00 -6.233056e+00 -7.939336e+00 -9.463384e+00 -1.047283e+01 -1.056705e+01 -9.248178e+00 -5.765053e+00 -4.998900e-14 5.765053e+00 9.248178e+00 1.056705e+01 1.047283e+01 9.463384e+00 7.939336e+00 6.233056e+00 4.572126e+00 3.092050e+00 1.874384e+00 9.881224e-01 4.170477e-01 1.048393e-01 -2.677670e-02 -4.397518e-02 
-9.914744e-14 1.556176e-01 1.820358e-01 -1.134150e-02 -5.218533e-01 -1.469258e+00 -2.959081e+00 -5.043061e+00 -7.606982e+00 -1.049278e+01 -1.345858e+01 -1.614981e+01 -1.811361e+01 -1.875044e+01 -1.711290e+01 -1.135564e+01 -1.575056e-13 1.135564e+01 1.711290e+01 1.875044e+01 1.811361e+01 1.614981e+01 1.345858e+01 1.049278e+01 7.606982e+00 5.043061e+00 2.959081e+00 1.469258e+00 5.218533e-01 1.134150e-02 -1.820358e-01 -1.556176e-01 
-1.837093e-13 4.049541e-01 5.829104e-01 4.175586e-01 -1.710365e-01 -1.276141e+00 -3.019072e+00 -5.490093e+00 -8.566781e+00 -1.200937e+01 -1.553483e+01 -1.878229e+01 -2.146076e+01 -2.325775e+01 -2.313779e+01 -1.712942e+01 -8.130294e-13 1.712942e+01 2.313779e+01 2.325775e+01 2.146076e+01 1.878229e+01 1.553483e+01 1.200937e+01 8.566781e+00 5.490093e+00 3.019072e+00 1.276141e+00 1.710365e-01 -4.175586e-01 -5.829104e-01 -4.049541e-01 
-3.356285e-13 8.752091e-01 1.364918e+00 1.321635e+00 7.232796e-01 -4.044190e-01 -2.125115e+00 -4.540494e+00 -7.566937e+00 -1.097601e+01 -1.452274e+01 -1.791370e+01 -2.158049e+01 -2.585587e+01 -2.921565e+01 -2.406689e+01 -1.914080e-12 2.406689e+01 2.921565e+01 2.585587e+01 2.158049e+01 1.791370e+01 1.452274e+01 1.097601e+01 7.566937e+00 4.540494e+00 2.125115e+00 4.044190e-01 -7.232796e-01 -1.321635e+00 -1.364918e+00 -8.752091e-01 
-4.923853e-13 1.642781e+00 2.659088e+00 2.843158e+00 2.237657e+00 1.061559e+00 -6.087708e-01 -2.813083e+00 -5.536538e+00 -8.571389e+00 -1.182220e+01 -1.523041e+01 -1.932070e+01 -2.511457e+01 -3.457555e+01 -3.006163e+01 -3.052873e-12 3.006163e+01 3.457555e+01 2.511457e+01 1.932070e+01 1.523041e+01 1.182220e+01 8.571389e+00 5.536538e+00 2.813083e+00 6.087708e-01 -1.061559e+00 -2.237657e+00 -2.843158e+00 -2.659088e+00 -1.642781e+00 
-6.296639e-13 2.738277e+00 4.524352e+00 5.064559e+00 4.444291e+00 3.125009e+00 1.374679e+00 -6.880889e-01 -3.090806e+00 -5.622872e+00 -7.892496e+00 -1.132837e+01 -1.421382e+01 -2.241486e+01 -3.901830e+01 -3.025118e+01 -2.513932e-12 3.025118e+01 3.901830e+01 2.241486e+01 1.421382e+01 1.132837e+01 7.892496e+00 5.622872e+00 3.090806e+00 6.880889e-01 -1.374679e+00 -3.125009e+00 -4.444291e+00 -5.064559e+00 -4.524352e+00 -2.738277e+00 
-6.442429e-13 4.130115e+00 6.917525e+00 7.944707e+00 7.323335e+00 5.775630e+00 3.773944e+00 1.673897e+00 -6.162279e-01 -2.425924e+00 -2.971529e+00 -1.403434e+01 -1.520901e+01 -2.805441e+01 -3.391210e+01 -6.406289e+00 4.127401e-12 6.406289e+00 3.391210e+01 2.805441e+01 1.520901e+01 1.403434e+01 2.971529e+00 2.425924e+00 6.162279e-01 -1.673897e+00 -3.773944e+00 -5.775630e+00 -7.323335e+00 -7.944707e+00 -6.917525e+00 -4.130115e+00 
-5.216804e-13 5.698952e+00 9.637585e+00 1.122380e+01 1.059448e+01 8.770805e+00 6.407285e+00 4.063051e+00 1.811083e+00 3.284671e+00 -1.115558e+01 -3.513206e+01 -9.406718e+00 3.370931e+01 5.571971e+01 3.949047e+01 1.332376e-11 -3.949047e+01 -5.571971e+01 -3.370931e+01 9.406718e+00 3.513206e+01 1.115558e+01 -3.284671e+00 -1.811083e+00 -4.063051e+00 -6.407285e+00 -8.770805e+00 -1.059448e+01 -1.122380e+01 -9.637585e+00 -5.698952e+00 
-3.850101e-13 7.295176e+00 1.244233e+01 1.457031e+01 1.389353e+01 1.172957e+01 8.999617e+00 6.904371e+00 6.105158e+00 8.353518e+00 -6.787426e+00 2.014527e+01 5.140470e+01 4.015195e+01 2.110445e+01 -2.757846e+00 7.106579e-12 2.757846e+00 -2.110445e+01 -4.015195e+01 -5.140470e+01 -2.014527e+01 6.787426e+00 -8.353518e+00 -6.105158e+00 -6.904371e+00 -8.999617e+00 -1.172957e+01 -1.389353e+01 -1.457031e+01 -1.244233e+01 -7.295176e+00 
-2.830514e-13 8.772770e+00 1.508439e+01 1.766577e+01 1.690575e+01 1.459121e+01 1.230108e+01 1.458144e+01 1.863227e+01 1.038755e+01 1.628851e+01 2.895228e+01 2.528426e+00 -2.106978e+01 -2.232935e+01 -1.464317e+01 -4.806927e-12 1.464317e+01 2.232935e+01 2.106978e+01 -2.528426e+00 -2.895228e+01 -1.628851e+01 -1.038755e+01 -1.863227e+01 -1.458144e+01 -1.230108e+01 -1.459121e+01 -1.690575e+01 -1.766577e+01 -1.508439e+01 -8.772770e+00 
-2.718251e-13 1.006614e+01 1.743724e+01 2.035634e+01 1.948943e+01 1.776220e+01 2.144510e+01 3.191698e+01 4.675244e+00 -3.193032e+01 -6.094696e-01 -8.383623e+00 -1.662528e+01 4.144995e+00 1.098285e+01 1.385245e+01 -4.134948e-12 -1.385245e+01 -1.098285e+01 -4.144995e+00 1.662528e+01 8.383623e+00 6.094696e-01 3.193032e+01 -4.675244e+00 -3.191698e+01 -2.144510e+01 -1.776220e+01 -1.948943e+01 -2.035634e+01 -1.743724e+01 -1.006614e+01 
-3.081094e-13 1.111872e+01 1.945217e+01 2.281757e+01 2.227724e+01 2.155191e+01 2.634437e+01 2.851061e+01 -4.342917e+01 -3.481329e+01 1.647051e+01 -6.620099e+00 9.486080e+00 1.424999e+01 7.356592e+00 8.349448e+00 -1.990674e-12 -8.349448e+00 -7.356592e+00 -1.424999e+01 -9.486080e+00 6.620099e+00 -1.647051e+01 3.481329e+01 4.342917e+01 -2.851061e+01 -2.634437e+01 -2.155191e+01 -2.227724e+01 -2.281757e+01 -1.945217e+01 -1.111872e+01 
-4.672306e-13 1.167799e+01 2.071427e+01 2.493046e+01 2.558111e+01 2.664168e+01 3.812865e+01 -1.389751e+01 -7.683363e+01 1.839073e+01 3.344835e+01 -1.629709e+01 -4.379543e+00 2.505335e+00 3.741329e+00 4.037462e+00 -4.829425e-13 -4.037462e+00 -3.741329e+00 -2.505335e+00 4.379543e+00 1.629709e+01 -3.344835e+01 -1.839073e+01 7.683363e+01 1.389751e+01 -3.812865e+01 -2.664168e+01 -2.558111e+01 -2.493046e+01 -2.071427e+01 -1.167799e+01 
-9.394771e-13 1.092317e+01 1.952826e+01 2.409032e+01 2.553886e+01 2.761336e+01 3.664810e+01 -5.597929e+01 -4.044217e+01 6.226547e+01 1.112059e+01 -1.822625e+01 -8.037479e+00 -1.376725e+00 8.984732e-01 1.372113e+00 -9.442957e-15 -1.372113e+00 -8.984732e-01 1.376725e+00 8.037479e+00 1.822625e+01 -1.112059e+01 -6.226547e+01 4.044217e+01 5.597929e+01 -3.664810e+01 -2.761336e+01 -2.553886e+01 -2.409032e+01 -1.952826e+01 -1.092317e+01 
-1.629999e-12 7.198175e+00 1.269819e+01 1.560323e+01 1.644487e+01 1.714911e+01 1.189334e+01 -4.145999e+01 6.759291e+00 4.644163e+01 -8.730189e+00 -1.723460e+01 -6.629531e+00 -1.921547e+00 -3.030511e-01 2.469268e-01 7.060899e-14 -2.469268e-01 3.030511e-01 1.921547e+00 6.629531e+00 1.723460e+01 8.730189e+00 -4.644163e+01 -6.759291e+00 4.145999e+01 -1.189334e+01 -1.714911e+01 -1.644487e+01 -1.560323e+01 -1.269819e+01 -7.198175e+00 
-2.589828e-12 -2.039263e-12 -1.359109e-12 2.119979e-14 1.726943e-12 3.241203e-12 3.820418e-12 -4.717555e-12 -1.101817e-12 3.696566e-12 -7.330335e-13 -2.036428e-12 -9.899261e-13 -5.624658e-14 -3.030392e-14 1.072427e-13 9.800564e-14 1.371761e-13 6.382758e-14 5.997788e-13 1.541865e-12 8.665789e-12 9.466865e-12 -1.099189e-12 -8.607824e-12 -1.451614e-11 8.095485e-12 1.130907e-11 7.441742e-12 2.333113e-12 -1.884350e-12 -3.104345e-12 
-2.471006e-12 -7.198175e+00 -1.269819e+01 -1.560323e+01 -1.644487e+01 -1.714911e+01 -1.189334e+01 4.145999e+01 -6.759291e+00 -4.644163e+01 8.730189e+00 1.723460e+01 6.629531e+00 1.921547e+00 3.030511e-01 -2.469268e-01 1.315325e-13 2.469268e-01 -3.030511e-01 -1.921547e+00 -6.629531e+00 -1.723460e+01 -8.730189e+00 4.644163e+01 6.759291e+00 -4.145999e+01 1.189334e+01 1.714911e+01 1.644487e+01 1.560323e+01 1.269819e+01 7.198175e+00 
-1.761928e-12 -1.092317e+01 -1.952826e+01 -2.409032e+01 -2.553886e+01 -2.761336e+01 -3.664810e+01 5.597929e+01 4.044217e+01 -6.226547e+01 -1.112059e+01 1.822625e+01 8.037479e+00 1.376725e+00 -8.984732e-01 -1.372113e+00 -5.920005e-14 1.372113e+00 8.984732e-01 -1.376725e+00 -8.037479e+00 -1.822625e+01 1.112059e+01 6.226547e+01 -4.044217e+01 -5.597929e+01 3.664810e+01 2.761336e+01 2.553886e+01 2.409032e+01 1.952826e+01 1.092317e+01 
-1.479808e-12 -1.167799e+01 -2.071427e+01 -2.493046e+01 -2.558111e+01 -2.664168e+01 -3.812865e+01 1.389751e+01 7.683363e+01 -1.839073e+01 -3.344835e+01 1.629709e+01 4.379543e+00 -2.505335e+00 -3.741329e+00 -4.037462e+00 -1.261978e-12 4.037462e+00 3.741329e+00 2.505335e+00 -4.379543e+00 -1.629709e+01 3.344835e+01 1.839073e+01 -7.683363e+01 -1.389751e+01 3.812865e+01 2.664168e+01 2.558111e+01 2.493046e+01 2.071427e+01 1.167799e+01 
-1.291702e-12 -1.111872e+01 -1.945217e+01 -2.281757e+01 -2.227724e+01 -2.155191e+01 -2.634437e+01 -2.851061e+01 4.342917e+01 3.481329e+01 -1.647051e+01 6.620099e+00 -9.486080e+00 -1.424999e+01 -7.356592e+00 -8.349448e+00 -5.163588e-12 8.349448e+00 7.356592e+00 1.424999e+01 9.486080e+00 -6.620099e+00 1.647051e+01 -3.481329e+01 -4.342917e+01 2.851061e+01 2.634437e+01 2.155191e+01 2.227724e+01 2.281757e+01 1.945217e+01 1.111872e+01 
-1.155713e-12 -1.006614e+01 -1.743724e+01 -2.035634e+01 -1.948943e+01 -1.776220e+01 -2.144510e+01 -3.191698e+01 -4.675244e+00 3.193032e+01 6.094696e-01 8.383623e+00 1.662528e+01 -4.144995e+00 -1.098285e+01 -1.385245e+01 -1.024770e-11 1.385245e+01 1.098285e+01 4.144995e+00 -1.662528e+01 -8.383623e+00 -6.094696e-01 -3.193032e+01 4.675244e+00 3.191698e+01 2.144510e+01 1.776220e+01 1.948943e+01 2.035634e+01 1.743724e+01 1.006614e+01 
-1.037011e-12 -8.772770e+00 -1.508439e+01 -1.766577e+01 -1.690575e+01 -1.459121e+01 -1.230108e+01 -1.458144e+01 -1.863227e+01 -1.038755e+01 -1.628851e+01 -2.895228e+01 -2.528426e+00 2.106978e+01 2.232935e+01 1.464317e+01 -6.222217e-12 -1.464317e+01 -2.232935e+01 -2.106978e+01 2.528426e+00 2.895228e+01 1.628851e+01 1.038755e+01 1.863227e+01 1.458144e+01 1.230108e+01 1.459121e+01 1.690575e+01 1.766577e+01 1.508439e+01 8.772770e+00 
-1.063635e-12 -7.295176e+00 -1.244233e+01 -1.457031e+01 -1.389353e+01 -1.172957e+01 -8.999617e+00 -6.904371e+00 -6.105158e+00 -8.353518e+00 6.787426e+00 -2.014527e+01 -5.140470e+01 -4.015195e+01 -2.110445e+01 2.757846e+00 2.163079e-11 -2.757846e+00 2.110445e+01 4.015195e+01 5.140470e+01 2.014527e+01 -6.787426e+00 8.353518e+00 6.105158e+00 6.904371e+00 8.999617e+00 1.172957e+01 1.389353e+01 1.457031e+01 1.244233e+01 7.295176e+00 
-1.076571e-12 -5.698952e+00 -9.637585e+00 -1.122380e+01 -1.059448e+01 -8.770805e+00 -6.407285e+00 -4.063051e+00 -1.811083e+00 -3.284671e+00 1.115558e+01 3.513206e+01 9.406718e+00 -3.370931e+01 -5.571971e+01 -3.949047e+01 3.444266e-11 3.949047e+01 5.571971e+01 3.370931e+01 -9.406718e+00 -3.513206e+01 -1.115558e+01 3.284671e+00 1.811083e+00 4.063051e+00 6.407285e+00 8.770805e+00 1.059448e+01 1.122380e+01 9.637585e+00 5.698952e+00 
-1.082640e-12 -4.130115e+00 -6.917525e+00 -7.944707e+00 -7.323335e+00 -5.775630e+00 -3.773944e+00 -1.673897e+00 6.162279e-01 2.425924e+00 2.971529e+00 1.403434e+01 1.520901e+01 2.805441e+01 3.391210e+01 6.406289e+00 7.567141e-12 -6.406289e+00 -3.391210e+01 -2.805441e+01 -1.520901e+01 -1.403434e+01 -2.971529e+00 -2.425924e+00 -6.162279e-01 1.673897e+00 3.773944e+00 5.775630e+00 7.323335e+00 7.944707e+00 6.917525e+00 4.130115e+00 
-9.076314e-13 -2.738277e+00 -4.524352e+00 -5.064559e+00 -4.444291e+00 -3.125009e+00 -1.374679e+00 6.880889e-01 3.090806e+00 5.622872e+00 7.892496e+00 1.132837e+01 1.421382e+01 2.241486e+01 3.901830e+01 3.025118e+01 -1.481265e-11 -3.025118e+01 -3.901830e+01 -2.241486e+01 -1.421382e+01 -1.132837e+01 -7.892496e+00 -5.622872e+00 -3.090806e+00 -6.880889e-01 1.374679e+00 3.125009e+00 4.444291e+00 5.064559e+00 4.524352e+00 2.738277e+00 
-6.630950e-13 -1.642781e+00 -2.659088e+00 -2.843158e+00 -2.237657e+00 -1.061559e+00 6.087708e-01 2.813083e+00 5.536538e+00 8.571389e+00 1.182220e+01 1.523041e+01 1.932070e+01 2.511457e+01 3.457555e+01 3.006163e+01 -1.618133e-11 -3.006163e+01 -3.457555e+01 -2.511457e+01 -1.932070e+01 -1.523041e+01 -1.182220e+01 -8.571389e+00 -5.536538e+00 -2.813083e+00 -6.087708e-01 1.061559e+00 2.237657e+00 2.843158e+00 2.659088e+00 1.642781e+00 
-4.046489e-13 -8.752091e-01 -1.364918e+00 -1.321635e+00 -7.232796e-01 4.044190e-01 2.125115e+00 4.540494e+00 7.566937e+00 1.097601e+01 1.452274e+01 1.791370e+01 2.158049e+01 2.585587e+01 2.921565e+01 2.406689e+01 -1.132785e-11 -2.406689e+01 -2.921565e+01 -2.585587e+01 -2.158049e+01 -1.791370e+01 -1.452274e+01 -1.097601e+01 -7.566937e+00 -4.540494e+00 -2.125115e+00 -4.044190e-01 7.232796e-01 1.321635e+00 1.364918e+00 8.752091e-01 
-2.410158e-13 -4.049541e-01 -5.829104e-01 -4.175586e-01 1.710365e-01 1.276141e+00 3.019072e+00 5.490093e+00 8.566781e+00 1.200937e+01 1.553483e+01 1.878229e+01 2.146076e+01 2.325775e+01 2.313779e+01 1.712942e+01 -6.040621e-12 -1.712942e+01 -2.313779e+01 -2.325775e+01 -2.146076e+01 -1.878229e+01 -1.553483e+01 -1.200937e+01 -8.566781e+00 -5.490093e+00 -3.019072e+00 -1.276141e+00 -1.710365e-01 4.175586e-01 5.829104e-01 4.049541e-01 
-1.089445e-13 -1.556176e-01 -1.820358e-01 1.134150e-02 5.218533e-01 1.469258e+00 2.959081e+00 5.043061e+00 7.606982e+00 1.049278e+01 1.345858e+01 1.614981e+01 1.811361e+01 1.875044e+01 1.711290e+01 1.135564e+01 -2.154563e-12 -1.135564e+01 -1.711290e+01 -1.875044e+01 -1.811361e+01 -1.614981e+01 -1.345858e+01 -1.049278e+01 -7.606982e+00 -5.043061e+00 -2.959081e+00 -1.469258e+00 -5.218533e-01 -1.134150e-02 1.820358e-01 1.556176e-01 
-7.814656e-14 -4.397518e-02 -2.677670e-02 1.048393e-01 4.170477e-01 9.881224e-01 1.874384e+00 3.092050e+00 4.572126e+00 6.233056e+00 7.939336e+00 9.463384e+00 1.047283e+01 1.056705e+01 9.248178e+00 5.765053e+00 -4.084554e-13 -5.765053e+00 -9.248178e+00 -1.056705e+01 -1.047283e+01 -9.463384e+00 -7.939336e+00 -6.233056e+00 -4.572126e+00 -3.092050e+00 -1.874384e+00 -9.881224e-01 -4.170477e-01 -1.048393e-01 2.677670e-02 4.397518e-02 
