# vtk DataFile Version 2.0
Comment goes here
ASCII

DATASET STRUCTURED_POINTS
FIELD FieldData 1
TIME 1 1 double
0.78000000
DIMENSIONS    32   32   1

ORIGIN    0.000   0.000   0.000
SPACING   0.03125 0.03125   1.000

POINT_DATA   1024
SCALARS Omega double
LOOKUP_TABLE default

-2.218473e-15 -8.828673e-15 -2.762837e-14 -6.434053e-14 -6.176165e-14 -1.256012e-13 -2.024610e-13 -2.403503e-13 -2.657987e-13 -1.677531e-13 -6.278749e-14 -5.978863e-14 -1.463589e-13 -3.501152e-13 -6.588643e-13 -9.265708e-13 -1.029210e-12 -5.576882e-13 -8.753752e-14 1.351266e-14 8.833767e-14 8.960355e-14 -5.267620e-15 -1.026572e-13 -1.940954e-13 -2.181072e-13 -1.986963e-13 -1.409212e-13 -9.778536e-14 -4.653109e-14 -5.860404e-14 -2.951454e-14 
-2.590926e-14 2.722616e-02 2.856756e-02 -2.522401e-02 -1.970497e-01 -5.880079e-01 -1.341318e+00 -2.545977e+00 -4.156351e+00 -5.992572e+00 -7.862947e+00 -9.708853e+00 -1.151626e+01 -1.303643e+01 -1.299374e+01 -8.771348e+00 -8.224952e-13 8.771348e+00 1.299374e+01 1.303643e+01 1.151626e+01 9.708853e+00 7.862947e+00 5.992572e+00 4.156351e+00 2.545977e+00 1.341318e+00 5.880079e-01 1.970497e-01 2.522401e-02 -2.856756e-02 -2.722616e-02 
-1.977635e-14 8.064471e-02 1.051204e-01 2.659931e-02 -2.475648e-01 -8.700241e-01 -2.085832e+00 -4.074770e+00 -6.815285e+00 -1.004727e+01 -1.343504e+01 -1.683726e+01 -2.014784e+01 -2.290434e+01 -2.259076e+01 -1.455795e+01 -5.197327e-13 1.455795e+01 2.259076e+01 2.290434e+01 2.014784e+01 1.683726e+01 1.343504e+01 1.004727e+01 6.815285e+00 4.074770e+00 2.085832e+00 8.700241e-01 2.475648e-01 -2.659931e-02 -1.051204e-01 -8.064471e-02 
-3.404315e-14 1.967245e-01 2.851499e-01 2.095677e-01 -1.054577e-01 -7.966046e-01 -2.143252e+00 -4.385747e+00 -7.555093e+00 -1.136301e+01 -1.536229e+01 -1.938826e+01 -2.347999e+01 -2.716752e+01 -2.655494e+01 -1.579959e+01 4.730867e-14 1.579959e+01 2.655494e+01 2.716752e+01 2.347999e+01 1.938826e+01 1.536229e+01 1.136301e+01 7.555093e+00 4.385747e+00 2.143252e+00 7.966046e-01 1.054577e-01 -2.095677e-01 -2.851499e-01 -1.967245e-01 
-7.179830e-14 4.371050e-01 6.621707e-01 6.084174e-01 2.687333e-01 -3.990958e-01 -1.637835e+00 -3.692575e+00 -6.644003e+00 -1.023260e+01 -1.399234e+01 -1.806245e+01 -2.305084e+01 -2.787050e+01 -2.640900e+01 -1.368646e+01 9.096772e-14 1.368646e+01 2.640900e+01 2.787050e+01 2.305084e+01 1.806245e+01 1.399234e+01 1.023260e+01 6.644003e+00 3.692575e+00 1.637835e+00 3.990958e-01 -2.687333e-01 -6.084174e-01 -6.621707e-01 -4.371050e-01 
-1.865057e-13 8.972691e-01 1.387579e+00 1.361912e+00 9.345550e-01 2.320252e-01 -8.818816e-01 -2.613092e+00 -5.073819e+00 -8.043278e+00 -1.126701e+01 -1.664292e+01 -2.607125e+01 -3.242683e+01 -2.820740e+01 -1.342766e+01 -1.708901e-12 1.342766e+01 2.820740e+01 3.242683e+01 2.607125e+01 1.664292e+01 1.126701e+01 8.043278e+00 5.073819e+00 2.613092e+00 8.818816e-01 -2.320252e-01 -9.345550e-01 -1.361912e+00 -1.387579e+00 -8.972691e-01 
-3.394248e-13 1.660937e+00 2.611310e+00 2.640662e+00 2.027685e+00 1.153585e+00 4.125649e-02 -1.393000e+00 -3.271560e+00 -6.000009e+00 -1.231255e+01 -2.561259e+01 -4.492072e+01 -3.986340e+01 -1.007555e+01 6.376509e+00 -4.126506e-12 -6.376509e+00 1.007555e+01 3.986340e+01 4.492072e+01 2.561259e+01 1.231255e+01 6.000009e+00 3.271560e+00 1.393000e+00 -4.125649e-02 -1.153585e+00 -2.027685e+00 -2.640662e+00 -2.611310e+00 -1.660937e+00 
-5.689471e-13 2.795056e+00 4.469119e+00 4.620117e+00 3.716172e+00 2.445973e+00 1.072591e+00 -3.596095e-01 -2.423140e+00 -9.174094e+00 -3.049027e+01 -4.357961e+01 -1.472728e+01 3.340393e+01 4.416376e+01 1.888956e+01 -3.699995e-12 -1.888956e+01 -4.416376e+01 -3.340393e+01 1.472728e+01 4.357961e+01 3.049027e+01 9.174094e+00 2.423140e+00 3.596095e-01 -1.072591e+00 -2.445973e+00 -3.716172e+00 -4.620117e+00 -4.469119e+00 -2.795056e+00 
-7.462009e-13 4.267886e+00 6.917137e+00 7.295569e+00 6.062375e+00 4.275655e+00 2.500946e+00 5.827285e-01 -5.370792e+00 -1.782466e+01 -3.728223e+01 -7.797189e+00 4.252740e+01 2.514299e+01 -1.529884e+01 -2.476488e+01 1.779400e-12 2.476488e+01 1.529884e+01 -2.514299e+01 -4.252740e+01 7.797189e+00 3.728223e+01 1.782466e+01 5.370792e+00 -5.827285e-01 -2.500946e+00 -4.275655e+00 -6.062375e+00 -7.295569e+00 -6.917137e+00 -4.267886e+00 
-8.738924e-13 6.041678e+00 9.869593e+00 1.058670e+01 9.044314e+00 6.504896e+00 3.525220e+00 -8.340545e-01 -5.134403e+00 -1.321805e+01 -1.264716e+01 8.927564e+00 -5.090066e+00 -5.288759e+01 -5.431502e+01 -2.608471e+01 3.417562e-12 2.608471e+01 5.431502e+01 5.288759e+01 5.090066e+00 -8.927564e+00 1.264716e+01 1.321805e+01 5.134403e+00 8.340545e-01 -3.525220e+00 -6.504896e+00 -9.044314e+00 -1.058670e+01 -9.869593e+00 -6.041678e+00 
-8.560298e-13 7.972110e+00 1.308571e+01 1.427051e+01 1.254012e+01 9.317818e+00 4.292250e+00 -1.582213e+00 -4.029083e-01 -3.343169e+01 -2.184545e+01 -1.087879e+01 -2.383541e+01 -7.304609e+00 1.610145e+01 1.615427e+01 6.362612e-13 -1.615427e+01 -1.610145e+01 7.304609e+00 2.383541e+01 1.087879e+01 2.184545e+01 3.343169e+01 4.029083e-01 1.582213e+00 -4.292250e+00 -9.317818e+00 -1.254012e+01 -1.427051e+01 -1.308571e+01 -7.972110e+00 
-6.820584e-13 9.806244e+00 1.622958e+01 1.817269e+01 1.670136e+01 1.323193e+01 6.572195e+00 1.320606e+01 -1.294294e+01 -5.962694e+01 -1.895441e+01 2.798898e+00 9.190593e+00 2.052284e+01 2.507403e+01 1.813157e+01 1.141131e-13 -1.813157e+01 -2.507403e+01 -2.052284e+01 -9.190593e+00 -2.798898e+00 1.895441e+01 5.962694e+01 1.294294e+01 -1.320606e+01 -6.572195e+00 -1.323193e+01 -1.670136e+01 -1.817269e+01 -1.622958e+01 -9.806244e+00 
-3.513215e-13 1.109253e+01 1.872746e+01 2.215602e+01 2.192994e+01 1.613131e+01 1.300769e+01 3.366588e+01 -5.212999e+01 -4.582622e+01 1.588884e+01 -3.829365e-01 1.859393e+00 5.663791e+00 6.656089e+00 6.065633e+00 5.684815e-14 -6.065633e+00 -6.656089e+00 -5.663791e+00 -1.859393e+00 3.829365e-01 -1.588884e+01 4.582622e+01 5.212999e+01 -3.366588e+01 -1.300769e+01 -1.613131e+01 -2.192994e+01 -2.215602e+01 -1.872746e+01 -1.109253e+01 
1.666748e-13 1.128281e+01 1.972597e+01 2.565097e+01 2.809098e+01 2.665706e+01 3.765093e+01 1.680636e+01 -7.647884e+01 -1.723104e+01 1.636791e+01 -1.347632e+01 -6.671310e+00 -1.805029e+00 1.526693e+00 2.281273e+00 3.529602e-15 -2.281273e+00 -1.526693e+00 1.805029e+00 6.671310e+00 1.347632e+01 -1.636791e+01 1.723104e+01 7.647884e+01 -1.680636e+01 -3.765093e+01 -2.665706e+01 -2.809098e+01 -2.565097e+01 -1.972597e+01 -1.128281e+01 
6.714696e-13 9.927474e+00 1.844887e+01 2.694957e+01 3.549268e+01 4.446338e+01 4.882330e+01 -3.141097e+01 -5.321387e+01 9.209772e+00 4.807487e+00 -1.417609e+01 -8.454934e+00 -3.871059e+00 -5.837300e-01 5.760912e-01 -5.551785e-14 -5.760912e-01 5.837300e-01 3.871059e+00 8.454934e+00 1.417609e+01 -4.807487e+00 -9.209772e+00 5.321387e+01 3.141097e+01 -4.882330e+01 -4.446338e+01 -3.549268e+01 -2.694957e+01 -1.844887e+01 -9.927474e+00 
9.891516e-13 6.665150e+00 1.346445e+01 2.212398e+01 3.253248e+01 4.101635e+01 2.760215e+01 -3.993192e+01 -1.988329e+01 5.535763e+00 -8.822487e+00 -1.178927e+01 -7.236203e+00 -3.701514e+00 -1.200882e+00 -7.223353e-02 -1.869957e-15 7.223353e-02 1.200882e+00 3.701514e+00 7.236203e+00 1.178927e+01 8.822487e+00 -5.535763e+00 1.988329e+01 3.993192e+01 -2.760215e+01 -4.101635e+01 -3.253248e+01 -2.212398e+01 -1.346445e+01 -6.665150e+00 
7.375363e-13 1.177880e-13 -7.497541e-13 -1.573339e-12 -1.872849e-12 -1.583576e-12 -4.220619e-13 2.292702e-12 1.772359e-12 -1.523926e-12 -2.500584e-12 -8.860851e-13 -9.960759e-14 -1.989372e-14 1.211361e-14 -4.129094e-14 -3.970308e-15 9.153712e-15 1.934547e-13 5.424510e-13 1.232532e-12 2.127327e-12 4.890498e-12 6.090606e-12 -9.566172e-13 -3.481106e-12 -6.104976e-12 -4.170049e-12 -9.949521e-13 3.537142e-13 8.805739e-13 9.763614e-13 
3.459234e-13 -6.665150e+00 -1.346445e+01 -2.212398e+01 -3.253248e+01 -4.101635e+01 -2.760215e+01 3.993192e+01 1.988329e+01 -5.535763e+00 8.822487e+00 1.178927e+01 7.236203e+00 3.701514e+00 1.200882e+00 7.223353e-02 -1.239976e-14 -7.223353e-02 -1.200882e+00 -3.701514e+00 -7.236203e+00 -1.178927e+01 -8.822487e+00 5.535763e+00 -1.988329e+01 -3.993192e+01 2.760215e+01 4.101635e+01 3.253248e+01 2.212398e+01 1.346445e+01 6.665150e+00 
-2.661570e-14 -9.927474e+00 -1.844887e+01 -2.694957e+01 -3.549268e+01 -4.446338e+01 -4.882330e+01 3.141097e+01 5.321387e+01 -9.209772e+00 -4.807487e+00 1.417609e+01 8.454934e+00 3.871059e+00 5.837300e-01 -5.760912e-01 2.242790e-14 5.760912e-01 -5.837300e-01 -3.871059e+00 -8.454934e+00 -1.417609e+01 4.807487e+00 9.209772e+00 -5.321387e+01 -3.141097e+01 4.882330e+01 4.446338e+01 3.549268e+01 2.694957e+01 1.844887e+01 9.927474e+00 
-6.496601e-13 -1.128281e+01 -1.972597e+01 -2.565097e+01 -2.809098e+01 -2.665706e+01 -3.765093e+01 -1.680636e+01 7.647884e+01 1.723104e+01 -1.636791e+01 1.347632e+01 6.671310e+00 1.805029e+00 -1.526693e+00 -2.281273e+00 5.284252e-14 2.281273e+00 1.526693e+00 -1.805029e+00 -6.671310e+00 -1.347632e+01 1.636791e+01 -1.723104e+01 -7.647884e+01 1.680636e+01 3.765093e+01 2.665706e+01 2.809098e+01 2.565097e+01 1.972597e+01 1.128281e+01 
-1.137034e-12 -1.109253e+01 -1.872746e+01 -2.215602e+01 -2.192994e+01 -1.613131e+01 -1.300769e+01 -3.366588e+01 5.212999e+01 4.582622e+01 -1.588884e+01 3.829365e-01 -1.859393e+00 -5.663791e+00 -6.656089e+00 -6.065633e+00 2.713115e-14 6.065633e+00 6.656089e+00 5.663791e+00 1.859393e+00 -3.829365e-01 1.588884e+01 -4.582622e+01 -5.212999e+01 3.366588e+01 1.300769e+01 1.613131e+01 2.192994e+01 2.215602e+01 1.872746e+01 1.109253e+01 
-1.318825e-12 -9.806244e+00 -1.622958e+01 -1.817269e+01 -1.670136e+01 -1.323193e+01 -6.572195e+00 -1.320606e+01 1.294294e+01 5.962694e+01 1.895441e+01 -2.798898e+00 -9.190593e+00 -2.052284e+01 -2.507403e+01 -1.813157e+01 1.572876e-12 1.813157e+01 2.507403e+01 2.052284e+01 9.190593e+00 2.798898e+00 -1.895441e+01 -5.962694e+01 -1.294294e+01 1.320606e+01 6.572195e+00 1.323193e+01 1.670136e+01 1.817269e+01 1.622958e+01 9.806244e+00 
-1.279089e-12 -7.972110e+00 -1.308571e+01 -1.427051e+01 -1.254012e+01 -9.317818e+00 -4.292250e+00 1.582213e+00 4.029083e-01 3.343169e+01 2.184545e+01 1.087879e+01 2.383541e+01 7.304609e+00 -1.610145e+01 -1.615427e+01 2.854564e-12 1.615427e+01 1.610145e+01 -7.304609e+00 -2.383541e+01 -1.087879e+01 -2.184545e+01 -3.343169e+01 -4.029083e-01 -1.582213e+00 4.292250e+00 9.317818e+00 1.254012e+01 1.427051e+01 1.308571e+01 7.972110e+00 
-1.119246e-12 -6.041678e+00 -9.869593e+00 -1.058670e+01 -9.044314e+00 -6.504896e+00 -3.525220e+00 8.340545e-01 5.134403e+00 1.321805e+01 1.264716e+01 -8.927564e+00 5.090066e+00 5.288759e+01 5.431502e+01 2.608471e+01 -4.207405e-12 -2.608471e+01 -5.431502e+01 -5.288759e+01 -5.090066e+00 8.927564e+00 -1.264716e+01 -1.321805e+01 -5.134403e+00 -8.340545e-01 3.525220e+00 6.504896e+00 9.044314e+00 1.058670e+01 9.869593e+00 6.041678e+00 
-8.330783e-13 -4.267886e+00 -6.917137e+00 -7.295569e+00 -6.062375e+00 -4.275655e+00 -2.500946e+00 -5.827285e-01 5.370792e+00 1.782466e+01 3.728223e+01 7.797189e+00 -4.252740e+01 -2.514299e+01 1.529884e+01 2.476488e+01 -4.460446e-12 -2.476488e+01 -1.529884e+01 2.514299e+01 4.252740e+01 -7.797189e+00 -3.728223e+01 -1.782466e+01 -5.370792e+00 5.827285e-01 2.500946e+00 4.275655e+00 6.062375e+00 7.295569e+00 6.917137e+00 4.267886e+00 
-6.016361e-13 -2.795056e+00 -4.469119e+00 -4.620117e+00 -3.716172e+00 -2.445973e+00 -1.072591e+00 3.596095e-01 2.423140e+00 9.174094e+00 3.049027e+01 4.357961e+01 1.472728e+01 -3.340393e+01 -4.416376e+01 -1.888956e+01 9.162928e-13 1.888956e+01 4.416376e+01 3.340393e+01 -1.472728e+01 -4.357961e+01 -3.049027e+01 -9.174094e+00 -2.423140e+00 -3.596095e-01 1.072591e+00 2.445973e+00 3.716172e+00 4.620117e+00 4.469119e+00 2.795056e+00 
-3.431223e-13 -1.660937e+00 -2.611310e+00 -2.640662e+00 -2.027685e+00 -1.153585e+00 -4.125649e-02 1.393000e+00 3.271560e+00 6.000009e+00 1.231255e+01 2.561259e+01 4.492072e+01 3.986340e+01 1.007555e+01 -6.376509e+00 -2.631015e-12 6.376509e+00 -1.007555e+01 -3.986340e+01 -4.492072e+01 -2.561259e+01 -1.231255e+01 -6.000009e+00 -3.271560e+00 -1.393000e+00 4.125649e-02 1.153585e+00 2.027685e+00 2.640662e+00 2.611310e+00 1.660937e+00 
-1.825608e-13 -8.972691e-01 -1.387579e+00 -1.361912e+00 -9.345550e-01 -2.320252e-01 8.818816e-01 2.613092e+00 5.073819e+00 8.043278e+00 1.126701e+01 1.664292e+01 2.607125e+01 3.242683e+01 2.820740e+01 1.342766e+01 -3.338705e-12 -1.342766e+01 -2.820740e+01 -3.242683e+01 -2.607125e+01 -1.664292e+01 -1.126701e+01 -8.043278e+00 -5.073819e+00 -2.613092e+00 -8.818816e-01 2.320252e-01 9.345550e-01 1.361912e+00 1.387579e+00 8.972691e-01 
-8.568790e-14 -4.371050e-01 -6.621707e-01 -6.084174e-01 -2.687333e-01 3.990958e-01 1.637835e+00 3.692575e+00 6.644003e+00 1.023260e+01 1.399234e+01 1.806245e+01 2.305084e+01 2.787050e+01 2.640900e+01 1.368646e+01 1.134046e-13 -1.368646e+01 -2.640900e+01 -2.787050e+01 -2.305084e+01 -1.806245e+01 -1.399234e+01 -1.023260e+01 -6.644003e+00 -3.692575e+00 -1.637835e+00 -3.990958e-01 2.687333e-01 6.084174e-01 6.621707e-01 4.371050e-01 
-4.421961e-14 -1.967245e-01 -2.851499e-01 -2.095677e-01 1.054577e-01 7.966046e-01 2.143252e+00 4.385747e+00 7.555093e+00 1.136301e+01 1.536229e+01 1.938826e+01 2.347999e+01 2.716752e+01 2.655494e+01 1.579959e+01 -4.280043e-14 -1.579959e+01 -2.655494e+01 -2.716752e+01 -2.347999e+01 -1.938826e+01 -1.536229e+01 -1.136301e+01 -7.555093e+00 -4.385747e+00 -2.143252e+00 -7.966046e-01 -1.054577e-01 2.095677e-01 2.851499e-01 1.967245e-01 
-2.982615e-14 -8.064471e-02 -1.051204e-01 -2.659931e-02 2.475648e-01 8.700241e-01 2.085832e+00 4.074770e+00 6.815285e+00 1.004727e+01 1.343504e+01 1.683726e+01 2.014784e+01 2.290434e+01 2.259076e+01 1.455795e+01 -8.866872e-13 -1.455795e+01 -2.259076e+01 -2.290434e+01 -2.014784e+01 -1.683726e+01 -1.343504e+01 -1.004727e+01 -6.815285e+00 -4.074770e+00 -2.085832e+00 -8.700241e-01 -2.475648e-01 2.659931e-02 1.051204e-01 8.064471e-02 
-2.489784e-14 -2.722616e-02 -2.856756e-02 2.522401e-02 1.970497e-01 5.880079e-01 1.341318e+00 2.545977e+00 4.156351e+00 5.992572e+00 7.862947e+00 9.708853e+00 1.151626e+01 1.303643e+01 1.299374e+01 8.771348e+00 -1.219699e-12 -8.771348e+00 -1.299374e+01 -1.303643e+01 -1.151626e+01 -9.708853e+00 -7.862947e+00 -5.992572e+00 -4.156351e+00 -2.545977e+00 -1.341318e+00 -5.880079e-01 -1.970497e-01 -2.522401e-02 2.856756e-02 2.722616e-02 
