# vtk DataFile Version 2.0
Comment goes here
ASCII

DATASET STRUCTURED_POINTS
FIELD FieldData 1
TIME 1 1 double
0.44000000
DIMENSIONS    32   32   1

ORIGIN    0.000   0.000   0.000
SPACING   0.03125 0.03125   1.000

POINT_DATA   1024
SCALARS Omega double
LOOKUP_TABLE default

-6.480998e-14 -5.653314e-14 -6.596877e-14 -3.705713e-14 -3.889989e-14 -2.962077e-14 -3.345418e-14 -3.996144e-15 -5.773515e-14 -1.644021e-13 -3.675359e-13 -5.478902e-13 -6.997287e-13 -7.172555e-13 -4.397325e-13 4.695390e-13 1.486757e-12 7.038480e-13 -1.801183e-13 -4.495211e-13 -4.284106e-13 -3.174705e-13 -2.005254e-13 -7.557863e-14 -1.085101e-14 -1.239968e-14 -4.154745e-14 -3.543038e-14 -5.547753e-14 -6.699733e-14 -5.414752e-14 -6.832946e-14 
-7.708024e-14 8.147539e-03 1.725957e-02 2.905222e-02 4.116638e-02 4.541671e-02 1.637594e-02 -1.190898e-01 -5.094190e-01 -1.384924e+00 -2.929936e+00 -5.127681e+00 -7.790358e+00 -1.069126e+01 -1.315118e+01 -1.153386e+01 9.215163e-13 1.153386e+01 1.315118e+01 1.069126e+01 7.790358e+00 5.127681e+00 2.929936e+00 1.384924e+00 5.094190e-01 1.190898e-01 -1.637594e-02 -4.541671e-02 -4.116638e-02 -2.905222e-02 -1.725957e-02 -8.147539e-03 
-4.647835e-14 2.245307e-02 4.575125e-02 7.410904e-02 1.038754e-01 1.230195e-01 9.401340e-02 -9.388230e-02 -6.703399e-01 -2.022259e+00 -4.574611e+00 -8.472380e+00 -1.353207e+01 -1.932789e+01 -2.421979e+01 -2.052538e+01 5.776684e-13 2.052538e+01 2.421979e+01 1.932789e+01 1.353207e+01 8.472380e+00 4.574611e+00 2.022259e+00 6.703399e-01 9.388230e-02 -9.401340e-02 -1.230195e-01 -1.038754e-01 -7.410904e-02 -4.575125e-02 -2.245307e-02 
-4.502088e-14 5.111710e-02 9.785270e-02 1.499393e-01 2.006984e-01 2.428785e-01 2.327282e-01 5.789515e-02 -5.067468e-01 -1.859163e+00 -4.594118e+00 -9.038524e+00 -1.528027e+01 -2.308002e+01 -2.971847e+01 -2.312040e+01 4.761985e-13 2.312040e+01 2.971847e+01 2.308002e+01 1.528027e+01 9.038524e+00 4.594118e+00 1.859163e+00 5.067468e-01 -5.789515e-02 -2.327282e-01 -2.428785e-01 -2.006984e-01 -1.499393e-01 -9.785270e-02 -5.111710e-02 
-4.436306e-14 1.128788e-01 2.020409e-01 2.868715e-01 3.616428e-01 4.332561e-01 4.592661e-01 3.477582e-01 -3.718066e-02 -9.162493e-01 -2.889419e+00 -6.471565e+00 -1.268919e+01 -2.167866e+01 -2.793421e+01 -1.799137e+01 5.427961e-13 1.799137e+01 2.793421e+01 2.167866e+01 1.268919e+01 6.471565e+00 2.889419e+00 9.162493e-01 3.718066e-02 -3.477582e-01 -4.592661e-01 -4.332561e-01 -3.616428e-01 -2.868715e-01 -2.020409e-01 -1.128788e-01 
-3.815643e-14 2.467248e-01 4.097176e-01 5.284467e-01 5.996847e-01 6.713194e-01 6.814814e-01 5.974827e-01 4.679171e-01 3.921541e-01 -6.564541e-01 -4.263792e+00 -1.134880e+01 -1.985875e+01 -1.975780e+01 -7.888951e+00 5.870918e-13 7.888951e+00 1.975780e+01 1.985875e+01 1.134880e+01 4.263792e+00 6.564541e-01 -3.921541e-01 -4.679171e-01 -5.974827e-01 -6.814814e-01 -6.713194e-01 -5.996847e-01 -5.284467e-01 -4.097176e-01 -2.467248e-01 
-3.748027e-14 5.281268e-01 8.249813e-01 9.620851e-01 9.692096e-01 9.740689e-01 9.926991e-01 1.270948e+00 2.087641e+00 1.392620e+00 -4.816104e+00 -1.462876e+01 -2.424318e+01 -2.830886e+01 -1.580299e+01 -3.673704e+00 1.118561e-12 3.673704e+00 1.580299e+01 2.830886e+01 2.424318e+01 1.462876e+01 4.816104e+00 -1.392620e+00 -2.087641e+00 -1.270948e+00 -9.926991e-01 -9.740689e-01 -9.692096e-01 -9.620851e-01 -8.249813e-01 -5.281268e-01 
-3.108105e-14 1.090655e+00 1.629026e+00 1.739448e+00 1.527204e+00 1.373207e+00 1.505179e+00 2.441069e+00 1.115684e+00 -1.412444e+01 -4.180577e+01 -5.499955e+01 -4.276993e+01 -2.154968e+01 -4.783054e-02 1.000639e+00 1.216878e-12 -1.000639e+00 4.783054e-02 2.154968e+01 4.276993e+01 5.499955e+01 4.180577e+01 1.412444e+01 -1.115684e+00 -2.441069e+00 -1.505179e+00 -1.373207e+00 -1.527204e+00 -1.739448e+00 -1.629026e+00 -1.090655e+00 
-7.702504e-14 2.089594e+00 3.058852e+00 3.077187e+00 2.490315e+00 2.314987e+00 3.128747e+00 -9.376329e-01 -2.492762e+01 -6.686584e+01 -7.152504e+01 -3.648772e+01 -1.292802e+01 -9.103277e+00 -4.438814e+00 -8.003712e+00 6.227819e-13 8.003712e+00 4.438814e+00 9.103277e+00 1.292802e+01 3.648772e+01 7.152504e+01 6.686584e+01 2.492762e+01 9.376329e-01 -3.128747e+00 -2.314987e+00 -2.490315e+00 -3.077187e+00 -3.058852e+00 -2.089594e+00 
-1.303222e-13 3.678801e+00 5.392377e+00 5.316250e+00 3.964794e+00 2.227431e+00 -2.843596e+00 -1.884681e+01 -6.217586e+01 -6.973727e+01 -4.058535e+01 -2.121983e+01 -2.343729e+01 -3.122269e+01 -2.460621e+01 -1.399027e+01 -6.412065e-13 1.399027e+01 2.460621e+01 3.122269e+01 2.343729e+01 2.121983e+01 4.058535e+01 6.973727e+01 6.217586e+01 1.884681e+01 2.843596e+00 -2.227431e+00 -3.964794e+00 -5.316250e+00 -5.392377e+00 -3.678801e+00 
-1.964179e-13 5.846671e+00 8.771921e+00 8.727758e+00 6.556925e+00 1.787534e+00 -6.884346e+00 -3.697346e+01 -8.374631e+01 -5.074320e+01 -2.534276e+01 -2.034383e+01 -7.326593e+00 5.905483e+00 1.301196e+01 1.095583e+01 -1.165012e-12 -1.095583e+01 -1.301196e+01 -5.905483e+00 7.326593e+00 2.034383e+01 2.534276e+01 5.074320e+01 8.374631e+01 3.697346e+01 6.884346e+00 -1.787534e+00 -6.556925e+00 -8.727758e+00 -8.771921e+00 -5.846671e+00 
-2.774083e-13 8.365749e+00 1.307323e+01 1.375886e+01 1.036992e+01 8.702629e+00 8.663090e+00 -7.865550e+01 -8.440339e+01 -2.670400e+01 -6.665700e+00 2.087703e+01 3.867230e+01 4.206420e+01 3.560767e+01 2.057595e+01 -5.479788e-13 -2.057595e+01 -3.560767e+01 -4.206420e+01 -3.867230e+01 -2.087703e+01 6.665700e+00 2.670400e+01 8.440339e+01 7.865550e+01 -8.663090e+00 -8.702629e+00 -1.036992e+01 -1.375886e+01 -1.307323e+01 -8.365749e+00 
-2.742852e-13 1.066589e+01 1.775004e+01 2.043717e+01 1.588110e+01 2.889900e+01 -1.287738e+01 -1.194888e+02 -4.146711e+01 1.854031e+01 2.182101e+01 1.775189e+01 9.475592e+00 1.041824e+01 1.279579e+01 9.649453e+00 -2.605729e-13 -9.649453e+00 -1.279579e+01 -1.041824e+01 -9.475592e+00 -1.775189e+01 -2.182101e+01 -1.854031e+01 4.146711e+01 1.194888e+02 1.287738e+01 -2.889900e+01 -1.588110e+01 -2.043717e+01 -1.775004e+01 -1.066589e+01 
-2.091681e-13 1.198638e+01 2.115598e+01 2.653353e+01 3.516913e+01 5.816061e+01 -7.829582e+01 -9.137280e+01 2.047164e+01 1.863012e+01 -5.800004e+00 -1.259398e+01 -5.330986e+00 1.817056e+00 5.505561e+00 4.935477e+00 -2.216652e-13 -4.935477e+00 -5.505561e+00 -1.817056e+00 5.330986e+00 1.259398e+01 5.800004e+00 -1.863012e+01 -2.047164e+01 9.137280e+01 7.829582e+01 -5.816061e+01 -3.516913e+01 -2.653353e+01 -2.115598e+01 -1.198638e+01 
-2.462537e-13 1.138170e+01 2.063533e+01 3.284461e+01 6.742445e+01 3.788262e+01 -1.025900e+02 -2.654564e+01 2.841051e+01 -6.297402e+00 -1.724179e+01 -1.795298e+01 -1.001788e+01 -2.982443e+00 9.707115e-01 1.817517e+00 -1.159443e-13 -1.817517e+00 -9.707115e-01 2.982443e+00 1.001788e+01 1.795298e+01 1.724179e+01 6.297402e+00 -2.841051e+01 2.654564e+01 1.025900e+02 -3.788262e+01 -6.742445e+01 -3.284461e+01 -2.063533e+01 -1.138170e+01 
3.600764e-13 7.660078e+00 1.572675e+01 3.080524e+01 6.350828e+01 -1.748471e+00 -5.820771e+01 -2.647014e+00 3.343641e+00 -1.389639e+01 -1.460274e+01 -1.456442e+01 -9.575115e+00 -4.040788e+00 -7.340033e-01 3.801893e-01 -7.329850e-14 -3.801893e-01 7.340033e-01 4.040788e+00 9.575115e+00 1.456442e+01 1.460274e+01 1.389639e+01 -3.343641e+00 2.647014e+00 5.820771e+01 1.748471e+00 -6.350828e+01 -3.080524e+01 -1.572675e+01 -7.660078e+00 
8.947600e-13 1.560980e-12 2.577028e-12 3.592408e-12 3.772891e-12 2.855621e-13 -3.974696e-12 -1.303159e-12 3.652617e-12 3.852414e-12 1.364723e-12 2.373458e-13 -1.533999e-13 -1.012089e-13 -1.453521e-13 -2.724128e-14 -3.754618e-14 -5.495180e-14 -5.236030e-14 -5.797885e-14 3.109387e-14 3.479149e-13 1.042200e-12 2.432877e-12 5.456489e-13 -5.664537e-12 -3.240153e-12 6.790404e-13 4.452414e-12 2.959337e-12 1.372430e-12 8.608525e-13 
-5.942286e-14 -7.660078e+00 -1.572675e+01 -3.080524e+01 -6.350828e+01 1.748471e+00 5.820771e+01 2.647014e+00 -3.343641e+00 1.389639e+01 1.460274e+01 1.456442e+01 9.575115e+00 4.040788e+00 7.340033e-01 -3.801893e-01 -7.864288e-15 3.801893e-01 -7.340033e-01 -4.040788e+00 -9.575115e+00 -1.456442e+01 -1.460274e+01 -1.389639e+01 3.343641e+00 -2.647014e+00 -5.820771e+01 -1.748471e+00 6.350828e+01 3.080524e+01 1.572675e+01 7.660078e+00 
-4.033405e-13 -1.138170e+01 -2.063533e+01 -3.284461e+01 -6.742445e+01 -3.788262e+01 1.025900e+02 2.654564e+01 -2.841051e+01 6.297402e+00 1.724179e+01 1.795298e+01 1.001788e+01 2.982443e+00 -9.707115e-01 -1.817517e+00 7.464814e-14 1.817517e+00 9.707115e-01 -2.982443e+00 -1.001788e+01 -1.795298e+01 -1.724179e+01 -6.297402e+00 2.841051e+01 -2.654564e+01 -1.025900e+02 3.788262e+01 6.742445e+01 3.284461e+01 2.063533e+01 1.138170e+01 
-4.581454e-13 -1.198638e+01 -2.115598e+01 -2.653353e+01 -3.516913e+01 -5.816061e+01 7.829582e+01 9.137280e+01 -2.047164e+01 -1.863012e+01 5.800004e+00 1.259398e+01 5.330986e+00 -1.817056e+00 -5.505561e+00 -4.935477e+00 3.018787e-13 4.935477e+00 5.505561e+00 1.817056e+00 -5.330986e+00 -1.259398e+01 -5.800004e+00 1.863012e+01 2.047164e+01 -9.137280e+01 -7.829582e+01 5.816061e+01 3.516913e+01 2.653353e+01 2.115598e+01 1.198638e+01 
-4.877539e-13 -1.066589e+01 -1.775004e+01 -2.043717e+01 -1.588110e+01 -2.889900e+01 1.287738e+01 1.194888e+02 4.146711e+01 -1.854031e+01 -2.182101e+01 -1.775189e+01 -9.475592e+00 -1.041824e+01 -1.279579e+01 -9.649453e+00 8.113087e-13 9.649453e+00 1.279579e+01 1.041824e+01 9.475592e+00 1.775189e+01 2.182101e+01 1.854031e+01 -4.146711e+01 -1.194888e+02 -1.287738e+01 2.889900e+01 1.588110e+01 2.043717e+01 1.775004e+01 1.066589e+01 
-3.680500e-13 -8.365749e+00 -1.307323e+01 -1.375886e+01 -1.036992e+01 -8.702629e+00 -8.663090e+00 7.865550e+01 8.440339e+01 2.670400e+01 6.665700e+00 -2.087703e+01 -3.867230e+01 -4.206420e+01 -3.560767e+01 -2.057595e+01 1.754400e-12 2.057595e+01 3.560767e+01 4.206420e+01 3.867230e+01 2.087703e+01 -6.665700e+00 -2.670400e+01 -8.440339e+01 -7.865550e+01 8.663090e+00 8.702629e+00 1.036992e+01 1.375886e+01 1.307323e+01 8.365749e+00 
-1.838761e-13 -5.846671e+00 -8.771921e+00 -8.727758e+00 -6.556925e+00 -1.787534e+00 6.884346e+00 3.697346e+01 8.374631e+01 5.074320e+01 2.534276e+01 2.034383e+01 7.326593e+00 -5.905483e+00 -1.301196e+01 -1.095583e+01 3.820845e-12 1.095583e+01 1.301196e+01 5.905483e+00 -7.326593e+00 -2.034383e+01 -2.534276e+01 -5.074320e+01 -8.374631e+01 -3.697346e+01 -6.884346e+00 1.787534e+00 6.556925e+00 8.727758e+00 8.771921e+00 5.846671e+00 
-1.022725e-13 -3.678801e+00 -5.392377e+00 -5.316250e+00 -3.964794e+00 -2.227431e+00 2.843596e+00 1.884681e+01 6.217586e+01 6.973727e+01 4.058535e+01 2.121983e+01 2.343729e+01 3.122269e+01 2.460621e+01 1.399027e+01 2.290187e-12 -1.399027e+01 -2.460621e+01 -3.122269e+01 -2.343729e+01 -2.121983e+01 -4.058535e+01 -6.973727e+01 -6.217586e+01 -1.884681e+01 -2.843596e+00 2.227431e+00 3.964794e+00 5.316250e+00 5.392377e+00 3.678801e+00 
1.514700e-14 -2.089594e+00 -3.058852e+00 -3.077187e+00 -2.490315e+00 -2.314987e+00 -3.128747e+00 9.376329e-01 2.492762e+01 6.686584e+01 7.152504e+01 3.648772e+01 1.292802e+01 9.103277e+00 4.438814e+00 8.003712e+00 -4.640876e-12 -8.003712e+00 -4.438814e+00 -9.103277e+00 -1.292802e+01 -3.648772e+01 -7.152504e+01 -6.686584e+01 -2.492762e+01 -9.376329e-01 3.128747e+00 2.314987e+00 2.490315e+00 3.077187e+00 3.058852e+00 2.089594e+00 
2.181795e-14 -1.090655e+00 -1.629026e+00 -1.739448e+00 -1.527204e+00 -1.373207e+00 -1.505179e+00 -2.441069e+00 -1.115684e+00 1.412444e+01 4.180577e+01 5.499955e+01 4.276993e+01 2.154968e+01 4.783054e-02 -1.000639e+00 -5.577552e-12 1.000639e+00 -4.783054e-02 -2.154968e+01 -4.276993e+01 -5.499955e+01 -4.180577e+01 -1.412444e+01 1.115684e+00 2.441069e+00 1.505179e+00 1.373207e+00 1.527204e+00 1.739448e+00 1.629026e+00 1.090655e+00 
4.127661e-14 -5.281268e-01 -8.249813e-01 -9.620851e-01 -9.692096e-01 -9.740689e-01 -9.926991e-01 -1.270948e+00 -2.087641e+00 -1.392620e+00 4.816104e+00 1.462876e+01 2.424318e+01 2.830886e+01 1.580299e+01 3.673704e+00 -1.153734e-12 -3.673704e+00 -1.580299e+01 -2.830886e+01 -2.424318e+01 -1.462876e+01 -4.816104e+00 1.392620e+00 2.087641e+00 1.270948e+00 9.926991e-01 9.740689e-01 9.692096e-01 9.620851e-01 8.249813e-01 5.281268e-01 
-4.561713e-15 -2.467248e-01 -4.097176e-01 -5.284467e-01 -5.996847e-01 -6.713194e-01 -6.814814e-01 -5.974827e-01 -4.679171e-01 -3.921541e-01 6.564541e-01 4.263792e+00 1.134880e+01 1.985875e+01 1.975780e+01 7.888951e+00 8.036055e-13 -7.888951e+00 -1.975780e+01 -1.985875e+01 -1.134880e+01 -4.263792e+00 -6.564541e-01 3.921541e-01 4.679171e-01 5.974827e-01 6.814814e-01 6.713194e-01 5.996847e-01 5.284467e-01 4.097176e-01 2.467248e-01 
4.711731e-15 -1.128788e-01 -2.020409e-01 -2.868715e-01 -3.616428e-01 -4.332561e-01 -4.592661e-01 -3.477582e-01 3.718066e-02 9.162493e-01 2.889419e+00 6.471565e+00 1.268919e+01 2.167866e+01 2.793421e+01 1.799137e+01 1.102030e-12 -1.799137e+01 -2.793421e+01 -2.167866e+01 -1.268919e+01 -6.471565e+00 -2.889419e+00 -9.162493e-01 -3.718066e-02 3.477582e-01 4.592661e-01 4.332561e-01 3.616428e-01 2.868715e-01 2.020409e-01 1.128788e-01 
-3.372869e-14 -5.111710e-02 -9.785270e-02 -1.499393e-01 -2.006984e-01 -2.428785e-01 -2.327282e-01 -5.789515e-02 5.067468e-01 1.859163e+00 4.594118e+00 9.038524e+00 1.528027e+01 2.308002e+01 2.971847e+01 2.312040e+01 1.336935e-12 -2.312040e+01 -2.971847e+01 -2.308002e+01 -1.528027e+01 -9.038524e+00 -4.594118e+00 -1.859163e+00 -5.067468e-01 5.789515e-02 2.327282e-01 2.428785e-01 2.006984e-01 1.499393e-01 9.785270e-02 5.111710e-02 
-4.813794e-14 -2.245307e-02 -4.575125e-02 -7.410904e-02 -1.038754e-01 -1.230195e-01 -9.401340e-02 9.388230e-02 6.703399e-01 2.022259e+00 4.574611e+00 8.472380e+00 1.353207e+01 1.932789e+01 2.421979e+01 2.052538e+01 1.773197e-12 -2.052538e+01 -2.421979e+01 -1.932789e+01 -1.353207e+01 -8.472380e+00 -4.574611e+00 -2.022259e+00 -6.703399e-01 -9.388230e-02 9.401340e-02 1.230195e-01 1.038754e-01 7.410904e-02 4.575125e-02 2.245307e-02 
-8.269235e-14 -8.147539e-03 -1.725957e-02 -2.905222e-02 -4.116638e-02 -4.541671e-02 -1.637594e-02 1.190898e-01 5.094190e-01 1.384924e+00 2.929936e+00 5.127681e+00 7.790358e+00 1.069126e+01 1.315118e+01 1.153386e+01 1.924796e-12 -1.153386e+01 -1.315118e+01 -1.069126e+01 -7.790358e+00 -5.127681e+00 -2.929936e+00 -1.384924e+00 -5.094190e-01 -1.190898e-01 1.637594e-02 4.541671e-02 4.116638e-02 2.905222e-02 1.725957e-02 8.147539e-03 
