# vtk DataFile Version 2.0
Comment goes here
ASCII

DATASET STRUCTURED_POINTS
FIELD FieldData 1
TIME 1 1 double
0.18000000
DIMENSIONS    32   32   1

ORIGIN    0.000   0.000   0.000
SPACING   0.03125 0.03125   1.000

POINT_DATA   1024
SCALARS Omega double
LOOKUP_TABLE default

-1.314264e-14 -9.496669e-15 -1.479922e-14 -2.127538e-14 -1.478230e-14 -3.310432e-15 4.522940e-15 2.704349e-15 3.649886e-15 2.579790e-14 -4.477140e-15 1.700005e-14 1.994690e-14 -1.039160e-13 -3.036362e-13 -1.933819e-13 5.219374e-13 5.096486e-14 -1.932455e-13 -8.720142e-14 -3.135446e-15 -1.529289e-14 5.729477e-14 4.958292e-14 3.616850e-14 1.638547e-14 1.212925e-14 -1.274339e-15 -2.463683e-14 -2.951969e-14 -8.213820e-15 -6.408806e-15 
-1.904530e-16 -9.507026e-04 -1.520752e-03 -2.278885e-03 -1.456523e-03 9.417077e-04 4.475112e-03 9.768796e-03 1.452177e-03 -4.036037e-02 -2.990846e-01 -9.351731e-01 -2.438618e+00 -5.396673e+00 -9.151733e+00 -8.503311e+00 3.161727e-13 8.503311e+00 9.151733e+00 5.396673e+00 2.438618e+00 9.351731e-01 2.990846e-01 4.036037e-02 -1.452177e-03 -9.768796e-03 -4.475112e-03 -9.417077e-04 1.456523e-03 2.278885e-03 1.520752e-03 9.507026e-04 
-9.737912e-15 -1.782931e-03 -2.596253e-03 -3.333426e-03 7.332402e-04 9.789913e-03 2.718886e-02 4.986174e-02 5.277666e-02 -5.492141e-02 -8.463658e-01 -2.911562e+00 -8.387424e+00 -1.994127e+01 -3.267415e+01 -3.106568e+01 7.981438e-13 3.106568e+01 3.267415e+01 1.994127e+01 8.387424e+00 2.911562e+00 8.463658e-01 5.492141e-02 -5.277666e-02 -4.986174e-02 -2.718886e-02 -9.789913e-03 -7.332402e-04 3.333426e-03 2.596253e-03 1.782931e-03 
-2.886567e-14 -2.846189e-03 -3.870214e-03 -2.701284e-03 1.221964e-02 5.053681e-02 1.309528e-01 2.573262e-01 3.781855e-01 3.007188e-01 -7.944357e-01 -6.097281e+00 -3.268274e+01 -7.033329e+01 -8.373576e+01 -5.285600e+01 2.477338e-12 5.285600e+01 8.373576e+01 7.033329e+01 3.268274e+01 6.097281e+00 7.944357e-01 -3.007188e-01 -3.781855e-01 -2.573262e-01 -1.309528e-01 -5.053681e-02 -1.221964e-02 2.701284e-03 3.870214e-03 2.846189e-03 
-2.531668e-14 -3.410965e-03 -1.977201e-03 1.005069e-02 6.095508e-02 1.783313e-01 4.091906e-01 6.861013e-01 7.115329e-01 -3.506556e-01 -7.981943e-02 -8.707186e+00 -4.562309e+01 -1.870096e+01 6.426894e+01 6.381303e+01 2.663266e-12 -6.381303e+01 -6.426894e+01 1.870096e+01 4.562309e+01 8.707186e+00 7.981943e-02 3.506556e-01 -7.115329e-01 -6.861013e-01 -4.091906e-01 -1.783313e-01 -6.095508e-02 -1.005069e-02 1.977201e-03 3.410965e-03 
-4.001401e-15 -2.096790e-03 7.902395e-03 4.725149e-02 1.805246e-01 4.680902e-01 9.970792e-01 1.440066e+00 7.266270e-01 8.839026e-01 7.321679e+00 1.019210e+01 5.043117e+01 1.138640e+02 1.080118e+02 3.445862e+01 -1.204804e-12 -3.445862e+01 -1.080118e+02 -1.138640e+02 -5.043117e+01 -1.019210e+01 -7.321679e+00 -8.839026e-01 -7.266270e-01 -1.440066e+00 -9.970792e-01 -4.680902e-01 -1.805246e-01 -4.725149e-02 -7.902395e-03 2.096790e-03 
2.120167e-15 3.586132e-04 2.844484e-02 1.331374e-01 4.822741e-01 1.233721e+00 2.406082e+00 2.311884e+00 -5.752676e-01 1.496487e+01 3.918044e+01 4.855237e+01 9.475536e+01 7.938115e+01 -2.781915e+01 -4.937184e+01 -3.055460e-12 4.937184e+01 2.781915e+01 -7.938115e+01 -9.475536e+01 -4.855237e+01 -3.918044e+01 -1.496487e+01 5.752676e-01 -2.311884e+00 -2.406082e+00 -1.233721e+00 -4.822741e-01 -1.331374e-01 -2.844484e-02 -3.586132e-04 
1.851816e-14 1.561016e-02 1.022126e-01 3.736239e-01 1.145811e+00 2.459028e+00 3.451828e+00 3.731267e-01 -4.783140e-01 4.069542e+01 5.778341e+01 5.530676e+01 5.875593e+01 3.229635e+01 -5.106910e+00 2.077892e-02 -2.188520e-12 -2.077892e-02 5.106910e+00 -3.229635e+01 -5.875593e+01 -5.530676e+01 -5.778341e+01 -4.069542e+01 4.783140e-01 -3.731267e-01 -3.451828e+00 -2.459028e+00 -1.145811e+00 -3.736239e-01 -1.022126e-01 -1.561016e-02 
3.212088e-14 5.375200e-02 2.575595e-01 8.274289e-01 2.122320e+00 3.166064e+00 1.295488e+00 -4.005307e+00 1.162598e+01 4.926490e+01 5.101470e+01 5.760458e+01 4.429990e+01 8.804660e+00 1.744338e+01 1.810735e+01 -1.165113e-12 -1.810735e+01 -1.744338e+01 -8.804660e+00 -4.429990e+01 -5.760458e+01 -5.101470e+01 -4.926490e+01 -1.162598e+01 4.005307e+00 -1.295488e+00 -3.166064e+00 -2.122320e+00 -8.274289e-01 -2.575595e-01 -5.375200e-02 
4.168534e-14 1.348310e-01 4.686533e-01 1.253498e+00 2.467061e+00 1.623024e+00 -4.175249e+00 -8.240587e+00 2.129037e+01 2.595080e+01 4.807392e+01 5.559881e+01 1.730384e+01 1.710729e+01 3.842504e+01 2.740805e+01 -5.745382e-13 -2.740805e+01 -3.842504e+01 -1.710729e+01 -1.730384e+01 -5.559881e+01 -4.807392e+01 -2.595080e+01 -2.129037e+01 8.240587e+00 4.175249e+00 -1.623024e+00 -2.467061e+00 -1.253498e+00 -4.686533e-01 -1.348310e-01 
5.089334e-14 3.896973e-01 8.537397e-01 1.691341e+00 2.199787e+00 -8.655238e-01 -8.332087e+00 -9.302205e+00 1.892443e+01 2.192878e+01 6.136160e+01 4.949682e+01 -1.471891e+00 2.262023e+01 3.545269e+01 2.537896e+01 -3.655361e-13 -2.537896e+01 -3.545269e+01 -2.262023e+01 1.471891e+00 -4.949682e+01 -6.136160e+01 -2.192878e+01 -1.892443e+01 9.302205e+00 8.332087e+00 8.655238e-01 -2.199787e+00 -1.691341e+00 -8.537397e-01 -3.896973e-01 
6.165287e-14 1.298172e+00 2.047940e+00 2.252733e+00 7.597294e-01 -3.515318e+00 -8.537829e+00 -8.089305e+00 -1.891386e+00 2.438310e+01 6.998910e+01 3.374096e+01 -2.055875e+01 2.244219e+00 1.457164e+01 1.397015e+01 -2.508042e-13 -1.397015e+01 -1.457164e+01 -2.244219e+00 2.055875e+01 -3.374096e+01 -6.998910e+01 -2.438310e+01 1.891386e+00 8.089305e+00 8.537829e+00 3.515318e+00 -7.597294e-01 -2.252733e+00 -2.047940e+00 -1.298172e+00 
1.722203e-14 3.813681e+00 6.136816e+00 5.165274e+00 6.904732e-01 -3.526198e+00 -7.253376e+00 -7.479568e+00 -8.497843e+00 3.138168e+01 5.829417e+01 1.009812e+01 -2.937722e+01 -1.133036e+01 5.595714e-01 4.037032e+00 -1.615117e-13 -4.037032e+00 -5.595714e-01 1.133036e+01 2.937722e+01 -1.009812e+01 -5.829417e+01 -3.138168e+01 8.497843e+00 7.479568e+00 7.253376e+00 3.526198e+00 -6.904732e-01 -5.165274e+00 -6.136816e+00 -3.813681e+00 
-1.411529e-13 8.662670e+00 1.443409e+01 1.287692e+01 8.656455e+00 5.174309e+00 -4.533645e+00 -7.033872e+00 5.404062e+00 4.096076e+01 3.895993e+01 -1.265834e+01 -2.895683e+01 -1.409713e+01 -5.251965e+00 -8.009680e-01 -4.092360e-14 8.009680e-01 5.251965e+00 1.409713e+01 2.895683e+01 1.265834e+01 -3.895993e+01 -4.096076e+01 -5.404062e+00 7.033872e+00 4.533645e+00 -5.174309e+00 -8.656455e+00 -1.287692e+01 -1.443409e+01 -8.662670e+00 
-3.466419e-13 1.467067e+01 2.462228e+01 2.583188e+01 2.336523e+01 1.272100e+01 -7.328229e+00 -5.563303e+00 1.130483e+01 2.246260e+01 1.129927e+01 -1.981357e+01 -2.251420e+01 -1.432509e+01 -7.592118e+00 -2.666698e+00 -4.212871e-14 2.666698e+00 7.592118e+00 1.432509e+01 2.251420e+01 1.981357e+01 -1.129927e+01 -2.246260e+01 -1.130483e+01 5.563303e+00 7.328229e+00 -1.272100e+01 -2.336523e+01 -2.583188e+01 -2.462228e+01 -1.467067e+01 
-2.688225e-13 1.591949e+01 2.513270e+01 2.507378e+01 1.951642e+01 5.608741e+00 -1.055226e+01 -3.292993e+00 1.190018e+01 1.224134e+01 -3.125224e+00 -1.660398e+01 -1.310457e+01 -9.510744e+00 -5.615534e+00 -2.240646e+00 1.846388e-15 2.240646e+00 5.615534e+00 9.510744e+00 1.310457e+01 1.660398e+01 3.125224e+00 -1.224134e+01 -1.190018e+01 3.292993e+00 1.055226e+01 -5.608741e+00 -1.951642e+01 -2.507378e+01 -2.513270e+01 -1.591949e+01 
8.365973e-14 1.483366e-13 2.221840e-13 4.195497e-13 -5.870785e-14 -9.188329e-13 2.070110e-13 2.357401e-12 3.039262e-12 1.515031e-12 -2.203454e-13 -8.142681e-13 -3.736983e-13 -3.602832e-13 -2.435364e-13 -1.059193e-13 -5.169503e-14 -1.163381e-13 -2.426678e-13 -3.406696e-13 -3.897021e-13 6.141860e-13 4.302961e-12 4.301925e-12 3.339008e-13 -3.281615e-14 -2.271555e-13 -4.384477e-13 6.983340e-13 7.821807e-13 1.516042e-13 -3.528075e-14 
1.967213e-14 -1.591949e+01 -2.513270e+01 -2.507378e+01 -1.951642e+01 -5.608741e+00 1.055226e+01 3.292993e+00 -1.190018e+01 -1.224134e+01 3.125224e+00 1.660398e+01 1.310457e+01 9.510744e+00 5.615534e+00 2.240646e+00 -1.693583e-14 -2.240646e+00 -5.615534e+00 -9.510744e+00 -1.310457e+01 -1.660398e+01 -3.125224e+00 1.224134e+01 1.190018e+01 -3.292993e+00 -1.055226e+01 5.608741e+00 1.951642e+01 2.507378e+01 2.513270e+01 1.591949e+01 
-7.628340e-14 -1.467067e+01 -2.462228e+01 -2.583188e+01 -2.336523e+01 -1.272100e+01 7.328229e+00 5.563303e+00 -1.130483e+01 -2.246260e+01 -1.129927e+01 1.981357e+01 2.251420e+01 1.432509e+01 7.592118e+00 2.666698e+00 9.884059e-14 -2.666698e+00 -7.592118e+00 -1.432509e+01 -2.251420e+01 -1.981357e+01 1.129927e+01 2.246260e+01 1.130483e+01 -5.563303e+00 -7.328229e+00 1.272100e+01 2.336523e+01 2.583188e+01 2.462228e+01 1.467067e+01 
-6.208119e-14 -8.662670e+00 -1.443409e+01 -1.287692e+01 -8.656455e+00 -5.174309e+00 4.533645e+00 7.033872e+00 -5.404062e+00 -4.096076e+01 -3.895993e+01 1.265834e+01 2.895683e+01 1.409713e+01 5.251965e+00 8.009680e-01 1.709289e-15 -8.009680e-01 -5.251965e+00 -1.409713e+01 -2.895683e+01 -1.265834e+01 3.895993e+01 4.096076e+01 5.404062e+00 -7.033872e+00 -4.533645e+00 5.174309e+00 8.656455e+00 1.287692e+01 1.443409e+01 8.662670e+00 
-7.341758e-15 -3.813681e+00 -6.136816e+00 -5.165274e+00 -6.904732e-01 3.526198e+00 7.253376e+00 7.479568e+00 8.497843e+00 -3.138168e+01 -5.829417e+01 -1.009812e+01 2.937722e+01 1.133036e+01 -5.595714e-01 -4.037032e+00 5.218333e-14 4.037032e+00 5.595714e-01 -1.133036e+01 -2.937722e+01 1.009812e+01 5.829417e+01 3.138168e+01 -8.497843e+00 -7.479568e+00 -7.253376e+00 -3.526198e+00 6.904732e-01 5.165274e+00 6.136816e+00 3.813681e+00 
1.247905e-14 -1.298172e+00 -2.047940e+00 -2.252733e+00 -7.597294e-01 3.515318e+00 8.537829e+00 8.089305e+00 1.891386e+00 -2.438310e+01 -6.998910e+01 -3.374096e+01 2.055875e+01 -2.244219e+00 -1.457164e+01 -1.397015e+01 1.398075e-15 1.397015e+01 1.457164e+01 2.244219e+00 -2.055875e+01 3.374096e+01 6.998910e+01 2.438310e+01 -1.891386e+00 -8.089305e+00 -8.537829e+00 -3.515318e+00 7.597294e-01 2.252733e+00 2.047940e+00 1.298172e+00 
-1.473847e-14 -3.896973e-01 -8.537397e-01 -1.691341e+00 -2.199787e+00 8.655238e-01 8.332087e+00 9.302205e+00 -1.892443e+01 -2.192878e+01 -6.136160e+01 -4.949682e+01 1.471891e+00 -2.262023e+01 -3.545269e+01 -2.537896e+01 2.325485e-13 2.537896e+01 3.545269e+01 2.262023e+01 -1.471891e+00 4.949682e+01 6.136160e+01 2.192878e+01 1.892443e+01 -9.302205e+00 -8.332087e+00 -8.655238e-01 2.199787e+00 1.691341e+00 8.537397e-01 3.896973e-01 
1.082340e-14 -1.348310e-01 -4.686533e-01 -1.253498e+00 -2.467061e+00 -1.623024e+00 4.175249e+00 8.240587e+00 -2.129037e+01 -2.595080e+01 -4.807392e+01 -5.559881e+01 -1.730384e+01 -1.710729e+01 -3.842504e+01 -2.740805e+01 3.211060e-13 2.740805e+01 3.842504e+01 1.710729e+01 1.730384e+01 5.559881e+01 4.807392e+01 2.595080e+01 2.129037e+01 -8.240587e+00 -4.175249e+00 1.623024e+00 2.467061e+00 1.253498e+00 4.686533e-01 1.348310e-01 
-1.375987e-14 -5.375200e-02 -2.575595e-01 -8.274289e-01 -2.122320e+00 -3.166064e+00 -1.295488e+00 4.005307e+00 -1.162598e+01 -4.926490e+01 -5.101470e+01 -5.760458e+01 -4.429990e+01 -8.804660e+00 -1.744338e+01 -1.810735e+01 4.153789e-13 1.810735e+01 1.744338e+01 8.804660e+00 4.429990e+01 5.760458e+01 5.101470e+01 4.926490e+01 1.162598e+01 -4.005307e+00 1.295488e+00 3.166064e+00 2.122320e+00 8.274289e-01 2.575595e-01 5.375200e-02 
1.675809e-14 -1.561016e-02 -1.022126e-01 -3.736239e-01 -1.145811e+00 -2.459028e+00 -3.451828e+00 -3.731267e-01 4.783140e-01 -4.069542e+01 -5.778341e+01 -5.530676e+01 -5.875593e+01 -3.229635e+01 5.106910e+00 -2.077892e-02 2.493062e-12 2.077892e-02 -5.106910e+00 3.229635e+01 5.875593e+01 5.530676e+01 5.778341e+01 4.069542e+01 -4.783140e-01 3.731267e-01 3.451828e+00 2.459028e+00 1.145811e+00 3.736239e-01 1.022126e-01 1.561016e-02 
1.887690e-14 -3.586132e-04 -2.844484e-02 -1.331374e-01 -4.822741e-01 -1.233721e+00 -2.406082e+00 -2.311884e+00 5.752676e-01 -1.496487e+01 -3.918044e+01 -4.855237e+01 -9.475536e+01 -7.938115e+01 2.781915e+01 4.937184e+01 -7.063915e-13 -4.937184e+01 -2.781915e+01 7.938115e+01 9.475536e+01 4.855237e+01 3.918044e+01 1.496487e+01 -5.752676e-01 2.311884e+00 2.406082e+00 1.233721e+00 4.822741e-01 1.331374e-01 2.844484e-02 3.586132e-04 
-1.278537e-14 2.096790e-03 -7.902395e-03 -4.725149e-02 -1.805246e-01 -4.680902e-01 -9.970792e-01 -1.440066e+00 -7.266270e-01 -8.839026e-01 -7.321679e+00 -1.019210e+01 -5.043117e+01 -1.138640e+02 -1.080118e+02 -3.445862e+01 -7.662957e-12 3.445862e+01 1.080118e+02 1.138640e+02 5.043117e+01 1.019210e+01 7.321679e+00 8.839026e-01 7.266270e-01 1.440066e+00 9.970792e-01 4.680902e-01 1.805246e-01 4.725149e-02 7.902395e-03 -2.096790e-03 
-4.425418e-14 3.410965e-03 1.977201e-03 -1.005069e-02 -6.095508e-02 -1.783313e-01 -4.091906e-01 -6.861013e-01 -7.115329e-01 3.506556e-01 7.981943e-02 8.707186e+00 4.562309e+01 1.870096e+01 -6.426894e+01 -6.381303e+01 -1.143190e-12 6.381303e+01 6.426894e+01 -1.870096e+01 -4.562309e+01 -8.707186e+00 -7.981943e-02 -3.506556e-01 7.115329e-01 6.861013e-01 4.091906e-01 1.783313e-01 6.095508e-02 1.005069e-02 -1.977201e-03 -3.410965e-03 
-3.796781e-14 2.846189e-03 3.870214e-03 2.701284e-03 -1.221964e-02 -5.053681e-02 -1.309528e-01 -2.573262e-01 -3.781855e-01 -3.007188e-01 7.944357e-01 6.097281e+00 3.268274e+01 7.033329e+01 8.373576e+01 5.285600e+01 8.791239e-12 -5.285600e+01 -8.373576e+01 -7.033329e+01 -3.268274e+01 -6.097281e+00 -7.944357e-01 3.007188e-01 3.781855e-01 2.573262e-01 1.309528e-01 5.053681e-02 1.221964e-02 -2.701284e-03 -3.870214e-03 -2.846189e-03 
-6.425866e-15 1.782931e-03 2.596253e-03 3.333426e-03 -7.332402e-04 -9.789913e-03 -2.718886e-02 -4.986174e-02 -5.277666e-02 5.492141e-02 8.463658e-01 2.911562e+00 8.387424e+00 1.994127e+01 3.267415e+01 3.106568e+01 8.743762e-12 -3.106568e+01 -3.267415e+01 -1.994127e+01 -8.387424e+00 -2.911562e+00 -8.463658e-01 -5.492141e-02 5.277666e-02 4.986174e-02 2.718886e-02 9.789913e-03 7.332402e-04 -3.333426e-03 -2.596253e-03 -1.782931e-03 
-3.641657e-15 9.507026e-04 1.520752e-03 2.278885e-03 1.456523e-03 -9.417077e-04 -4.475112e-03 -9.768796e-03 -1.452177e-03 4.036037e-02 2.990846e-01 9.351731e-01 2.438618e+00 5.396673e+00 9.151733e+00 8.503311e+00 2.042229e-12 -8.503311e+00 -9.151733e+00 -5.396673e+00 -2.438618e+00 -9.351731e-01 -2.990846e-01 -4.036037e-02 1.452177e-03 9.768796e-03 4.475112e-03 9.417077e-04 -1.456523e-03 -2.278885e-03 -1.520752e-03 -9.507026e-04 
