# vtk DataFile Version 2.0
Comment goes here
ASCII

DATASET STRUCTURED_POINTS
FIELD FieldData 1
TIME 1 1 double
1.22000000
DIMENSIONS    32   32   1

ORIGIN    0.000   0.000   0.000
SPACING   0.03125 0.03125   1.000

POINT_DATA   1024
SCALARS Omega double
LOOKUP_TABLE default

-6.972186e-14 -4.151772e-14 -4.897010e-15 2.134267e-14 2.973628e-13 9.051448e-13 2.507042e-12 4.925509e-12 8.341652e-12 1.160781e-11 1.413598e-11 1.473934e-11 1.333848e-11 9.702909e-12 4.077790e-12 -2.954867e-12 -8.287671e-12 -6.573209e-12 -6.715578e-14 6.100040e-12 1.068365e-11 1.333092e-11 1.400805e-11 1.257049e-11 9.965659e-12 6.674135e-12 3.980653e-12 1.852798e-12 7.893243e-13 1.652986e-13 2.455905e-15 -9.964333e-14 
-8.804492e-14 4.854948e-02 1.039104e-02 -1.904214e-01 -6.027534e-01 -1.288041e+00 -2.237714e+00 -3.444309e+00 -4.817981e+00 -6.268877e+00 -7.666624e+00 -8.804361e+00 -9.542278e+00 -9.627846e+00 -8.560813e+00 -5.696553e+00 -8.050571e-12 5.696553e+00 8.560813e+00 9.627846e+00 9.542278e+00 8.804361e+00 7.666624e+00 6.268877e+00 4.817981e+00 3.444309e+00 2.237714e+00 1.288041e+00 6.027534e-01 1.904214e-01 -1.039104e-02 -4.854948e-02 
-1.472473e-13 1.782163e-01 1.771095e-01 -1.407900e-01 -8.539466e-01 -2.061388e+00 -3.748223e+00 -5.894055e+00 -8.313044e+00 -1.081970e+01 -1.320121e+01 -1.516997e+01 -1.667518e+01 -1.730472e+01 -1.591134e+01 -1.079213e+01 -1.022419e-11 1.079213e+01 1.591134e+01 1.730472e+01 1.667518e+01 1.516997e+01 1.320121e+01 1.081970e+01 8.313044e+00 5.894055e+00 3.748223e+00 2.061388e+00 8.539466e-01 1.407900e-01 -1.771095e-01 -1.782163e-01 
-3.068427e-13 4.682299e-01 6.440513e-01 3.423168e-01 -5.079395e-01 -1.999818e+00 -4.101013e+00 -6.790930e+00 -9.814269e+00 -1.287053e+01 -1.575780e+01 -1.808351e+01 -2.027711e+01 -2.189693e+01 -2.113088e+01 -1.457934e+01 -1.429874e-11 1.457934e+01 2.113088e+01 2.189693e+01 2.027711e+01 1.808351e+01 1.575780e+01 1.287053e+01 9.814269e+00 6.790930e+00 4.101013e+00 1.999818e+00 5.079395e-01 -3.423168e-01 -6.440513e-01 -4.682299e-01 
-5.918021e-13 9.726568e-01 1.495466e+00 1.342995e+00 4.686469e-01 -1.136358e+00 -3.402328e+00 -6.296142e+00 -9.535695e+00 -1.269688e+01 -1.555165e+01 -1.754733e+01 -1.992543e+01 -2.279205e+01 -2.357172e+01 -1.646517e+01 -1.890629e-11 1.646517e+01 2.357172e+01 2.279205e+01 1.992543e+01 1.754733e+01 1.555165e+01 1.269688e+01 9.535695e+00 6.296142e+00 3.402328e+00 1.136358e+00 -4.686469e-01 -1.342995e+00 -1.495466e+00 -9.726568e-01 
-1.215152e-12 1.730288e+00 2.798994e+00 2.931359e+00 2.106843e+00 4.583159e-01 -1.835694e+00 -4.726230e+00 -7.932195e+00 -1.100535e+01 -1.380505e+01 -1.510481e+01 -1.709640e+01 -2.145516e+01 -2.390844e+01 -1.609162e+01 -2.214240e-11 1.609162e+01 2.390844e+01 2.145516e+01 1.709640e+01 1.510481e+01 1.380505e+01 1.100535e+01 7.932195e+00 4.726230e+00 1.835694e+00 -4.583159e-01 -2.106843e+00 -2.931359e+00 -2.798994e+00 -1.730288e+00 
-2.317031e-12 2.739789e+00 4.548585e+00 5.109018e+00 4.372470e+00 2.681152e+00 3.269520e-01 -2.524459e+00 -5.666638e+00 -8.589674e+00 -1.176864e+01 -1.420662e+01 -1.448328e+01 -2.282763e+01 -2.464522e+01 -1.425015e+01 -2.338449e-11 1.425015e+01 2.464522e+01 2.282763e+01 1.448328e+01 1.420662e+01 1.176864e+01 8.589674e+00 5.666638e+00 2.524459e+00 -3.269520e-01 -2.681152e+00 -4.372470e+00 -5.109018e+00 -4.548585e+00 -2.739789e+00 
-4.018205e-12 3.939942e+00 6.641508e+00 7.734407e+00 7.129127e+00 5.367641e+00 2.902917e+00 -1.051368e-02 -3.047984e+00 -6.272310e+00 -1.109672e+01 -2.178334e+01 -1.575311e+01 -3.505361e+01 -2.993924e+01 -7.033792e+00 -8.535883e-12 7.033792e+00 2.993924e+01 3.505361e+01 1.575311e+01 2.178334e+01 1.109672e+01 6.272310e+00 3.047984e+00 1.051368e-02 -2.902917e+00 -5.367641e+00 -7.129127e+00 -7.734407e+00 -6.641508e+00 -3.939942e+00 
-6.077467e-12 5.256768e+00 8.939612e+00 1.062358e+01 1.014435e+01 8.334348e+00 5.674135e+00 2.605482e+00 -7.841253e-01 -6.148090e+00 -2.341174e+01 -3.620580e+01 -1.159574e+01 1.665084e+01 3.758340e+01 2.508882e+01 3.452912e-11 -2.508882e+01 -3.758340e+01 -1.665084e+01 1.159574e+01 3.620580e+01 2.341174e+01 6.148090e+00 7.841253e-01 -2.605482e+00 -5.674135e+00 -8.334348e+00 -1.014435e+01 -1.062358e+01 -8.939612e+00 -5.256768e+00 
-8.133402e-12 6.576919e+00 1.125650e+01 1.346598e+01 1.308612e+01 1.124120e+01 8.464530e+00 5.216553e+00 8.178067e-01 -8.097116e+00 -2.960944e+01 -6.002739e+00 2.099879e+01 3.386416e+01 5.685553e+00 -1.501263e+01 1.122492e-11 1.501263e+01 -5.685553e+00 -3.386416e+01 -2.099879e+01 6.002739e+00 2.960944e+01 8.097116e+00 -8.178067e-01 -5.216553e+00 -8.464530e+00 -1.124120e+01 -1.308612e+01 -1.346598e+01 -1.125650e+01 -6.576919e+00 
-9.734685e-12 7.845061e+00 1.348111e+01 1.607560e+01 1.565417e+01 1.379995e+01 1.086814e+01 7.539007e+00 1.076590e+01 -3.577596e+00 -3.157193e+01 2.667114e-01 1.313598e-01 -3.302616e+01 -4.901562e+01 -1.947788e+01 -5.960542e-12 1.947788e+01 4.901562e+01 3.302616e+01 -1.313598e-01 -2.667114e-01 3.157193e+01 3.577596e+00 -1.076590e+01 -7.539007e+00 -1.086814e+01 -1.379995e+01 -1.565417e+01 -1.607560e+01 -1.348111e+01 -7.845061e+00 
-1.032030e-11 8.978535e+00 1.550101e+01 1.833445e+01 1.779506e+01 1.605407e+01 1.389219e+01 1.216435e+01 1.171188e+01 -3.162745e+01 -3.836795e+01 -9.280377e+00 -9.112152e+00 -8.146963e+00 9.483731e+00 2.464523e+01 -2.268691e-12 -2.464523e+01 -9.483731e+00 8.146963e+00 9.112152e+00 9.280377e+00 3.836795e+01 3.162745e+01 -1.171188e+01 -1.216435e+01 -1.389219e+01 -1.605407e+01 -1.779506e+01 -1.833445e+01 -1.550101e+01 -8.978535e+00 
-9.625021e-12 9.833227e+00 1.713728e+01 2.028374e+01 2.025749e+01 1.816961e+01 1.434721e+01 1.251255e+01 2.599484e+00 -5.977940e+01 -2.377378e+01 4.784260e+00 8.871056e+00 1.696092e+01 1.423461e+01 1.089373e+01 -4.019264e-12 -1.089373e+01 -1.423461e+01 -1.696092e+01 -8.871056e+00 -4.784260e+00 2.377378e+01 5.977940e+01 -2.599484e+00 -1.251255e+01 -1.434721e+01 -1.816961e+01 -2.025749e+01 -2.028374e+01 -1.713728e+01 -9.833227e+00 
-7.248407e-12 1.006338e+01 1.780681e+01 2.166090e+01 2.375479e+01 2.319498e+01 2.445148e+01 4.155234e+01 -2.600373e+01 -6.779555e+01 7.606566e+00 2.971528e+00 -2.201921e-01 3.469885e+00 3.346745e+00 3.497156e+00 -2.139126e-12 -3.497156e+00 -3.346745e+00 -3.469885e+00 2.201921e-01 -2.971528e+00 -7.606566e+00 6.779555e+01 2.600373e+01 -4.155234e+01 -2.445148e+01 -2.319498e+01 -2.375479e+01 -2.166090e+01 -1.780681e+01 -1.006338e+01 
-2.828873e-12 8.909499e+00 1.597176e+01 2.046658e+01 2.494291e+01 2.945672e+01 3.716062e+01 4.791068e+01 -6.464780e+01 -3.693390e+01 3.318048e+01 -5.788850e+00 -5.505669e+00 -2.147497e+00 1.886040e-01 9.081399e-01 -3.577495e-13 -9.081399e-01 -1.886040e-01 2.147497e+00 5.505669e+00 5.788850e+00 -3.318048e+01 3.693390e+01 6.464780e+01 -4.791068e+01 -3.716062e+01 -2.945672e+01 -2.494291e+01 -2.046658e+01 -1.597176e+01 -8.909499e+00 
2.088297e-12 5.439075e+00 9.792315e+00 1.296715e+01 1.659129e+01 2.057697e+01 2.404251e+01 9.754484e+00 -5.122254e+01 4.019585e+00 2.411588e+01 -1.386557e+01 -8.124686e+00 -3.293527e+00 -8.854272e-01 1.104267e-02 -3.149449e-13 -1.104267e-02 8.854272e-01 3.293527e+00 8.124686e+00 1.386557e+01 -2.411588e+01 -4.019585e+00 5.122254e+01 -9.754484e+00 -2.404251e+01 -2.057697e+01 -1.659129e+01 -1.296715e+01 -9.792315e+00 -5.439075e+00 
5.239032e-12 4.215059e-12 4.879982e-12 7.161412e-12 1.003108e-11 1.124628e-11 1.300939e-11 1.556401e-11 -2.722039e-11 -6.230859e-12 2.794364e-11 5.140160e-12 -5.494974e-12 -3.689263e-12 -1.914018e-12 -3.465321e-13 -4.611729e-13 4.890508e-13 8.694090e-13 5.331056e-12 1.578578e-11 3.793244e-11 2.600934e-11 -4.547055e-11 -9.025176e-11 2.075438e-12 4.347262e-11 3.955422e-11 3.489298e-11 2.813741e-11 1.877459e-11 9.969372e-12 
3.503890e-12 -5.439075e+00 -9.792315e+00 -1.296715e+01 -1.659129e+01 -2.057697e+01 -2.404251e+01 -9.754484e+00 5.122254e+01 -4.019585e+00 -2.411588e+01 1.386557e+01 8.124686e+00 3.293527e+00 8.854272e-01 -1.104267e-02 -1.509206e-12 1.104267e-02 -8.854272e-01 -3.293527e+00 -8.124686e+00 -1.386557e+01 2.411588e+01 4.019585e+00 -5.122254e+01 9.754484e+00 2.404251e+01 2.057697e+01 1.659129e+01 1.296715e+01 9.792315e+00 5.439075e+00 
-1.870365e-12 -8.909499e+00 -1.597176e+01 -2.046658e+01 -2.494291e+01 -2.945672e+01 -3.716062e+01 -4.791068e+01 6.464780e+01 3.693390e+01 -3.318048e+01 5.788850e+00 5.505669e+00 2.147497e+00 -1.886040e-01 -9.081399e-01 -4.577868e-12 9.081399e-01 1.886040e-01 -2.147497e+00 -5.505669e+00 -5.788850e+00 3.318048e+01 -3.693390e+01 -6.464780e+01 4.791068e+01 3.716062e+01 2.945672e+01 2.494291e+01 2.046658e+01 1.597176e+01 8.909499e+00 
-6.467769e-12 -1.006338e+01 -1.780681e+01 -2.166090e+01 -2.375479e+01 -2.319498e+01 -2.445148e+01 -4.155234e+01 2.600373e+01 6.779555e+01 -7.606566e+00 -2.971528e+00 2.201921e-01 -3.469885e+00 -3.346745e+00 -3.497156e+00 -1.527321e-11 3.497156e+00 3.346745e+00 3.469885e+00 -2.201921e-01 2.971528e+00 7.606566e+00 -6.779555e+01 -2.600373e+01 4.155234e+01 2.445148e+01 2.319498e+01 2.375479e+01 2.166090e+01 1.780681e+01 1.006338e+01 
-9.730149e-12 -9.833227e+00 -1.713728e+01 -2.028374e+01 -2.025749e+01 -1.816961e+01 -1.434721e+01 -1.251255e+01 -2.599484e+00 5.977940e+01 2.377378e+01 -4.784260e+00 -8.871056e+00 -1.696092e+01 -1.423461e+01 -1.089373e+01 -3.897894e-11 1.089373e+01 1.423461e+01 1.696092e+01 8.871056e+00 4.784260e+00 -2.377378e+01 -5.977940e+01 2.599484e+00 1.251255e+01 1.434721e+01 1.816961e+01 2.025749e+01 2.028374e+01 1.713728e+01 9.833227e+00 
-1.128871e-11 -8.978535e+00 -1.550101e+01 -1.833445e+01 -1.779506e+01 -1.605407e+01 -1.389219e+01 -1.216435e+01 -1.171188e+01 3.162745e+01 3.836795e+01 9.280377e+00 9.112152e+00 8.146963e+00 -9.483731e+00 -2.464523e+01 -6.499471e-11 2.464523e+01 9.483731e+00 -8.146963e+00 -9.112152e+00 -9.280377e+00 -3.836795e+01 -3.162745e+01 1.171188e+01 1.216435e+01 1.389219e+01 1.605407e+01 1.779506e+01 1.833445e+01 1.550101e+01 8.978535e+00 
-1.147282e-11 -7.845061e+00 -1.348111e+01 -1.607560e+01 -1.565417e+01 -1.379995e+01 -1.086814e+01 -7.539007e+00 -1.076590e+01 3.577596e+00 3.157193e+01 -2.667114e-01 -1.313598e-01 3.302616e+01 4.901562e+01 1.947788e+01 8.119196e-12 -1.947788e+01 -4.901562e+01 -3.302616e+01 1.313598e-01 2.667114e-01 -3.157193e+01 -3.577596e+00 1.076590e+01 7.539007e+00 1.086814e+01 1.379995e+01 1.565417e+01 1.607560e+01 1.348111e+01 7.845061e+00 
-1.035452e-11 -6.576919e+00 -1.125650e+01 -1.346598e+01 -1.308612e+01 -1.124120e+01 -8.464530e+00 -5.216553e+00 -8.178067e-01 8.097116e+00 2.960944e+01 6.002739e+00 -2.099879e+01 -3.386416e+01 -5.685553e+00 1.501263e+01 6.846347e-11 -1.501263e+01 5.685553e+00 3.386416e+01 2.099879e+01 -6.002739e+00 -2.960944e+01 -8.097116e+00 8.178067e-01 5.216553e+00 8.464530e+00 1.124120e+01 1.308612e+01 1.346598e+01 1.125650e+01 6.576919e+00 
-8.571995e-12 -5.256768e+00 -8.939612e+00 -1.062358e+01 -1.014435e+01 -8.334348e+00 -5.674135e+00 -2.605482e+00 7.841253e-01 6.148090e+00 2.341174e+01 3.620580e+01 1.159574e+01 -1.665084e+01 -3.758340e+01 -2.508882e+01 1.056233e-10 2.508882e+01 3.758340e+01 1.665084e+01 -1.159574e+01 -3.620580e+01 -2.341174e+01 -6.148090e+00 -7.841253e-01 2.605482e+00 5.674135e+00 8.334348e+00 1.014435e+01 1.062358e+01 8.939612e+00 5.256768e+00 
-6.253001e-12 -3.939942e+00 -6.641508e+00 -7.734407e+00 -7.129127e+00 -5.367641e+00 -2.902917e+00 1.051368e-02 3.047984e+00 6.272310e+00 1.109672e+01 2.178334e+01 1.575311e+01 3.505361e+01 2.993924e+01 7.033792e+00 1.526865e-12 -7.033792e+00 -2.993924e+01 -3.505361e+01 -1.575311e+01 -2.178334e+01 -1.109672e+01 -6.272310e+00 -3.047984e+00 -1.051368e-02 2.902917e+00 5.367641e+00 7.129127e+00 7.734407e+00 6.641508e+00 3.939942e+00 
-4.219348e-12 -2.739789e+00 -4.548585e+00 -5.109018e+00 -4.372470e+00 -2.681152e+00 -3.269520e-01 2.524459e+00 5.666638e+00 8.589674e+00 1.176864e+01 1.420662e+01 1.448328e+01 2.282763e+01 2.464522e+01 1.425015e+01 -6.022661e-11 -1.425015e+01 -2.464522e+01 -2.282763e+01 -1.448328e+01 -1.420662e+01 -1.176864e+01 -8.589674e+00 -5.666638e+00 -2.524459e+00 3.269520e-01 2.681152e+00 4.372470e+00 5.109018e+00 4.548585e+00 2.739789e+00 
-2.458308e-12 -1.730288e+00 -2.798994e+00 -2.931359e+00 -2.106843e+00 -4.583159e-01 1.835694e+00 4.726230e+00 7.932195e+00 1.100535e+01 1.380505e+01 1.510481e+01 1.709640e+01 2.145516e+01 2.390844e+01 1.609162e+01 -7.392440e-11 -1.609162e+01 -2.390844e+01 -2.145516e+01 -1.709640e+01 -1.510481e+01 -1.380505e+01 -1.100535e+01 -7.932195e+00 -4.726230e+00 -1.835694e+00 4.583159e-01 2.106843e+00 2.931359e+00 2.798994e+00 1.730288e+00 
-1.385548e-12 -9.726568e-01 -1.495466e+00 -1.342995e+00 -4.686469e-01 1.136358e+00 3.402328e+00 6.296142e+00 9.535695e+00 1.269688e+01 1.555165e+01 1.754733e+01 1.992543e+01 2.279205e+01 2.357172e+01 1.646517e+01 -6.555252e-11 -1.646517e+01 -2.357172e+01 -2.279205e+01 -1.992543e+01 -1.754733e+01 -1.555165e+01 -1.269688e+01 -9.535695e+00 -6.296142e+00 -3.402328e+00 -1.136358e+00 4.686469e-01 1.342995e+00 1.495466e+00 9.726568e-01 
-6.078883e-13 -4.682299e-01 -6.440513e-01 -3.423168e-01 5.079395e-01 1.999818e+00 4.101013e+00 6.790930e+00 9.814269e+00 1.287053e+01 1.575780e+01 1.808351e+01 2.027711e+01 2.189693e+01 2.113088e+01 1.457934e+01 -4.528112e-11 -1.457934e+01 -2.113088e+01 -2.189693e+01 -2.027711e+01 -1.808351e+01 -1.575780e+01 -1.287053e+01 -9.814269e+00 -6.790930e+00 -4.101013e+00 -1.999818e+00 -5.079395e-01 3.423168e-01 6.440513e-01 4.682299e-01 
-3.100940e-13 -1.782163e-01 -1.771095e-01 1.407900e-01 8.539466e-01 2.061388e+00 3.748223e+00 5.894055e+00 8.313044e+00 1.081970e+01 1.320121e+01 1.516997e+01 1.667518e+01 1.730472e+01 1.591134e+01 1.079213e+01 -2.577357e-11 -1.079213e+01 -1.591134e+01 -1.730472e+01 -1.667518e+01 -1.516997e+01 -1.320121e+01 -1.081970e+01 -8.313044e+00 -5.894055e+00 -3.748223e+00 -2.061388e+00 -8.539466e-01 -1.407900e-01 1.771095e-01 1.782163e-01 
-1.096893e-13 -4.854948e-02 -1.039104e-02 1.904214e-01 6.027534e-01 1.288041e+00 2.237714e+00 3.444309e+00 4.817981e+00 6.268877e+00 7.666624e+00 8.804361e+00 9.542278e+00 9.627846e+00 8.560813e+00 5.696553e+00 -1.342330e-11 -5.696553e+00 -8.560813e+00 -9.627846e+00 -9.542278e+00 -8.804361e+00 -7.666624e+00 -6.268877e+00 -4.817981e+00 -3.444309e+00 -2.237714e+00 -1.288041e+00 -6.027534e-01 -1.904214e-01 1.039104e-02 4.854948e-02 
