# vtk DataFile Version 2.0
Comment goes here
ASCII

DATASET STRUCTURED_POINTS
FIELD FieldData 1
TIME 1 1 double
1.18000000
DIMENSIONS    32   32   1

ORIGIN    0.000   0.000   0.000
SPACING   0.03125 0.03125   1.000

POINT_DATA   1024
SCALARS Omega double
LOOKUP_TABLE default

-6.577167e-14 -4.662703e-14 -3.750003e-14 -4.084304e-14 1.003397e-13 3.983599e-13 1.334379e-12 2.823095e-12 5.128154e-12 7.536876e-12 9.783412e-12 1.081435e-11 1.031114e-11 7.785862e-12 3.294731e-12 -1.707653e-12 -5.318384e-12 -4.150151e-12 5.981489e-13 4.910362e-12 8.147452e-12 9.743963e-12 9.752899e-12 8.340091e-12 6.400761e-12 4.087970e-12 2.361393e-12 9.975953e-13 4.285339e-13 3.237146e-14 -4.455099e-14 -9.221324e-14 
-8.668995e-14 5.032883e-02 2.111010e-02 -1.603274e-01 -5.437773e-01 -1.197783e+00 -2.123439e+00 -3.315528e+00 -4.671965e+00 -6.113541e+00 -7.551367e+00 -8.814632e+00 -9.707949e+00 -9.852548e+00 -8.602141e+00 -5.469825e+00 -5.113483e-12 5.469825e+00 8.602141e+00 9.852548e+00 9.707949e+00 8.814632e+00 7.551367e+00 6.113541e+00 4.671965e+00 3.315528e+00 2.123439e+00 1.197783e+00 5.437773e-01 1.603274e-01 -2.111010e-02 -5.032883e-02 
-1.586957e-13 1.836540e-01 2.024111e-01 -7.454544e-02 -7.221261e-01 -1.848560e+00 -3.460813e+00 -5.559943e+00 -7.962014e+00 -1.050007e+01 -1.299758e+01 -1.518140e+01 -1.684670e+01 -1.744902e+01 -1.577582e+01 -1.041216e+01 -6.690919e-12 1.041216e+01 1.577582e+01 1.744902e+01 1.684670e+01 1.518140e+01 1.299758e+01 1.050007e+01 7.962014e+00 5.559943e+00 3.460813e+00 1.848560e+00 7.221261e-01 7.454544e-02 -2.024111e-01 -1.836540e-01 
-3.068831e-13 4.802994e-01 6.869900e-01 4.427543e-01 -3.152789e-01 -1.681066e+00 -3.657210e+00 -6.258620e+00 -9.257956e+00 -1.236516e+01 -1.539155e+01 -1.794602e+01 -2.028048e+01 -2.197995e+01 -2.137176e+01 -1.499591e+01 -1.021720e-11 1.499591e+01 2.137176e+01 2.197995e+01 2.028048e+01 1.794602e+01 1.539155e+01 1.236516e+01 9.257956e+00 6.258620e+00 3.657210e+00 1.681066e+00 3.152789e-01 -4.427543e-01 -6.869900e-01 -4.802994e-01 
-5.613011e-13 1.001533e+00 1.575106e+00 1.495097e+00 7.337555e-01 -7.046691e-01 -2.784293e+00 -5.510575e+00 -8.677173e+00 -1.191081e+01 -1.498388e+01 -1.743236e+01 -2.024891e+01 -2.365449e+01 -2.579492e+01 -1.929261e+01 -1.496426e-11 1.929261e+01 2.579492e+01 2.365449e+01 2.024891e+01 1.743236e+01 1.498388e+01 1.191081e+01 8.677173e+00 5.510575e+00 2.784293e+00 7.046691e-01 -7.337555e-01 -1.495097e+00 -1.575106e+00 -1.001533e+00 
-1.012210e-12 1.793083e+00 2.947254e+00 3.171843e+00 2.471117e+00 1.011811e+00 -1.065641e+00 -3.713552e+00 -6.777182e+00 -9.885631e+00 -1.294955e+01 -1.490722e+01 -1.752682e+01 -2.245704e+01 -2.854723e+01 -2.219354e+01 -1.932464e-11 2.219354e+01 2.854723e+01 2.245704e+01 1.752682e+01 1.490722e+01 1.294955e+01 9.885631e+00 6.777182e+00 3.713552e+00 1.065641e+00 -1.011811e+00 -2.471117e+00 -3.171843e+00 -2.947254e+00 -1.793083e+00 
-1.798507e-12 2.852810e+00 4.796492e+00 5.468467e+00 4.867215e+00 3.369832e+00 1.236652e+00 -1.319716e+00 -4.241282e+00 -7.115879e+00 -1.030543e+01 -1.306281e+01 -1.280437e+01 -1.965088e+01 -3.055852e+01 -2.325495e+01 -2.063670e-11 2.325495e+01 3.055852e+01 1.965088e+01 1.280437e+01 1.306281e+01 1.030543e+01 7.115879e+00 4.241282e+00 1.319716e+00 -1.236652e+00 -3.369832e+00 -4.867215e+00 -5.468467e+00 -4.796492e+00 -2.852810e+00 
-2.984289e-12 4.126602e+00 7.020880e+00 8.249017e+00 7.788545e+00 6.232512e+00 3.970474e+00 1.403733e+00 -1.375909e+00 -4.156262e+00 -7.644279e+00 -1.521814e+01 -3.328794e+00 -2.198147e+01 -3.229521e+01 -1.568248e+01 -1.137273e-11 1.568248e+01 3.229521e+01 2.198147e+01 3.328794e+00 1.521814e+01 7.644279e+00 4.156262e+00 1.375909e+00 -1.403733e+00 -3.970474e+00 -6.232512e+00 -7.788545e+00 -8.249017e+00 -7.020880e+00 -4.126602e+00 
-4.419039e-12 5.526640e+00 9.452599e+00 1.127347e+01 1.094108e+01 9.323091e+00 6.881414e+00 4.225629e+00 1.500603e+00 -3.238485e-01 -1.395061e+01 -3.155406e+01 -1.323237e+01 -3.483809e+00 2.889031e+01 3.131827e+01 3.334624e-11 -3.131827e+01 -2.889031e+01 3.483809e+00 1.323237e+01 3.155406e+01 1.395061e+01 3.238485e-01 -1.500603e+00 -4.225629e+00 -6.881414e+00 -9.323091e+00 -1.094108e+01 -1.127347e+01 -9.452599e+00 -5.526640e+00 
-5.810143e-12 6.922210e+00 1.187637e+01 1.422416e+01 1.394804e+01 1.224744e+01 9.665993e+00 7.200098e+00 5.696065e+00 3.249689e+00 -2.938379e+01 -5.733143e+00 3.862874e+01 4.038765e+01 2.900594e+01 2.695876e+00 1.171108e-11 -2.695876e+00 -2.900594e+01 -4.038765e+01 -3.862874e+01 5.733143e+00 2.938379e+01 -3.249689e+00 -5.696065e+00 -7.200098e+00 -9.665993e+00 -1.224744e+01 -1.394804e+01 -1.422416e+01 -1.187637e+01 -6.922210e+00 
-6.914791e-12 8.204072e+00 1.412489e+01 1.685982e+01 1.649127e+01 1.475165e+01 1.234979e+01 1.118853e+01 1.493445e+01 -2.824403e+00 -1.711061e+01 2.771463e+01 1.182188e+01 -1.487771e+01 -2.183691e+01 -1.567508e+01 -7.415265e-12 1.567508e+01 2.183691e+01 1.487771e+01 -1.182188e+01 -2.771463e+01 1.711061e+01 2.824403e+00 -1.493445e+01 -1.118853e+01 -1.234979e+01 -1.475165e+01 -1.649127e+01 -1.685982e+01 -1.412489e+01 -8.204072e+00 
-7.300075e-12 9.295973e+00 1.610434e+01 1.908479e+01 1.845365e+01 1.672213e+01 1.636894e+01 2.076345e+01 1.352598e+01 -3.459677e+01 -1.217971e+01 4.178546e+00 -2.899796e+01 -1.764899e+01 1.007950e+00 1.460622e+01 -2.254322e-12 -1.460622e+01 -1.007950e+00 1.764899e+01 2.899796e+01 -4.178546e+00 1.217971e+01 3.459677e+01 -1.352598e+01 -2.076345e+01 -1.636894e+01 -1.672213e+01 -1.845365e+01 -1.908479e+01 -1.610434e+01 -9.295973e+00 
-6.977087e-12 1.015024e+01 1.780967e+01 2.116142e+01 2.082997e+01 1.898026e+01 1.690683e+01 3.178952e+01 -1.665688e+01 -6.061183e+01 -6.696773e+00 -5.369023e+00 8.848945e+00 1.521079e+01 1.079419e+01 1.230774e+01 -3.836460e-12 -1.230774e+01 -1.079419e+01 -1.521079e+01 -8.848945e+00 5.369023e+00 6.696773e+00 6.061183e+01 1.665688e+01 -3.178952e+01 -1.690683e+01 -1.898026e+01 -2.082997e+01 -2.116142e+01 -1.780967e+01 -1.015024e+01 
-5.660029e-12 1.053923e+01 1.879511e+01 2.285371e+01 2.418161e+01 2.551359e+01 3.464602e+01 2.731913e+01 -7.909419e+01 -3.984812e+01 3.505731e+01 -1.883413e+00 4.530843e+00 2.255552e+00 3.724065e+00 4.556554e+00 -1.647933e-12 -4.556554e+00 -3.724065e+00 -2.255552e+00 -4.530843e+00 1.883413e+00 -3.505731e+01 3.984812e+01 7.909419e+01 -2.731913e+01 -3.464602e+01 -2.551359e+01 -2.418161e+01 -2.285371e+01 -1.879511e+01 -1.053923e+01 
-3.059713e-12 9.746984e+00 1.750837e+01 2.180085e+01 2.425606e+01 2.805400e+01 4.110792e+01 -1.351049e+01 -7.850482e+01 2.491541e+01 4.504328e+01 -7.139466e+00 -7.280308e+00 -1.752457e+00 8.196658e-01 1.390944e+00 -2.500860e-13 -1.390944e+00 -8.196658e-01 1.752457e+00 7.280308e+00 7.139466e+00 -4.504328e+01 -2.491541e+01 7.850482e+01 1.351049e+01 -4.110792e+01 -2.805400e+01 -2.425606e+01 -2.180085e+01 -1.750837e+01 -9.746984e+00 
4.591687e-13 6.467569e+00 1.146037e+01 1.410645e+01 1.539863e+01 1.696178e+01 2.006002e+01 -3.336565e+01 -2.965259e+01 3.397360e+01 9.628077e+00 -1.449652e+01 -7.787957e+00 -2.292747e+00 -3.681840e-01 2.637824e-01 -4.461509e-14 -2.637824e-01 3.681840e-01 2.292747e+00 7.787957e+00 1.449652e+01 -9.628077e+00 -3.397360e+01 2.965259e+01 3.336565e+01 -2.006002e+01 -1.696178e+01 -1.539863e+01 -1.410645e+01 -1.146037e+01 -6.467569e+00 
2.679356e-12 2.225636e-12 2.928278e-12 4.701836e-12 7.510940e-12 1.144848e-11 1.726783e-11 -8.890596e-12 -9.816902e-12 4.022007e-11 1.957965e-11 -9.049585e-12 -4.103548e-12 -1.688116e-12 -9.584421e-13 -1.718574e-13 -2.685385e-13 2.527270e-13 5.310648e-13 3.281691e-12 8.992275e-12 2.651285e-11 3.234601e-11 1.812145e-11 -3.063627e-11 -5.545383e-11 8.203906e-12 2.828630e-11 3.303187e-11 2.681481e-11 1.544653e-11 6.508304e-12 
1.251253e-12 -6.467569e+00 -1.146037e+01 -1.410645e+01 -1.539863e+01 -1.696178e+01 -2.006002e+01 3.336565e+01 2.965259e+01 -3.397360e+01 -9.628077e+00 1.449652e+01 7.787957e+00 2.292747e+00 3.681840e-01 -2.637824e-01 -1.096390e-12 2.637824e-01 -3.681840e-01 -2.292747e+00 -7.787957e+00 -1.449652e+01 9.628077e+00 3.397360e+01 -2.965259e+01 -3.336565e+01 2.006002e+01 1.696178e+01 1.539863e+01 1.410645e+01 1.146037e+01 6.467569e+00 
-2.203702e-12 -9.746984e+00 -1.750837e+01 -2.180085e+01 -2.425606e+01 -2.805400e+01 -4.110792e+01 1.351049e+01 7.850482e+01 -2.491541e+01 -4.504328e+01 7.139466e+00 7.280308e+00 1.752457e+00 -8.196658e-01 -1.390944e+00 -3.706764e-12 1.390944e+00 8.196658e-01 -1.752457e+00 -7.280308e+00 -7.139466e+00 4.504328e+01 2.491541e+01 -7.850482e+01 -1.351049e+01 4.110792e+01 2.805400e+01 2.425606e+01 2.180085e+01 1.750837e+01 9.746984e+00 
-5.220321e-12 -1.053923e+01 -1.879511e+01 -2.285371e+01 -2.418161e+01 -2.551359e+01 -3.464602e+01 -2.731913e+01 7.909419e+01 3.984812e+01 -3.505731e+01 1.883413e+00 -4.530843e+00 -2.255552e+00 -3.724065e+00 -4.556554e+00 -1.182297e-11 4.556554e+00 3.724065e+00 2.255552e+00 4.530843e+00 -1.883413e+00 3.505731e+01 -3.984812e+01 -7.909419e+01 2.731913e+01 3.464602e+01 2.551359e+01 2.418161e+01 2.285371e+01 1.879511e+01 1.053923e+01 
-7.172791e-12 -1.015024e+01 -1.780967e+01 -2.116142e+01 -2.082997e+01 -1.898026e+01 -1.690683e+01 -3.178952e+01 1.665688e+01 6.061183e+01 6.696773e+00 5.369023e+00 -8.848945e+00 -1.521079e+01 -1.079419e+01 -1.230774e+01 -2.555160e-11 1.230774e+01 1.079419e+01 1.521079e+01 8.848945e+00 -5.369023e+00 -6.696773e+00 -6.061183e+01 -1.665688e+01 3.178952e+01 1.690683e+01 1.898026e+01 2.082997e+01 2.116142e+01 1.780967e+01 1.015024e+01 
-8.171865e-12 -9.295973e+00 -1.610434e+01 -1.908479e+01 -1.845365e+01 -1.672213e+01 -1.636894e+01 -2.076345e+01 -1.352598e+01 3.459677e+01 1.217971e+01 -4.178546e+00 2.899796e+01 1.764899e+01 -1.007950e+00 -1.460622e+01 -1.194979e-11 1.460622e+01 1.007950e+00 -1.764899e+01 -2.899796e+01 4.178546e+00 -1.217971e+01 -3.459677e+01 1.352598e+01 2.076345e+01 1.636894e+01 1.672213e+01 1.845365e+01 1.908479e+01 1.610434e+01 9.295973e+00 
-8.335269e-12 -8.204072e+00 -1.412489e+01 -1.685982e+01 -1.649127e+01 -1.475165e+01 -1.234979e+01 -1.118853e+01 -1.493445e+01 2.824403e+00 1.711061e+01 -2.771463e+01 -1.182188e+01 1.487771e+01 2.183691e+01 1.567508e+01 3.904762e-11 -1.567508e+01 -2.183691e+01 -1.487771e+01 1.182188e+01 2.771463e+01 -1.711061e+01 -2.824403e+00 1.493445e+01 1.118853e+01 1.234979e+01 1.475165e+01 1.649127e+01 1.685982e+01 1.412489e+01 8.204072e+00 
-7.605908e-12 -6.922210e+00 -1.187637e+01 -1.422416e+01 -1.394804e+01 -1.224744e+01 -9.665993e+00 -7.200098e+00 -5.696065e+00 -3.249689e+00 2.938379e+01 5.733143e+00 -3.862874e+01 -4.038765e+01 -2.900594e+01 -2.695876e+00 6.850096e-11 2.695876e+00 2.900594e+01 4.038765e+01 3.862874e+01 -5.733143e+00 -2.938379e+01 3.249689e+00 5.696065e+00 7.200098e+00 9.665993e+00 1.224744e+01 1.394804e+01 1.422416e+01 1.187637e+01 6.922210e+00 
-6.299637e-12 -5.526640e+00 -9.452599e+00 -1.127347e+01 -1.094108e+01 -9.323091e+00 -6.881414e+00 -4.225629e+00 -1.500603e+00 3.238485e-01 1.395061e+01 3.155406e+01 1.323237e+01 3.483809e+00 -2.889031e+01 -3.131827e+01 8.706411e-11 3.131827e+01 2.889031e+01 -3.483809e+00 -1.323237e+01 -3.155406e+01 -1.395061e+01 -3.238485e-01 1.500603e+00 4.225629e+00 6.881414e+00 9.323091e+00 1.094108e+01 1.127347e+01 9.452599e+00 5.526640e+00 
-4.674395e-12 -4.126602e+00 -7.020880e+00 -8.249017e+00 -7.788545e+00 -6.232512e+00 -3.970474e+00 -1.403733e+00 1.375909e+00 4.156262e+00 7.644279e+00 1.521814e+01 3.328794e+00 2.198147e+01 3.229521e+01 1.568248e+01 -4.669963e-11 -1.568248e+01 -3.229521e+01 -2.198147e+01 -3.328794e+00 -1.521814e+01 -7.644279e+00 -4.156262e+00 -1.375909e+00 1.403733e+00 3.970474e+00 6.232512e+00 7.788545e+00 8.249017e+00 7.020880e+00 4.126602e+00 
-3.195912e-12 -2.852810e+00 -4.796492e+00 -5.468467e+00 -4.867215e+00 -3.369832e+00 -1.236652e+00 1.319716e+00 4.241282e+00 7.115879e+00 1.030543e+01 1.306281e+01 1.280437e+01 1.965088e+01 3.055852e+01 2.325495e+01 -7.032215e-11 -2.325495e+01 -3.055852e+01 -1.965088e+01 -1.280437e+01 -1.306281e+01 -1.030543e+01 -7.115879e+00 -4.241282e+00 -1.319716e+00 1.236652e+00 3.369832e+00 4.867215e+00 5.468467e+00 4.796492e+00 2.852810e+00 
-1.926768e-12 -1.793083e+00 -2.947254e+00 -3.171843e+00 -2.471117e+00 -1.011811e+00 1.065641e+00 3.713552e+00 6.777182e+00 9.885631e+00 1.294955e+01 1.490722e+01 1.752682e+01 2.245704e+01 2.854723e+01 2.219354e+01 -6.156792e-11 -2.219354e+01 -2.854723e+01 -2.245704e+01 -1.752682e+01 -1.490722e+01 -1.294955e+01 -9.885631e+00 -6.777182e+00 -3.713552e+00 -1.065641e+00 1.011811e+00 2.471117e+00 3.171843e+00 2.947254e+00 1.793083e+00 
-1.086359e-12 -1.001533e+00 -1.575106e+00 -1.495097e+00 -7.337555e-01 7.046691e-01 2.784293e+00 5.510575e+00 8.677173e+00 1.191081e+01 1.498388e+01 1.743236e+01 2.024891e+01 2.365449e+01 2.579492e+01 1.929261e+01 -4.581103e-11 -1.929261e+01 -2.579492e+01 -2.365449e+01 -2.024891e+01 -1.743236e+01 -1.498388e+01 -1.191081e+01 -8.677173e+00 -5.510575e+00 -2.784293e+00 -7.046691e-01 7.337555e-01 1.495097e+00 1.575106e+00 1.001533e+00 
-5.094011e-13 -4.802994e-01 -6.869900e-01 -4.427543e-01 3.152789e-01 1.681066e+00 3.657210e+00 6.258620e+00 9.257956e+00 1.236516e+01 1.539155e+01 1.794602e+01 2.028048e+01 2.197995e+01 2.137176e+01 1.499591e+01 -2.955991e-11 -1.499591e+01 -2.137176e+01 -2.197995e+01 -2.028048e+01 -1.794602e+01 -1.539155e+01 -1.236516e+01 -9.257956e+00 -6.258620e+00 -3.657210e+00 -1.681066e+00 -3.152789e-01 4.427543e-01 6.869900e-01 4.802994e-01 
-2.659576e-13 -1.836540e-01 -2.024111e-01 7.454544e-02 7.221261e-01 1.848560e+00 3.460813e+00 5.559943e+00 7.962014e+00 1.050007e+01 1.299758e+01 1.518140e+01 1.684670e+01 1.744902e+01 1.577582e+01 1.041216e+01 -1.659101e-11 -1.041216e+01 -1.577582e+01 -1.744902e+01 -1.684670e+01 -1.518140e+01 -1.299758e+01 -1.050007e+01 -7.962014e+00 -5.559943e+00 -3.460813e+00 -1.848560e+00 -7.221261e-01 -7.454544e-02 2.024111e-01 1.836540e-01 
-1.046340e-13 -5.032883e-02 -2.111010e-02 1.603274e-01 5.437773e-01 1.197783e+00 2.123439e+00 3.315528e+00 4.671965e+00 6.113541e+00 7.551367e+00 8.814632e+00 9.707949e+00 9.852548e+00 8.602141e+00 5.469825e+00 -8.735554e-12 -5.469825e+00 -8.602141e+00 -9.852548e+00 -9.707949e+00 -8.814632e+00 -7.551367e+00 -6.113541e+00 -4.671965e+00 -3.315528e+00 -2.123439e+00 -1.197783e+00 -5.437773e-01 -1.603274e-01 2.111010e-02 5.032883e-02 
