# vtk DataFile Version 2.0
Comment goes here
ASCII

DATASET STRUCTURED_POINTS
FIELD FieldData 1
TIME 1 1 double
0.58000000
DIMENSIONS    32   32   1

ORIGIN    0.000   0.000   0.000
SPACING   0.03125 0.03125   1.000

POINT_DATA   1024
SCALARS Omega double
LOOKUP_TABLE default

-6.981330e-14 -6.577189e-14 -6.214496e-14 -4.770117e-14 -4.785285e-14 -4.326715e-14 -6.707768e-14 -8.593142e-14 -2.267656e-13 -3.720024e-13 -5.822376e-13 -6.451914e-13 -5.819697e-13 -3.326790e-13 4.316730e-14 8.414189e-13 1.038620e-12 4.510359e-13 2.444522e-13 -6.694197e-14 -2.973154e-13 -4.413128e-13 -4.054979e-13 -2.842541e-13 -1.928484e-13 -7.860184e-14 -6.394615e-14 -5.312728e-14 -5.300926e-14 -4.971357e-14 -6.197052e-14 -6.111313e-14 
-5.659382e-14 1.817590e-02 3.364224e-02 3.910855e-02 3.252765e-02 -3.107995e-02 -1.982143e-01 -6.380037e-01 -1.491550e+00 -2.907023e+00 -4.808265e+00 -6.865101e+00 -8.891119e+00 -1.069919e+01 -1.204687e+01 -1.071503e+01 5.894716e-13 1.071503e+01 1.204687e+01 1.069919e+01 8.891119e+00 6.865101e+00 4.808265e+00 2.907023e+00 1.491550e+00 6.380037e-01 1.982143e-01 3.107995e-02 -3.252765e-02 -3.910855e-02 -3.364224e-02 -1.817590e-02 
-4.088381e-14 4.817996e-02 8.668136e-02 1.025457e-01 9.869020e-02 6.657745e-03 -2.304990e-01 -8.774878e-01 -2.167688e+00 -4.420725e+00 -7.682404e+00 -1.151506e+01 -1.575574e+01 -2.003353e+01 -2.360524e+01 -2.106131e+01 2.239256e-13 2.106131e+01 2.360524e+01 2.003353e+01 1.575574e+01 1.151506e+01 7.682404e+00 4.420725e+00 2.167688e+00 8.774878e-01 2.304990e-01 -6.657745e-03 -9.869020e-02 -1.025457e-01 -8.668136e-02 -4.817996e-02 
-3.757565e-14 1.129752e-01 1.936982e-01 2.265880e-01 2.255023e-01 1.324258e-01 -9.659241e-02 -7.176185e-01 -2.005986e+00 -4.345550e+00 -8.041193e+00 -1.272223e+01 -1.863420e+01 -2.540865e+01 -3.197500e+01 -2.792060e+01 1.929173e-13 2.792060e+01 3.197500e+01 2.540865e+01 1.863420e+01 1.272223e+01 8.041193e+00 4.345550e+00 2.005986e+00 7.176185e-01 9.659241e-02 -1.324258e-01 -2.255023e-01 -2.265880e-01 -1.936982e-01 -1.129752e-01 
-2.457982e-14 2.567088e-01 4.208207e-01 4.756150e-01 4.618449e-01 3.629842e-01 1.772144e-01 -2.858234e-01 -1.305476e+00 -3.111935e+00 -6.187038e+00 -1.046309e+01 -1.666613e+01 -2.507838e+01 -3.478326e+01 -2.833637e+01 7.055319e-13 2.833637e+01 3.478326e+01 2.507838e+01 1.666613e+01 1.046309e+01 6.187038e+00 3.111935e+00 1.305476e+00 2.858234e-01 -1.772144e-01 -3.629842e-01 -4.618449e-01 -4.756150e-01 -4.208207e-01 -2.567088e-01 
-3.610868e-14 5.734265e-01 9.102441e-01 9.928502e-01 9.103511e-01 7.414758e-01 5.369797e-01 1.928476e-01 -7.046936e-01 -1.506974e+00 -3.417347e+00 -7.006951e+00 -1.186407e+01 -2.115002e+01 -2.981702e+01 -2.001559e+01 1.256191e-12 2.001559e+01 2.981702e+01 2.115002e+01 1.186407e+01 7.006951e+00 3.417347e+00 1.506974e+00 7.046936e-01 -1.928476e-01 -5.369797e-01 -7.414758e-01 -9.103511e-01 -9.928502e-01 -9.102441e-01 -5.734265e-01 
-1.042355e-13 1.183461e+00 1.849641e+00 1.977154e+00 1.733348e+00 1.368177e+00 1.039272e+00 7.326324e-01 -1.481117e-01 5.530672e-01 1.523906e-01 -6.580689e+00 -1.227200e+01 -2.229057e+01 -1.662262e+01 -3.666335e+00 9.994652e-13 3.666335e+00 1.662262e+01 2.229057e+01 1.227200e+01 6.580689e+00 -1.523906e-01 -5.530672e-01 1.481117e-01 -7.326324e-01 -1.039272e+00 -1.368177e+00 -1.733348e+00 -1.977154e+00 -1.849641e+00 -1.183461e+00 
-2.306604e-13 2.232659e+00 3.482412e+00 3.699529e+00 3.151443e+00 2.388854e+00 1.815879e+00 1.621070e+00 1.473970e+00 2.434543e+00 -4.495236e+00 -2.894520e+01 -2.718812e+01 -2.282331e+01 4.012989e+00 1.093589e+01 4.159608e-13 -1.093589e+01 -4.012989e+00 2.282331e+01 2.718812e+01 2.894520e+01 4.495236e+00 -2.434543e+00 -1.473970e+00 -1.621070e+00 -1.815879e+00 -2.388854e+00 -3.151443e+00 -3.699529e+00 -3.482412e+00 -2.232659e+00 
-3.848984e-13 3.771940e+00 5.906200e+00 6.310143e+00 5.333615e+00 3.981472e+00 3.346886e+00 3.422623e+00 -2.563102e+00 -2.325494e+01 -3.325405e+01 -2.483019e+01 1.927420e+01 2.660974e+01 1.768669e+01 3.443565e+00 -7.252157e-13 -3.443565e+00 -1.768669e+01 -2.660974e+01 -1.927420e+01 2.483019e+01 3.325405e+01 2.325494e+01 2.563102e+00 -3.422623e+00 -3.346886e+00 -3.981472e+00 -5.333615e+00 -6.310143e+00 -5.906200e+00 -3.771940e+00 
-5.800129e-13 5.795517e+00 9.107941e+00 9.794251e+00 8.361395e+00 6.415258e+00 4.556095e+00 -3.431640e+00 -3.045529e+01 -3.831649e+01 -1.292969e+01 3.884526e+00 2.678387e+00 -1.350208e+01 -2.523305e+01 -1.383408e+01 -1.063159e-12 1.383408e+01 2.523305e+01 1.350208e+01 -2.678387e+00 -3.884526e+00 1.292969e+01 3.831649e+01 3.045529e+01 3.431640e+00 -4.556095e+00 -6.415258e+00 -8.361395e+00 -9.794251e+00 -9.107941e+00 -5.795517e+00 
-7.106224e-13 8.197487e+00 1.289616e+01 1.400919e+01 1.240256e+01 1.174762e+01 1.435487e+01 -1.633737e+00 -4.799707e+01 -2.593808e+01 -1.430002e+01 -2.542280e+01 -3.363857e+01 -2.736880e+01 -1.550936e+01 -2.942506e+00 1.139368e-13 2.942506e+00 1.550936e+01 2.736880e+01 3.363857e+01 2.542280e+01 1.430002e+01 2.593808e+01 4.799707e+01 1.633737e+00 -1.435487e+01 -1.174762e+01 -1.240256e+01 -1.400919e+01 -1.289616e+01 -8.197487e+00 
-7.479849e-13 1.071636e+01 1.686421e+01 1.859324e+01 1.811651e+01 2.425875e+01 2.327171e+01 -3.915658e+01 -6.299476e+01 -1.778522e+01 -1.658734e+01 -9.353129e+00 1.199912e+01 2.696138e+01 2.861944e+01 1.530758e+01 6.283126e-14 -1.530758e+01 -2.861944e+01 -2.696138e+01 -1.199912e+01 9.353129e+00 1.658734e+01 1.778522e+01 6.299476e+01 3.915658e+01 -2.327171e+01 -2.425875e+01 -1.811651e+01 -1.859324e+01 -1.686421e+01 -1.071636e+01 
-5.842856e-13 1.289287e+01 2.064167e+01 2.365479e+01 2.553264e+01 3.764315e+01 -1.645104e+01 -1.043467e+02 -4.310771e+01 4.057439e-01 1.316742e+01 1.519785e+01 1.367046e+01 1.350933e+01 1.341939e+01 8.832194e+00 -2.077697e-13 -8.832194e+00 -1.341939e+01 -1.350933e+01 -1.367046e+01 -1.519785e+01 -1.316742e+01 -4.057439e-01 4.310771e+01 1.043467e+02 1.645104e+01 -3.764315e+01 -2.553264e+01 -2.365479e+01 -2.064167e+01 -1.289287e+01 
-1.934942e-13 1.380298e+01 2.289746e+01 2.788182e+01 3.763509e+01 4.683747e+01 -8.944966e+01 -8.808827e+01 4.045079e+01 1.810733e+01 -1.070030e+00 -8.858443e+00 -7.827715e-01 4.099301e+00 6.049835e+00 4.695689e+00 -8.881603e-14 -4.695689e+00 -6.049835e+00 -4.099301e+00 7.827715e-01 8.858443e+00 1.070030e+00 -1.810733e+01 -4.045079e+01 8.808827e+01 8.944966e+01 -4.683747e+01 -3.763509e+01 -2.788182e+01 -2.289746e+01 -1.380298e+01 
3.548453e-13 1.210250e+01 2.043027e+01 2.702406e+01 4.532765e+01 1.584223e+01 -1.073139e+02 -8.846656e+00 6.823011e+01 3.676666e+00 -1.795440e+01 -1.575891e+01 -5.951859e+00 -8.193293e-01 1.695734e+00 1.815790e+00 -9.471467e-14 -1.815790e+00 -1.695734e+00 8.193293e-01 5.951859e+00 1.575891e+01 1.795440e+01 -3.676666e+00 -6.823011e+01 8.846656e+00 1.073139e+02 -1.584223e+01 -4.532765e+01 -2.702406e+01 -2.043027e+01 -1.210250e+01 
7.990257e-13 7.123212e+00 1.193032e+01 1.676006e+01 3.241371e+01 -1.648660e+01 -5.829819e+01 1.653351e+01 2.788217e+01 -7.744611e+00 -1.725186e+01 -1.304858e+01 -6.305785e+00 -2.136855e+00 -1.215361e-01 4.050610e-01 -8.613839e-14 -4.050610e-01 1.215361e-01 2.136855e+00 6.305785e+00 1.304858e+01 1.725186e+01 7.744611e+00 -2.788217e+01 -1.653351e+01 5.829819e+01 1.648660e+01 -3.241371e+01 -1.676006e+01 -1.193032e+01 -7.123212e+00 
1.343531e-12 1.312922e-12 1.241073e-12 1.059698e-12 7.410660e-13 -1.387575e-12 -3.488511e-12 1.800630e-12 4.004624e-12 4.999697e-13 -5.563907e-14 2.236237e-15 -4.698521e-15 -1.372607e-13 -3.680649e-14 -1.107244e-13 -8.967025e-14 -7.647523e-14 -3.214860e-14 -1.575097e-13 9.406050e-14 2.789838e-13 8.476449e-13 2.632329e-12 2.051540e-12 -6.458484e-12 -4.873662e-12 3.446634e-12 6.265088e-12 2.777699e-12 1.537696e-12 1.218235e-12 
8.134250e-13 -7.123212e+00 -1.193032e+01 -1.676006e+01 -3.241371e+01 1.648660e+01 5.829819e+01 -1.653351e+01 -2.788217e+01 7.744611e+00 1.725186e+01 1.304858e+01 6.305785e+00 2.136855e+00 1.215361e-01 -4.050610e-01 -4.370981e-14 4.050610e-01 -1.215361e-01 -2.136855e+00 -6.305785e+00 -1.304858e+01 -1.725186e+01 -7.744611e+00 2.788217e+01 1.653351e+01 -5.829819e+01 -1.648660e+01 3.241371e+01 1.676006e+01 1.193032e+01 7.123212e+00 
-3.254066e-13 -1.210250e+01 -2.043027e+01 -2.702406e+01 -4.532765e+01 -1.584223e+01 1.073139e+02 8.846656e+00 -6.823011e+01 -3.676666e+00 1.795440e+01 1.575891e+01 5.951859e+00 8.193293e-01 -1.695734e+00 -1.815790e+00 -2.117482e-14 1.815790e+00 1.695734e+00 -8.193293e-01 -5.951859e+00 -1.575891e+01 -1.795440e+01 3.676666e+00 6.823011e+01 -8.846656e+00 -1.073139e+02 1.584223e+01 4.532765e+01 2.702406e+01 2.043027e+01 1.210250e+01 
-9.375227e-13 -1.380298e+01 -2.289746e+01 -2.788182e+01 -3.763509e+01 -4.683747e+01 8.944966e+01 8.808827e+01 -4.045079e+01 -1.810733e+01 1.070030e+00 8.858443e+00 7.827715e-01 -4.099301e+00 -6.049835e+00 -4.695689e+00 -3.997352e-15 4.695689e+00 6.049835e+00 4.099301e+00 -7.827715e-01 -8.858443e+00 -1.070030e+00 1.810733e+01 4.045079e+01 -8.808827e+01 -8.944966e+01 4.683747e+01 3.763509e+01 2.788182e+01 2.289746e+01 1.380298e+01 
-1.169574e-12 -1.289287e+01 -2.064167e+01 -2.365479e+01 -2.553264e+01 -3.764315e+01 1.645104e+01 1.043467e+02 4.310771e+01 -4.057439e-01 -1.316742e+01 -1.519785e+01 -1.367046e+01 -1.350933e+01 -1.341939e+01 -8.832194e+00 -2.011450e-13 8.832194e+00 1.341939e+01 1.350933e+01 1.367046e+01 1.519785e+01 1.316742e+01 4.057439e-01 -4.310771e+01 -1.043467e+02 -1.645104e+01 3.764315e+01 2.553264e+01 2.365479e+01 2.064167e+01 1.289287e+01 
-1.118294e-12 -1.071636e+01 -1.686421e+01 -1.859324e+01 -1.811651e+01 -2.425875e+01 -2.327171e+01 3.915658e+01 6.299476e+01 1.778522e+01 1.658734e+01 9.353129e+00 -1.199912e+01 -2.696138e+01 -2.861944e+01 -1.530758e+01 -1.050139e-12 1.530758e+01 2.861944e+01 2.696138e+01 1.199912e+01 -9.353129e+00 -1.658734e+01 -1.778522e+01 -6.299476e+01 -3.915658e+01 2.327171e+01 2.425875e+01 1.811651e+01 1.859324e+01 1.686421e+01 1.071636e+01 
-9.156874e-13 -8.197487e+00 -1.289616e+01 -1.400919e+01 -1.240256e+01 -1.174762e+01 -1.435487e+01 1.633737e+00 4.799707e+01 2.593808e+01 1.430002e+01 2.542280e+01 3.363857e+01 2.736880e+01 1.550936e+01 2.942506e+00 1.214154e-12 -2.942506e+00 -1.550936e+01 -2.736880e+01 -3.363857e+01 -2.542280e+01 -1.430002e+01 -2.593808e+01 -4.799707e+01 -1.633737e+00 1.435487e+01 1.174762e+01 1.240256e+01 1.400919e+01 1.289616e+01 8.197487e+00 
-6.608106e-13 -5.795517e+00 -9.107941e+00 -9.794251e+00 -8.361395e+00 -6.415258e+00 -4.556095e+00 3.431640e+00 3.045529e+01 3.831649e+01 1.292969e+01 -3.884526e+00 -2.678387e+00 1.350208e+01 2.523305e+01 1.383408e+01 4.548206e-12 -1.383408e+01 -2.523305e+01 -1.350208e+01 2.678387e+00 3.884526e+00 -1.292969e+01 -3.831649e+01 -3.045529e+01 -3.431640e+00 4.556095e+00 6.415258e+00 8.361395e+00 9.794251e+00 9.107941e+00 5.795517e+00 
-4.114786e-13 -3.771940e+00 -5.906200e+00 -6.310143e+00 -5.333615e+00 -3.981472e+00 -3.346886e+00 -3.422623e+00 2.563102e+00 2.325494e+01 3.325405e+01 2.483019e+01 -1.927420e+01 -2.660974e+01 -1.768669e+01 -3.443565e+00 3.441425e-12 3.443565e+00 1.768669e+01 2.660974e+01 1.927420e+01 -2.483019e+01 -3.325405e+01 -2.325494e+01 -2.563102e+00 3.422623e+00 3.346886e+00 3.981472e+00 5.333615e+00 6.310143e+00 5.906200e+00 3.771940e+00 
-2.277557e-13 -2.232659e+00 -3.482412e+00 -3.699529e+00 -3.151443e+00 -2.388854e+00 -1.815879e+00 -1.621070e+00 -1.473970e+00 -2.434543e+00 4.495236e+00 2.894520e+01 2.718812e+01 2.282331e+01 -4.012989e+00 -1.093589e+01 2.571490e-12 1.093589e+01 4.012989e+00 -2.282331e+01 -2.718812e+01 -2.894520e+01 -4.495236e+00 2.434543e+00 1.473970e+00 1.621070e+00 1.815879e+00 2.388854e+00 3.151443e+00 3.699529e+00 3.482412e+00 2.232659e+00 
-9.686049e-14 -1.183461e+00 -1.849641e+00 -1.977154e+00 -1.733348e+00 -1.368177e+00 -1.039272e+00 -7.326324e-01 1.481117e-01 -5.530672e-01 -1.523906e-01 6.580689e+00 1.227200e+01 2.229057e+01 1.662262e+01 3.666335e+00 -1.430835e-12 -3.666335e+00 -1.662262e+01 -2.229057e+01 -1.227200e+01 -6.580689e+00 1.523906e-01 5.530672e-01 -1.481117e-01 7.326324e-01 1.039272e+00 1.368177e+00 1.733348e+00 1.977154e+00 1.849641e+00 1.183461e+00 
-4.188798e-14 -5.734265e-01 -9.102441e-01 -9.928502e-01 -9.103511e-01 -7.414758e-01 -5.369797e-01 -1.928476e-01 7.046936e-01 1.506974e+00 3.417347e+00 7.006951e+00 1.186407e+01 2.115002e+01 2.981702e+01 2.001559e+01 -3.471205e-12 -2.001559e+01 -2.981702e+01 -2.115002e+01 -1.186407e+01 -7.006951e+00 -3.417347e+00 -1.506974e+00 -7.046936e-01 1.928476e-01 5.369797e-01 7.414758e-01 9.103511e-01 9.928502e-01 9.102441e-01 5.734265e-01 
-4.379516e-14 -2.567088e-01 -4.208207e-01 -4.756150e-01 -4.618449e-01 -3.629842e-01 -1.772144e-01 2.858234e-01 1.305476e+00 3.111935e+00 6.187038e+00 1.046309e+01 1.666613e+01 2.507838e+01 3.478326e+01 2.833637e+01 -2.269357e-12 -2.833637e+01 -3.478326e+01 -2.507838e+01 -1.666613e+01 -1.046309e+01 -6.187038e+00 -3.111935e+00 -1.305476e+00 -2.858234e-01 1.772144e-01 3.629842e-01 4.618449e-01 4.756150e-01 4.208207e-01 2.567088e-01 
-6.405393e-14 -1.129752e-01 -1.936982e-01 -2.265880e-01 -2.255023e-01 -1.324258e-01 9.659241e-02 7.176185e-01 2.005986e+00 4.345550e+00 8.041193e+00 1.272223e+01 1.863420e+01 2.540865e+01 3.197500e+01 2.792060e+01 -2.406832e-13 -2.792060e+01 -3.197500e+01 -2.540865e+01 -1.863420e+01 -1.272223e+01 -8.041193e+00 -4.345550e+00 -2.005986e+00 -7.176185e-01 -9.659241e-02 1.324258e-01 2.255023e-01 2.265880e-01 1.936982e-01 1.129752e-01 
-6.319801e-14 -4.817996e-02 -8.668136e-02 -1.025457e-01 -9.869020e-02 -6.657745e-03 2.304990e-01 8.774878e-01 2.167688e+00 4.420725e+00 7.682404e+00 1.151506e+01 1.575574e+01 2.003353e+01 2.360524e+01 2.106131e+01 1.061409e-12 -2.106131e+01 -2.360524e+01 -2.003353e+01 -1.575574e+01 -1.151506e+01 -7.682404e+00 -4.420725e+00 -2.167688e+00 -8.774878e-01 -2.304990e-01 6.657745e-03 9.869020e-02 1.025457e-01 8.668136e-02 4.817996e-02 
-6.865070e-14 -1.817590e-02 -3.364224e-02 -3.910855e-02 -3.252765e-02 3.107995e-02 1.982143e-01 6.380037e-01 1.491550e+00 2.907023e+00 4.808265e+00 6.865101e+00 8.891119e+00 1.069919e+01 1.204687e+01 1.071503e+01 1.338282e-12 -1.071503e+01 -1.204687e+01 -1.069919e+01 -8.891119e+00 -6.865101e+00 -4.808265e+00 -2.907023e+00 -1.491550e+00 -6.380037e-01 -1.982143e-01 -3.107995e-02 3.252765e-02 3.910855e-02 3.364224e-02 1.817590e-02 
