# vtk DataFile Version 2.0
Comment goes here
ASCII

DATASET STRUCTURED_POINTS
FIELD FieldData 1
TIME 1 1 double
0.84000000
DIMENSIONS    32   32   1

ORIGIN    0.000   0.000   0.000
SPACING   0.03125 0.03125   1.000

POINT_DATA   1024
SCALARS Omega double
LOOKUP_TABLE default

-5.536326e-14 -4.895488e-14 -3.264194e-14 -3.978868e-14 -8.761781e-14 -1.164366e-13 -2.179969e-13 -2.516644e-13 -2.744187e-13 -2.280767e-13 -2.466440e-13 -2.915425e-13 -4.399935e-13 -5.792712e-13 -6.065756e-13 -6.141942e-13 -1.087552e-12 -6.871739e-13 -4.015879e-14 -6.065801e-14 -6.732112e-15 -5.746380e-14 -1.250817e-13 -2.192150e-13 -2.497045e-13 -2.539794e-13 -1.940070e-13 -1.446702e-13 -8.330089e-14 -5.437505e-14 -5.510358e-14 -6.334496e-14 
-3.378325e-14 3.089227e-02 2.844336e-02 -4.357560e-02 -2.447322e-01 -6.780694e-01 -1.441362e+00 -2.607416e+00 -4.119750e+00 -5.912222e+00 -7.887333e+00 -9.868399e+00 -1.145805e+01 -1.194403e+01 -1.031756e+01 -6.091135e+00 -1.043923e-12 6.091135e+00 1.031756e+01 1.194403e+01 1.145805e+01 9.868399e+00 7.887333e+00 5.912222e+00 4.119750e+00 2.607416e+00 1.441362e+00 6.780694e-01 2.447322e-01 4.357560e-02 -2.844336e-02 -3.089227e-02 
-2.004678e-14 9.663801e-02 1.208013e-01 1.400006e-02 -3.106854e-01 -1.012082e+00 -2.265718e+00 -4.227745e+00 -6.826863e+00 -9.903898e+00 -1.323790e+01 -1.650635e+01 -1.922772e+01 -2.037772e+01 -1.829057e+01 -1.134145e+01 -1.088466e-12 1.134145e+01 1.829057e+01 2.037772e+01 1.922772e+01 1.650635e+01 1.323790e+01 9.903898e+00 6.826863e+00 4.227745e+00 2.265718e+00 1.012082e+00 3.106854e-01 -1.400006e-02 -1.208013e-01 -9.663801e-02 
-3.766176e-14 2.482266e-01 3.601216e-01 2.698469e-01 -8.861268e-02 -8.470559e-01 -2.200311e+00 -4.362353e+00 -7.302882e+00 -1.083589e+01 -1.468885e+01 -1.862510e+01 -2.262577e+01 -2.597628e+01 -2.567275e+01 -1.771841e+01 -1.154288e-12 1.771841e+01 2.567275e+01 2.597628e+01 2.262577e+01 1.862510e+01 1.468885e+01 1.083589e+01 7.302882e+00 4.362353e+00 2.200311e+00 8.470559e-01 8.861268e-02 -2.698469e-01 -3.601216e-01 -2.482266e-01 
-1.131768e-13 5.590185e-01 8.582184e-01 8.223578e-01 4.458577e-01 -2.899228e-01 -1.528514e+00 -3.481439e+00 -6.211487e+00 -9.570622e+00 -1.338673e+01 -1.752954e+01 -2.263365e+01 -2.829484e+01 -3.372530e+01 -2.703326e+01 -8.088253e-13 2.703326e+01 3.372530e+01 2.829484e+01 2.263365e+01 1.752954e+01 1.338673e+01 9.570622e+00 6.211487e+00 3.481439e+00 1.528514e+00 2.899228e-01 -4.458577e-01 -8.223578e-01 -8.582184e-01 -5.590185e-01 
-2.385848e-13 1.127747e+00 1.776598e+00 1.841473e+00 1.397306e+00 6.236101e-01 -5.105947e-01 -2.117016e+00 -4.365965e+00 -7.162753e+00 -1.033123e+01 -1.449592e+01 -1.919739e+01 -2.966177e+01 -4.664478e+01 -4.000062e+01 6.268657e-13 4.000062e+01 4.664478e+01 2.966177e+01 1.919739e+01 1.449592e+01 1.033123e+01 7.162753e+00 4.365965e+00 2.117016e+00 5.105947e-01 -6.236101e-01 -1.397306e+00 -1.841473e+00 -1.776598e+00 -1.127747e+00 
-4.257945e-13 2.043694e+00 3.275431e+00 3.522676e+00 2.940765e+00 1.973159e+00 7.684013e-01 -6.081542e-01 -2.402811e+00 -4.205197e+00 -5.420879e+00 -1.148959e+01 -2.189090e+01 -4.862446e+01 -5.259266e+01 -2.167268e+01 -3.733668e-12 2.167268e+01 5.259266e+01 4.862446e+01 2.189090e+01 1.148959e+01 5.420879e+00 4.205197e+00 2.402811e+00 6.081542e-01 -7.684013e-01 -1.973159e+00 -2.940765e+00 -3.522676e+00 -3.275431e+00 -2.043694e+00 
-6.269528e-13 3.327640e+00 5.405528e+00 5.955945e+00 5.185899e+00 3.863011e+00 2.335632e+00 9.038460e-01 -8.615375e-01 5.460064e-01 -2.168773e+00 -2.171929e+01 -2.224351e+01 2.491693e+01 7.321342e+01 5.550482e+01 -8.466181e-12 -5.550482e+01 -7.321342e+01 -2.491693e+01 2.224351e+01 2.171929e+01 2.168773e+00 -5.460064e-01 8.615375e-01 -9.038460e-01 -2.335632e+00 -3.863011e+00 -5.185899e+00 -5.955945e+00 -5.405528e+00 -3.327640e+00 
-7.068383e-13 4.912723e+00 8.079020e+00 9.060439e+00 8.076214e+00 6.264211e+00 4.168554e+00 2.327830e+00 2.698406e+00 1.171674e+01 8.139031e+00 2.803751e+01 8.477748e+01 9.714422e+01 4.839016e+01 8.734894e+00 5.721866e-12 -8.734894e+00 -4.839016e+01 -9.714422e+01 -8.477748e+01 -2.803751e+01 -8.139031e+00 -1.171674e+01 -2.698406e+00 -2.327830e+00 -4.168554e+00 -6.264211e+00 -8.076214e+00 -9.060439e+00 -8.079020e+00 -4.912723e+00 
-7.022683e-13 6.629511e+00 1.104593e+01 1.255618e+01 1.132480e+01 8.927655e+00 6.049681e+00 5.251695e+00 1.710776e+01 3.633654e+01 5.177233e+01 6.769754e+01 4.830684e+01 -4.156823e+00 -3.223404e+01 -1.998678e+01 8.900241e-12 1.998678e+01 3.223404e+01 4.156823e+00 -4.830684e+01 -6.769754e+01 -5.177233e+01 -3.633654e+01 -1.710776e+01 -5.251695e+00 -6.049681e+00 -8.927655e+00 -1.132480e+01 -1.255618e+01 -1.104593e+01 -6.629511e+00 
-4.817499e-13 8.292444e+00 1.404821e+01 1.615531e+01 1.463738e+01 1.162765e+01 9.153083e+00 1.848786e+01 4.482930e+01 3.581022e+01 2.582919e+01 2.055518e+01 -1.118389e+01 -1.896476e+01 -1.514183e+00 7.359293e+00 2.855503e-12 -7.359293e+00 1.514183e+00 1.896476e+01 1.118389e+01 -2.055518e+01 -2.582919e+01 -3.581022e+01 -4.482930e+01 -1.848786e+01 -9.153083e+00 -1.162765e+01 -1.463738e+01 -1.615531e+01 -1.404821e+01 -8.292444e+00 
-6.960552e-14 9.779631e+00 1.692309e+01 1.969564e+01 1.799014e+01 1.477898e+01 1.643502e+01 3.995122e+01 3.328803e+01 -1.136389e+00 1.297582e+01 7.993542e+00 -5.124589e+00 4.111234e+00 9.803651e+00 9.808324e+00 1.110460e-12 -9.808324e+00 -9.803651e+00 -4.111234e+00 5.124589e+00 -7.993542e+00 -1.297582e+01 1.136389e+00 -3.328803e+01 -3.995122e+01 -1.643502e+01 -1.477898e+01 -1.799014e+01 -1.969564e+01 -1.692309e+01 -9.779631e+00 
3.669369e-13 1.110510e+01 1.970429e+01 2.335035e+01 2.202535e+01 1.949072e+01 2.589590e+01 4.300680e+01 -1.331478e+01 -1.349700e+01 3.350038e+01 -6.869038e+00 -1.244792e+01 3.837298e+00 7.702534e+00 6.891120e+00 3.594123e-13 -6.891120e+00 -7.702534e+00 -3.837298e+00 1.244792e+01 6.869038e+00 -3.350038e+01 1.349700e+01 1.331478e+01 -4.300680e+01 -2.589590e+01 -1.949072e+01 -2.202535e+01 -2.335035e+01 -1.970429e+01 -1.110510e+01 
7.212856e-13 1.223319e+01 2.226456e+01 2.725034e+01 2.736944e+01 2.596706e+01 3.307270e+01 1.780096e+01 -3.438453e+01 1.945669e+01 3.294779e+01 -2.361005e+01 -9.380619e+00 8.205959e-01 3.157650e+00 3.269448e+00 7.057444e-14 -3.269448e+00 -3.157650e+00 -8.205959e-01 9.380619e+00 2.361005e+01 -3.294779e+01 -1.945669e+01 3.438453e+01 -1.780096e+01 -3.307270e+01 -2.596706e+01 -2.736944e+01 -2.725034e+01 -2.226456e+01 -1.223319e+01 
8.633723e-13 1.244820e+01 2.286983e+01 2.841919e+01 2.882683e+01 2.610564e+01 2.766183e+01 -1.098905e+01 -2.676463e+01 3.997586e+01 1.545406e+01 -2.871307e+01 -8.608730e+00 -2.074891e+00 1.226481e-01 8.773356e-01 -4.493127e-14 -8.773356e-01 -1.226481e-01 2.074891e+00 8.608730e+00 2.871307e+01 -1.545406e+01 -3.997586e+01 2.676463e+01 1.098905e+01 -2.766183e+01 -2.610564e+01 -2.882683e+01 -2.841919e+01 -2.286983e+01 -1.244820e+01 
6.011879e-13 9.218089e+00 1.649069e+01 1.947802e+01 1.782285e+01 1.321312e+01 9.829791e+00 -1.665121e+01 -9.912493e+00 2.454044e+01 -1.029672e-01 -1.956248e+01 -6.962333e+00 -2.614746e+00 -8.100157e-01 -6.958681e-02 1.459499e-14 6.958681e-02 8.100157e-01 2.614746e+00 6.962333e+00 1.956248e+01 1.029672e-01 -2.454044e+01 9.912493e+00 1.665121e+01 -9.829791e+00 -1.321312e+01 -1.782285e+01 -1.947802e+01 -1.649069e+01 -9.218089e+00 
-1.472281e-13 -7.947679e-13 -1.509601e-12 -1.528722e-12 -8.762989e-13 -3.015369e-13 -1.012406e-12 4.023917e-14 3.057112e-12 2.679527e-12 1.130325e-13 -4.276794e-13 7.123620e-14 1.030469e-13 3.330272e-14 -1.267722e-14 3.803394e-15 5.500562e-14 2.085977e-13 5.635386e-13 1.389445e-12 1.162963e-12 3.841850e-13 4.915666e-12 3.715968e-12 -7.994031e-13 -1.803800e-12 -2.420176e-12 -2.792453e-12 -2.309922e-12 -1.169376e-12 -2.447568e-13 
-2.388423e-13 -9.218089e+00 -1.649069e+01 -1.947802e+01 -1.782285e+01 -1.321312e+01 -9.829791e+00 1.665121e+01 9.912493e+00 -2.454044e+01 1.029672e-01 1.956248e+01 6.962333e+00 2.614746e+00 8.100157e-01 6.958681e-02 -2.917670e-15 -6.958681e-02 -8.100157e-01 -2.614746e+00 -6.962333e+00 -1.956248e+01 -1.029672e-01 2.454044e+01 -9.912493e+00 -1.665121e+01 9.829791e+00 1.321312e+01 1.782285e+01 1.947802e+01 1.649069e+01 9.218089e+00 
1.471632e-13 -1.244820e+01 -2.286983e+01 -2.841919e+01 -2.882683e+01 -2.610564e+01 -2.766183e+01 1.098905e+01 2.676463e+01 -3.997586e+01 -1.545406e+01 2.871307e+01 8.608730e+00 2.074891e+00 -1.226481e-01 -8.773356e-01 7.729091e-14 8.773356e-01 1.226481e-01 -2.074891e+00 -8.608730e+00 -2.871307e+01 1.545406e+01 3.997586e+01 -2.676463e+01 -1.098905e+01 2.766183e+01 2.610564e+01 2.882683e+01 2.841919e+01 2.286983e+01 1.244820e+01 
-1.239795e-14 -1.223319e+01 -2.226456e+01 -2.725034e+01 -2.736944e+01 -2.596706e+01 -3.307270e+01 -1.780096e+01 3.438453e+01 -1.945669e+01 -3.294779e+01 2.361005e+01 9.380619e+00 -8.205959e-01 -3.157650e+00 -3.269448e+00 3.506763e-13 3.269448e+00 3.157650e+00 8.205959e-01 -9.380619e+00 -2.361005e+01 3.294779e+01 1.945669e+01 -3.438453e+01 1.780096e+01 3.307270e+01 2.596706e+01 2.736944e+01 2.725034e+01 2.226456e+01 1.223319e+01 
-3.812474e-13 -1.110510e+01 -1.970429e+01 -2.335035e+01 -2.202535e+01 -1.949072e+01 -2.589590e+01 -4.300680e+01 1.331478e+01 1.349700e+01 -3.350038e+01 6.869038e+00 1.244792e+01 -3.837298e+00 -7.702534e+00 -6.891120e+00 1.255752e-12 6.891120e+00 7.702534e+00 3.837298e+00 -1.244792e+01 -6.869038e+00 3.350038e+01 -1.349700e+01 -1.331478e+01 4.300680e+01 2.589590e+01 1.949072e+01 2.202535e+01 2.335035e+01 1.970429e+01 1.110510e+01 
-7.642799e-13 -9.779631e+00 -1.692309e+01 -1.969564e+01 -1.799014e+01 -1.477898e+01 -1.643502e+01 -3.995122e+01 -3.328803e+01 1.136389e+00 -1.297582e+01 -7.993542e+00 5.124589e+00 -4.111234e+00 -9.803651e+00 -9.808324e+00 2.323802e-12 9.808324e+00 9.803651e+00 4.111234e+00 -5.124589e+00 7.993542e+00 1.297582e+01 -1.136389e+00 3.328803e+01 3.995122e+01 1.643502e+01 1.477898e+01 1.799014e+01 1.969564e+01 1.692309e+01 9.779631e+00 
-1.024171e-12 -8.292444e+00 -1.404821e+01 -1.615531e+01 -1.463738e+01 -1.162765e+01 -9.153083e+00 -1.848786e+01 -4.482930e+01 -3.581022e+01 -2.582919e+01 -2.055518e+01 1.118389e+01 1.896476e+01 1.514183e+00 -7.359293e+00 9.797891e-13 7.359293e+00 -1.514183e+00 -1.896476e+01 -1.118389e+01 2.055518e+01 2.582919e+01 3.581022e+01 4.482930e+01 1.848786e+01 9.153083e+00 1.162765e+01 1.463738e+01 1.615531e+01 1.404821e+01 8.292444e+00 
-1.125547e-12 -6.629511e+00 -1.104593e+01 -1.255618e+01 -1.132480e+01 -8.927655e+00 -6.049681e+00 -5.251695e+00 -1.710776e+01 -3.633654e+01 -5.177233e+01 -6.769754e+01 -4.830684e+01 4.156823e+00 3.223404e+01 1.998678e+01 -5.939521e-12 -1.998678e+01 -3.223404e+01 -4.156823e+00 4.830684e+01 6.769754e+01 5.177233e+01 3.633654e+01 1.710776e+01 5.251695e+00 6.049681e+00 8.927655e+00 1.132480e+01 1.255618e+01 1.104593e+01 6.629511e+00 
-9.985210e-13 -4.912723e+00 -8.079020e+00 -9.060439e+00 -8.076214e+00 -6.264211e+00 -4.168554e+00 -2.327830e+00 -2.698406e+00 -1.171674e+01 -8.139031e+00 -2.803751e+01 -8.477748e+01 -9.714422e+01 -4.839016e+01 -8.734894e+00 2.305878e-12 8.734894e+00 4.839016e+01 9.714422e+01 8.477748e+01 2.803751e+01 8.139031e+00 1.171674e+01 2.698406e+00 2.327830e+00 4.168554e+00 6.264211e+00 8.076214e+00 9.060439e+00 8.079020e+00 4.912723e+00 
-7.477180e-13 -3.327640e+00 -5.405528e+00 -5.955945e+00 -5.185899e+00 -3.863011e+00 -2.335632e+00 -9.038460e-01 8.615375e-01 -5.460064e-01 2.168773e+00 2.171929e+01 2.224351e+01 -2.491693e+01 -7.321342e+01 -5.550482e+01 6.674542e-12 5.550482e+01 7.321342e+01 2.491693e+01 -2.224351e+01 -2.171929e+01 -2.168773e+00 5.460064e-01 -8.615375e-01 9.038460e-01 2.335632e+00 3.863011e+00 5.185899e+00 5.955945e+00 5.405528e+00 3.327640e+00 
-4.595563e-13 -2.043694e+00 -3.275431e+00 -3.522676e+00 -2.940765e+00 -1.973159e+00 -7.684013e-01 6.081542e-01 2.402811e+00 4.205197e+00 5.420879e+00 1.148959e+01 2.189090e+01 4.862446e+01 5.259266e+01 2.167268e+01 -1.249863e-12 -2.167268e+01 -5.259266e+01 -4.862446e+01 -2.189090e+01 -1.148959e+01 -5.420879e+00 -4.205197e+00 -2.402811e+00 -6.081542e-01 7.684013e-01 1.973159e+00 2.940765e+00 3.522676e+00 3.275431e+00 2.043694e+00 
-2.875769e-13 -1.127747e+00 -1.776598e+00 -1.841473e+00 -1.397306e+00 -6.236101e-01 5.105947e-01 2.117016e+00 4.365965e+00 7.162753e+00 1.033123e+01 1.449592e+01 1.919739e+01 2.966177e+01 4.664478e+01 4.000062e+01 6.200954e-13 -4.000062e+01 -4.664478e+01 -2.966177e+01 -1.919739e+01 -1.449592e+01 -1.033123e+01 -7.162753e+00 -4.365965e+00 -2.117016e+00 -5.105947e-01 6.236101e-01 1.397306e+00 1.841473e+00 1.776598e+00 1.127747e+00 
-1.436594e-13 -5.590185e-01 -8.582184e-01 -8.223578e-01 -4.458577e-01 2.899228e-01 1.528514e+00 3.481439e+00 6.211487e+00 9.570622e+00 1.338673e+01 1.752954e+01 2.263365e+01 2.829484e+01 3.372530e+01 2.703326e+01 -1.013481e-12 -2.703326e+01 -3.372530e+01 -2.829484e+01 -2.263365e+01 -1.752954e+01 -1.338673e+01 -9.570622e+00 -6.211487e+00 -3.481439e+00 -1.528514e+00 -2.899228e-01 4.458577e-01 8.223578e-01 8.582184e-01 5.590185e-01 
-9.670550e-14 -2.482266e-01 -3.601216e-01 -2.698469e-01 8.861268e-02 8.470559e-01 2.200311e+00 4.362353e+00 7.302882e+00 1.083589e+01 1.468885e+01 1.862510e+01 2.262577e+01 2.597628e+01 2.567275e+01 1.771841e+01 -1.420362e-12 -1.771841e+01 -2.567275e+01 -2.597628e+01 -2.262577e+01 -1.862510e+01 -1.468885e+01 -1.083589e+01 -7.302882e+00 -4.362353e+00 -2.200311e+00 -8.470559e-01 -8.861268e-02 2.698469e-01 3.601216e-01 2.482266e-01 
-5.309872e-14 -9.663801e-02 -1.208013e-01 -1.400006e-02 3.106854e-01 1.012082e+00 2.265718e+00 4.227745e+00 6.826863e+00 9.903898e+00 1.323790e+01 1.650635e+01 1.922772e+01 2.037772e+01 1.829057e+01 1.134145e+01 -1.273918e-12 -1.134145e+01 -1.829057e+01 -2.037772e+01 -1.922772e+01 -1.650635e+01 -1.323790e+01 -9.903898e+00 -6.826863e+00 -4.227745e+00 -2.265718e+00 -1.012082e+00 -3.106854e-01 1.400006e-02 1.208013e-01 9.663801e-02 
-5.069255e-14 -3.089227e-02 -2.844336e-02 4.357560e-02 2.447322e-01 6.780694e-01 1.441362e+00 2.607416e+00 4.119750e+00 5.912222e+00 7.887333e+00 9.868399e+00 1.145805e+01 1.194403e+01 1.031756e+01 6.091135e+00 -1.142765e-12 -6.091135e+00 -1.031756e+01 -1.194403e+01 -1.145805e+01 -9.868399e+00 -7.887333e+00 -5.912222e+00 -4.119750e+00 -2.607416e+00 -1.441362e+00 -6.780694e-01 -2.447322e-01 -4.357560e-02 2.844336e-02 3.089227e-02 
