# vtk DataFile Version 2.0
Comment goes here
ASCII

DATASET STRUCTURED_POINTS
FIELD FieldData 1
TIME 1 1 double
0.74000000
DIMENSIONS    32   32   1

ORIGIN    0.000   0.000   0.000
SPACING   0.03125 0.03125   1.000

POINT_DATA   1024
SCALARS Omega double
LOOKUP_TABLE default

-3.080653e-14 -3.252002e-14 -4.994246e-14 -5.282617e-14 -9.370994e-14 -1.167367e-13 -1.781877e-13 -2.275684e-13 -3.134372e-13 -2.820089e-13 -1.673091e-13 -3.725154e-14 -3.975844e-14 -1.287662e-13 -3.261716e-13 -6.436745e-13 -6.193951e-13 -1.856653e-13 -5.749429e-14 9.141582e-14 1.691673e-13 1.171804e-13 -6.331115e-15 -1.551254e-13 -2.221348e-13 -1.740658e-13 -1.625799e-13 -9.724171e-14 -9.915195e-14 -6.245474e-14 -6.022142e-14 -3.396283e-14 
-2.161149e-14 2.880067e-02 4.006563e-02 1.700251e-02 -8.145819e-02 -3.177157e-01 -8.331399e-01 -1.742526e+00 -3.143614e+00 -4.942670e+00 -6.880570e+00 -8.650874e+00 -9.948956e+00 -1.073218e+01 -1.089148e+01 -8.236573e+00 -3.989281e-13 8.236573e+00 1.089148e+01 1.073218e+01 9.948956e+00 8.650874e+00 6.880570e+00 4.942670e+00 3.143614e+00 1.742526e+00 8.331399e-01 3.177157e-01 8.145819e-02 -1.700251e-02 -4.006563e-02 -2.880067e-02 
-3.578251e-14 8.374320e-02 1.256368e-01 9.732913e-02 -5.677039e-02 -4.211588e-01 -1.219413e+00 -2.646106e+00 -4.902046e+00 -7.902825e+00 -1.128538e+01 -1.466438e+01 -1.754624e+01 -1.992624e+01 -2.140733e+01 -1.686853e+01 -5.973921e-13 1.686853e+01 2.140733e+01 1.992624e+01 1.754624e+01 1.466438e+01 1.128538e+01 7.902825e+00 4.902046e+00 2.646106e+00 1.219413e+00 4.211588e-01 5.677039e-02 -9.732913e-02 -1.256368e-01 -8.374320e-02 
-4.635717e-14 2.072897e-01 3.232546e-01 3.077930e-01 1.304471e-01 -2.659572e-01 -1.103483e+00 -2.608930e+00 -5.046413e+00 -8.440776e+00 -1.244120e+01 -1.684142e+01 -2.115820e+01 -2.575752e+01 -2.981038e+01 -2.404681e+01 -3.717846e-13 2.404681e+01 2.981038e+01 2.575752e+01 2.115820e+01 1.684142e+01 1.244120e+01 8.440776e+00 5.046413e+00 2.608930e+00 1.103483e+00 2.659572e-01 -1.304471e-01 -3.077930e-01 -3.232546e-01 -2.072897e-01 
-1.033097e-13 4.716411e-01 7.458442e-01 7.577525e-01 5.494751e-01 1.433976e-01 -5.997935e-01 -1.882183e+00 -3.956495e+00 -6.961826e+00 -1.058445e+01 -1.510631e+01 -2.036537e+01 -2.748324e+01 -3.448169e+01 -2.675276e+01 8.619397e-13 2.675276e+01 3.448169e+01 2.748324e+01 2.036537e+01 1.510631e+01 1.058445e+01 6.961826e+00 3.956495e+00 1.882183e+00 5.997935e-01 -1.433976e-01 -5.494751e-01 -7.577525e-01 -7.458442e-01 -4.716411e-01 
-2.148146e-13 9.912498e-01 1.580197e+00 1.638821e+00 1.335520e+00 8.222730e-01 1.123216e-01 -9.420329e-01 -2.504205e+00 -4.825817e+00 -7.447369e+00 -1.100534e+01 -1.572781e+01 -2.470402e+01 -3.232660e+01 -2.121725e+01 2.295269e-12 2.121725e+01 3.232660e+01 2.470402e+01 1.572781e+01 1.100534e+01 7.447369e+00 4.825817e+00 2.504205e+00 9.420329e-01 -1.123216e-01 -8.222730e-01 -1.335520e+00 -1.638821e+00 -1.580197e+00 -9.912498e-01 
-3.596403e-13 1.859677e+00 2.998093e+00 3.154069e+00 2.679029e+00 1.898132e+00 1.050151e+00 5.934553e-02 -1.005642e+00 -2.411049e+00 -4.433205e+00 -6.915244e+00 -1.422437e+01 -2.406933e+01 -2.548776e+01 -7.883177e+00 2.158913e-12 7.883177e+00 2.548776e+01 2.406933e+01 1.422437e+01 6.915244e+00 4.433205e+00 2.411049e+00 1.005642e+00 -5.934553e-02 -1.050151e+00 -1.898132e+00 -2.679029e+00 -3.154069e+00 -2.998093e+00 -1.859677e+00 
-5.976546e-13 3.136087e+00 5.124006e+00 5.477040e+00 4.759845e+00 3.517535e+00 2.305170e+00 1.221555e+00 3.516564e-01 -1.421224e+00 -9.858601e+00 -1.552584e+01 -3.275889e+01 -2.813607e+01 -1.100596e+01 8.972940e+00 -8.012783e-13 -8.972940e+00 1.100596e+01 2.813607e+01 3.275889e+01 1.552584e+01 9.858601e+00 1.421224e+00 -3.516564e-01 -1.221555e+00 -2.305170e+00 -3.517535e+00 -4.759845e+00 -5.477040e+00 -5.124006e+00 -3.136087e+00 
-7.731930e-13 4.747621e+00 7.845641e+00 8.515967e+00 7.557911e+00 5.693331e+00 3.914811e+00 2.600652e+00 4.062919e-01 -1.656889e+01 -4.507389e+01 -3.107737e+01 2.582500e+00 3.560843e+01 2.923896e+01 1.363571e+01 -2.833789e-12 -1.363571e+01 -2.923896e+01 -3.560843e+01 -2.582500e+00 3.107737e+01 4.507389e+01 1.656889e+01 -4.062919e-01 -2.600652e+00 -3.914811e+00 -5.693331e+00 -7.557911e+00 -8.515967e+00 -7.845641e+00 -4.747621e+00 
-8.707621e-13 6.644325e+00 1.101650e+01 1.208750e+01 1.088667e+01 8.395518e+00 5.858500e+00 1.749485e+00 -1.211980e+01 -3.859144e+01 -2.189918e+01 8.740777e+00 1.220071e+01 -5.200053e+00 -1.522288e+01 -1.151653e+01 -1.054103e-12 1.151653e+01 1.522288e+01 5.200053e+00 -1.220071e+01 -8.740777e+00 2.189918e+01 3.859144e+01 1.211980e+01 -1.749485e+00 -5.858500e+00 -8.395518e+00 -1.088667e+01 -1.208750e+01 -1.101650e+01 -6.644325e+00 
-8.055810e-13 8.734292e+00 1.439124e+01 1.591624e+01 1.460256e+01 1.185438e+01 1.146371e+01 8.027414e+00 -2.985844e+01 -4.299884e+01 -4.020882e+00 -1.425890e+01 -2.849780e+01 -3.307043e+01 -2.020912e+01 -4.885240e+00 1.829799e-12 4.885240e+00 2.020912e+01 3.307043e+01 2.849780e+01 1.425890e+01 4.020882e+00 4.299884e+01 2.985844e+01 -8.027414e+00 -1.146371e+01 -1.185438e+01 -1.460256e+01 -1.591624e+01 -1.439124e+01 -8.734292e+00 
-5.945755e-13 1.088079e+01 1.776028e+01 1.978361e+01 1.892406e+01 1.716739e+01 2.370846e+01 -6.484874e+00 -7.430325e+01 -3.950238e+01 -1.929592e+01 -2.276741e+01 4.348237e+00 2.390166e+01 2.595743e+01 1.800364e+01 5.546850e-13 -1.800364e+01 -2.595743e+01 -2.390166e+01 -4.348237e+00 2.276741e+01 1.929592e+01 3.950238e+01 7.430325e+01 6.484874e+00 -2.370846e+01 -1.716739e+01 -1.892406e+01 -1.978361e+01 -1.776028e+01 -1.088079e+01 
-2.565089e-13 1.272466e+01 2.079953e+01 2.426151e+01 2.490469e+01 2.707818e+01 3.271724e+01 -6.755934e+01 -8.771337e+01 4.335611e+00 7.587611e+00 1.509728e+01 1.630542e+01 9.985402e+00 1.064002e+01 8.551392e+00 -9.439289e-14 -8.551392e+00 -1.064002e+01 -9.985402e+00 -1.630542e+01 -1.509728e+01 -7.587611e+00 -4.335611e+00 8.771337e+01 6.755934e+01 -3.271724e+01 -2.707818e+01 -2.490469e+01 -2.426151e+01 -2.079953e+01 -1.272466e+01 
1.996980e-13 1.334102e+01 2.207620e+01 2.712508e+01 3.270854e+01 5.281936e+01 1.026107e+01 -1.154011e+02 -2.589069e+01 3.995703e+01 9.706916e+00 -4.709756e+00 -2.065649e+00 2.210128e+00 4.418400e+00 4.005501e+00 -1.060574e-13 -4.005501e+00 -4.418400e+00 -2.210128e+00 2.065649e+00 4.709756e+00 -9.706916e+00 -3.995703e+01 2.589069e+01 1.154011e+02 -1.026107e+01 -5.281936e+01 -3.270854e+01 -2.712508e+01 -2.207620e+01 -1.334102e+01 
7.642031e-13 1.158953e+01 1.931856e+01 2.405176e+01 3.250595e+01 5.630496e+01 -5.605668e+01 -8.297223e+01 4.849514e+01 2.467995e+01 -7.674794e+00 -1.435165e+01 -6.687557e+00 -1.349052e+00 1.119642e+00 1.502174e+00 -7.096944e-14 -1.502174e+00 -1.119642e+00 1.349052e+00 6.687557e+00 1.435165e+01 7.674794e+00 -2.467995e+01 -4.849514e+01 8.297223e+01 5.605668e+01 -5.630496e+01 -3.250595e+01 -2.405176e+01 -1.931856e+01 -1.158953e+01 
1.283855e-12 7.123319e+00 1.191875e+01 1.524910e+01 2.480921e+01 4.035894e+01 -5.549208e+01 -2.339003e+01 4.143483e+01 -1.063000e+00 -1.221226e+01 -1.207719e+01 -6.382635e+00 -2.250670e+00 -2.328174e-01 3.192557e-01 -6.409100e-14 -3.192557e-01 2.328174e-01 2.250670e+00 6.382635e+00 1.207719e+01 1.221226e+01 1.063000e+00 -4.143483e+01 2.339003e+01 5.549208e+01 -4.035894e+01 -2.480921e+01 -1.524910e+01 -1.191875e+01 -7.123319e+00 
1.047806e-12 5.264316e-13 -1.566458e-13 -7.971509e-13 -2.197352e-12 -1.928454e-12 9.508220e-13 -1.064283e-12 -3.550419e-12 -2.446836e-12 -4.849166e-13 9.985516e-14 4.541884e-14 -1.060980e-13 -1.265587e-14 -1.012736e-13 -5.475958e-14 -4.669464e-14 2.491030e-14 8.574731e-14 7.238444e-13 1.760774e-12 2.273129e-12 -1.277224e-12 -3.817757e-12 -3.358445e-12 -2.025411e-12 -8.967428e-14 -3.563915e-13 1.090221e-12 1.496071e-12 1.341264e-12 
2.856220e-13 -7.123319e+00 -1.191875e+01 -1.524910e+01 -2.480921e+01 -4.035894e+01 5.549208e+01 2.339003e+01 -4.143483e+01 1.063000e+00 1.221226e+01 1.207719e+01 6.382635e+00 2.250670e+00 2.328174e-01 -3.192557e-01 -2.881970e-14 3.192557e-01 -2.328174e-01 -2.250670e+00 -6.382635e+00 -1.207719e+01 -1.221226e+01 -1.063000e+00 4.143483e+01 -2.339003e+01 -5.549208e+01 4.035894e+01 2.480921e+01 1.524910e+01 1.191875e+01 7.123319e+00 
-2.884335e-13 -1.158953e+01 -1.931856e+01 -2.405176e+01 -3.250595e+01 -5.630496e+01 5.605668e+01 8.297223e+01 -4.849514e+01 -2.467995e+01 7.674794e+00 1.435165e+01 6.687557e+00 1.349052e+00 -1.119642e+00 -1.502174e+00 -4.076321e-14 1.502174e+00 1.119642e+00 -1.349052e+00 -6.687557e+00 -1.435165e+01 -7.674794e+00 2.467995e+01 4.849514e+01 -8.297223e+01 -5.605668e+01 5.630496e+01 3.250595e+01 2.405176e+01 1.931856e+01 1.158953e+01 
-8.521087e-13 -1.334102e+01 -2.207620e+01 -2.712508e+01 -3.270854e+01 -5.281936e+01 -1.026107e+01 1.154011e+02 2.589069e+01 -3.995703e+01 -9.706916e+00 4.709756e+00 2.065649e+00 -2.210128e+00 -4.418400e+00 -4.005501e+00 -1.862680e-13 4.005501e+00 4.418400e+00 2.210128e+00 -2.065649e+00 -4.709756e+00 9.706916e+00 3.995703e+01 -2.589069e+01 -1.154011e+02 1.026107e+01 5.281936e+01 3.270854e+01 2.712508e+01 2.207620e+01 1.334102e+01 
-1.199145e-12 -1.272466e+01 -2.079953e+01 -2.426151e+01 -2.490469e+01 -2.707818e+01 -3.271724e+01 6.755934e+01 8.771337e+01 -4.335611e+00 -7.587611e+00 -1.509728e+01 -1.630542e+01 -9.985402e+00 -1.064002e+01 -8.551392e+00 -8.150101e-13 8.551392e+00 1.064002e+01 9.985402e+00 1.630542e+01 1.509728e+01 7.587611e+00 4.335611e+00 -8.771337e+01 -6.755934e+01 3.271724e+01 2.707818e+01 2.490469e+01 2.426151e+01 2.079953e+01 1.272466e+01 
-1.239948e-12 -1.088079e+01 -1.776028e+01 -1.978361e+01 -1.892406e+01 -1.716739e+01 -2.370846e+01 6.484874e+00 7.430325e+01 3.950238e+01 1.929592e+01 2.276741e+01 -4.348237e+00 -2.390166e+01 -2.595743e+01 -1.800364e+01 -1.160287e-12 1.800364e+01 2.595743e+01 2.390166e+01 4.348237e+00 -2.276741e+01 -1.929592e+01 -3.950238e+01 -7.430325e+01 -6.484874e+00 2.370846e+01 1.716739e+01 1.892406e+01 1.978361e+01 1.776028e+01 1.088079e+01 
-1.236460e-12 -8.734292e+00 -1.439124e+01 -1.591624e+01 -1.460256e+01 -1.185438e+01 -1.146371e+01 -8.027414e+00 2.985844e+01 4.299884e+01 4.020882e+00 1.425890e+01 2.849780e+01 3.307043e+01 2.020912e+01 4.885240e+00 -7.826448e-13 -4.885240e+00 -2.020912e+01 -3.307043e+01 -2.849780e+01 -1.425890e+01 -4.020882e+00 -4.299884e+01 -2.985844e+01 8.027414e+00 1.146371e+01 1.185438e+01 1.460256e+01 1.591624e+01 1.439124e+01 8.734292e+00 
-1.082775e-12 -6.644325e+00 -1.101650e+01 -1.208750e+01 -1.088667e+01 -8.395518e+00 -5.858500e+00 -1.749485e+00 1.211980e+01 3.859144e+01 2.189918e+01 -8.740777e+00 -1.220071e+01 5.200053e+00 1.522288e+01 1.151653e+01 -4.155522e-15 -1.151653e+01 -1.522288e+01 -5.200053e+00 1.220071e+01 8.740777e+00 -2.189918e+01 -3.859144e+01 -1.211980e+01 1.749485e+00 5.858500e+00 8.395518e+00 1.088667e+01 1.208750e+01 1.101650e+01 6.644325e+00 
-8.721300e-13 -4.747621e+00 -7.845641e+00 -8.515967e+00 -7.557911e+00 -5.693331e+00 -3.914811e+00 -2.600652e+00 -4.062919e-01 1.656889e+01 4.507389e+01 3.107737e+01 -2.582500e+00 -3.560843e+01 -2.923896e+01 -1.363571e+01 -1.300536e-12 1.363571e+01 2.923896e+01 3.560843e+01 2.582500e+00 -3.107737e+01 -4.507389e+01 -1.656889e+01 4.062919e-01 2.600652e+00 3.914811e+00 5.693331e+00 7.557911e+00 8.515967e+00 7.845641e+00 4.747621e+00 
-6.173314e-13 -3.136087e+00 -5.124006e+00 -5.477040e+00 -4.759845e+00 -3.517535e+00 -2.305170e+00 -1.221555e+00 -3.516564e-01 1.421224e+00 9.858601e+00 1.552584e+01 3.275889e+01 2.813607e+01 1.100596e+01 -8.972940e+00 -3.903366e-12 8.972940e+00 -1.100596e+01 -2.813607e+01 -3.275889e+01 -1.552584e+01 -9.858601e+00 -1.421224e+00 3.516564e-01 1.221555e+00 2.305170e+00 3.517535e+00 4.759845e+00 5.477040e+00 5.124006e+00 3.136087e+00 
-3.554098e-13 -1.859677e+00 -2.998093e+00 -3.154069e+00 -2.679029e+00 -1.898132e+00 -1.050151e+00 -5.934553e-02 1.005642e+00 2.411049e+00 4.433205e+00 6.915244e+00 1.422437e+01 2.406933e+01 2.548776e+01 7.883177e+00 -7.498844e-13 -7.883177e+00 -2.548776e+01 -2.406933e+01 -1.422437e+01 -6.915244e+00 -4.433205e+00 -2.411049e+00 -1.005642e+00 5.934553e-02 1.050151e+00 1.898132e+00 2.679029e+00 3.154069e+00 2.998093e+00 1.859677e+00 
-1.999462e-13 -9.912498e-01 -1.580197e+00 -1.638821e+00 -1.335520e+00 -8.222730e-01 -1.123216e-01 9.420329e-01 2.504205e+00 4.825817e+00 7.447369e+00 1.100534e+01 1.572781e+01 2.470402e+01 3.232660e+01 2.121725e+01 1.215602e-12 -2.121725e+01 -3.232660e+01 -2.470402e+01 -1.572781e+01 -1.100534e+01 -7.447369e+00 -4.825817e+00 -2.504205e+00 -9.420329e-01 1.123216e-01 8.222730e-01 1.335520e+00 1.638821e+00 1.580197e+00 9.912498e-01 
-8.106926e-14 -4.716411e-01 -7.458442e-01 -7.577525e-01 -5.494751e-01 -1.433976e-01 5.997935e-01 1.882183e+00 3.956495e+00 6.961826e+00 1.058445e+01 1.510631e+01 2.036537e+01 2.748324e+01 3.448169e+01 2.675276e+01 1.160500e-13 -2.675276e+01 -3.448169e+01 -2.748324e+01 -2.036537e+01 -1.510631e+01 -1.058445e+01 -6.961826e+00 -3.956495e+00 -1.882183e+00 -5.997935e-01 1.433976e-01 5.494751e-01 7.577525e-01 7.458442e-01 4.716411e-01 
-5.157815e-14 -2.072897e-01 -3.232546e-01 -3.077930e-01 -1.304471e-01 2.659572e-01 1.103483e+00 2.608930e+00 5.046413e+00 8.440776e+00 1.244120e+01 1.684142e+01 2.115820e+01 2.575752e+01 2.981038e+01 2.404681e+01 -1.355009e-12 -2.404681e+01 -2.981038e+01 -2.575752e+01 -2.115820e+01 -1.684142e+01 -1.244120e+01 -8.440776e+00 -5.046413e+00 -2.608930e+00 -1.103483e+00 -2.659572e-01 1.304471e-01 3.077930e-01 3.232546e-01 2.072897e-01 
-5.173322e-14 -8.374320e-02 -1.256368e-01 -9.732913e-02 5.677039e-02 4.211588e-01 1.219413e+00 2.646106e+00 4.902046e+00 7.902825e+00 1.128538e+01 1.466438e+01 1.754624e+01 1.992624e+01 2.140733e+01 1.686853e+01 -1.873689e-12 -1.686853e+01 -2.140733e+01 -1.992624e+01 -1.754624e+01 -1.466438e+01 -1.128538e+01 -7.902825e+00 -4.902046e+00 -2.646106e+00 -1.219413e+00 -4.211588e-01 -5.677039e-02 9.732913e-02 1.256368e-01 8.374320e-02 
-2.399675e-14 -2.880067e-02 -4.006563e-02 -1.700251e-02 8.145819e-02 3.177157e-01 8.331399e-01 1.742526e+00 3.143614e+00 4.942670e+00 6.880570e+00 8.650874e+00 9.948956e+00 1.073218e+01 1.089148e+01 8.236573e+00 -1.338044e-12 -8.236573e+00 -1.089148e+01 -1.073218e+01 -9.948956e+00 -8.650874e+00 -6.880570e+00 -4.942670e+00 -3.143614e+00 -1.742526e+00 -8.331399e-01 -3.177157e-01 -8.145819e-02 1.700251e-02 4.006563e-02 2.880067e-02 
