# vtk DataFile Version 2.0
Comment goes here
ASCII

DATASET STRUCTURED_POINTS
FIELD FieldData 1
TIME 1 1 double
0.50000000
DIMENSIONS    32   32   1

ORIGIN    0.000   0.000   0.000
SPACING   0.03125 0.03125   1.000

POINT_DATA   1024
SCALARS Omega double
LOOKUP_TABLE default

-2.320437e-14 -3.305177e-14 -2.851804e-14 -1.741743e-14 -1.667399e-14 -8.825972e-15 -3.169842e-14 -8.360679e-14 -2.467718e-13 -4.223350e-13 -6.636973e-13 -7.932802e-13 -8.321026e-13 -5.862121e-13 -9.762277e-14 7.978643e-13 1.266903e-12 7.749670e-13 1.870292e-13 -4.217493e-13 -6.197477e-13 -5.830785e-13 -4.678712e-13 -3.019219e-13 -1.645993e-13 -8.678211e-14 -5.456610e-14 -5.640947e-14 -4.638168e-14 -4.751152e-14 -3.307552e-14 -3.112917e-14 
-1.978970e-14 1.135930e-02 2.237065e-02 3.017548e-02 2.243408e-02 -4.188894e-02 -2.509661e-01 -7.811250e-01 -1.829991e+00 -3.567390e+00 -5.961060e+00 -8.768659e+00 -1.147835e+01 -1.309495e+01 -1.209794e+01 -7.490613e+00 8.941922e-13 7.490613e+00 1.209794e+01 1.309495e+01 1.147835e+01 8.768659e+00 5.961060e+00 3.567390e+00 1.829991e+00 7.811250e-01 2.509661e-01 4.188894e-02 -2.243408e-02 -3.017548e-02 -2.237065e-02 -1.135930e-02 
-3.796033e-15 2.817270e-02 5.488274e-02 7.640934e-02 7.455780e-02 -1.310879e-02 -3.230651e-01 -1.136192e+00 -2.784340e+00 -5.571184e+00 -9.497768e+00 -1.419663e+01 -1.910160e+01 -2.230276e+01 -2.069816e+01 -1.289103e+01 8.410780e-13 1.289103e+01 2.069816e+01 2.230276e+01 1.910160e+01 1.419663e+01 9.497768e+00 5.571184e+00 2.784340e+00 1.136192e+00 3.230651e-01 1.310879e-02 -7.455780e-02 -7.640934e-02 -5.488274e-02 -2.817270e-02 
7.289753e-15 5.697717e-02 1.068382e-01 1.461979e-01 1.566280e-01 7.565932e-02 -2.427477e-01 -1.093130e+00 -2.853512e+00 -5.884853e+00 -1.026032e+01 -1.589975e+01 -2.296374e+01 -2.968356e+01 -3.100484e+01 -2.126308e+01 1.174533e-12 2.126308e+01 3.100484e+01 2.968356e+01 2.296374e+01 1.589975e+01 1.026032e+01 5.884853e+00 2.853512e+00 1.093130e+00 2.427477e-01 -7.565932e-02 -1.566280e-01 -1.461979e-01 -1.068382e-01 -5.697717e-02 
7.391690e-15 1.118894e-01 1.995620e-01 2.631254e-01 2.938489e-01 2.508729e-01 1.271876e-02 -6.628414e-01 -2.131075e+00 -4.839462e+00 -9.160629e+00 -1.609846e+01 -2.717714e+01 -5.044196e+01 -6.432745e+01 -4.292594e+01 1.183852e-12 4.292594e+01 6.432745e+01 5.044196e+01 2.717714e+01 1.609846e+01 9.160629e+00 4.839462e+00 2.131075e+00 6.628414e-01 -1.271876e-02 -2.508729e-01 -2.938489e-01 -2.631254e-01 -1.995620e-01 -1.118894e-01 
1.216612e-14 2.256718e-01 3.773453e-01 4.600955e-01 4.889624e-01 4.634772e-01 2.960726e-01 -1.964453e-01 -1.398355e+00 -3.900626e+00 -1.007106e+01 -2.744350e+01 -3.787380e+01 -2.548253e+01 2.821242e+01 4.963543e+01 -3.269754e-12 -4.963543e+01 -2.821242e+01 2.548253e+01 3.787380e+01 2.744350e+01 1.007106e+01 3.900626e+00 1.398355e+00 1.964453e-01 -2.960726e-01 -4.634772e-01 -4.889624e-01 -4.600955e-01 -3.773453e-01 -2.256718e-01 
6.029113e-15 4.539723e-01 7.139572e-01 7.987474e-01 7.839449e-01 7.532509e-01 6.611358e-01 2.161473e-01 -1.439508e+00 -3.170933e+00 -1.285708e+01 -1.360285e+01 4.288089e+01 1.065626e+02 9.994456e+01 3.942096e+01 -3.381503e-12 -3.942096e+01 -9.994456e+01 -1.065626e+02 -4.288089e+01 1.360285e+01 1.285708e+01 3.170933e+00 1.439508e+00 -2.161473e-01 -6.611358e-01 -7.532509e-01 -7.839449e-01 -7.987474e-01 -7.139572e-01 -4.539723e-01 
-2.852634e-14 9.204921e-01 1.385533e+00 1.429464e+00 1.256919e+00 1.106079e+00 8.871018e-01 -2.404143e-01 -3.019449e+00 7.556697e+00 1.579525e+01 5.628557e+01 9.367255e+01 5.213822e+01 -2.513306e+01 -4.436452e+01 8.384863e-13 4.436452e+01 2.513306e+01 -5.213822e+01 -9.367255e+01 -5.628557e+01 -1.579525e+01 -7.556697e+00 3.019449e+00 2.404143e-01 -8.871018e-01 -1.106079e+00 -1.256919e+00 -1.429464e+00 -1.385533e+00 -9.204921e-01 
-6.306204e-14 1.760401e+00 2.607511e+00 2.570001e+00 2.094271e+00 1.660881e+00 7.756303e-01 -1.853969e+00 2.774231e+00 3.398558e+01 4.583311e+01 5.106804e+01 2.006230e+01 -3.770247e+01 -3.579665e+01 -1.029847e+01 9.177341e-13 1.029847e+01 3.579665e+01 3.770247e+01 -2.006230e+01 -5.106804e+01 -4.583311e+01 -3.398558e+01 -2.774231e+00 1.853969e+00 -7.756303e-01 -1.660881e+00 -2.094271e+00 -2.570001e+00 -2.607511e+00 -1.760401e+00 
-1.447351e-13 3.109813e+00 4.666472e+00 4.546445e+00 3.420202e+00 2.094842e+00 -1.856277e-01 -1.630424e+00 2.389494e+01 3.144923e+01 2.064165e+01 1.920520e+01 7.268185e-02 -1.110008e+01 3.927583e+00 9.918471e+00 -1.284529e-13 -9.918471e+00 -3.927583e+00 1.110008e+01 -7.268185e-02 -1.920520e+01 -2.064165e+01 -3.144923e+01 -2.389494e+01 1.630424e+00 1.856277e-01 -2.094842e+00 -3.420202e+00 -4.546445e+00 -4.666472e+00 -3.109813e+00 
-2.910751e-13 4.905780e+00 7.648845e+00 7.709867e+00 5.639676e+00 2.841971e+00 -4.944103e-01 7.048124e+00 3.497694e+01 7.909238e+00 2.124035e+01 2.647938e+01 -1.158328e+01 7.976815e+00 2.250387e+01 1.822148e+01 -5.114765e-13 -1.822148e+01 -2.250387e+01 -7.976815e+00 1.158328e+01 -2.647938e+01 -2.124035e+01 -7.909238e+00 -3.497694e+01 -7.048124e+00 4.944103e-01 -2.841971e+00 -5.639676e+00 -7.709867e+00 -7.648845e+00 -4.905780e+00 
-4.179725e-13 6.896319e+00 1.134276e+01 1.211095e+01 9.274277e+00 4.736514e+00 2.722653e+00 2.071205e+01 1.438718e+01 -2.060950e+00 3.256374e+01 1.437564e+01 -1.190519e+01 1.062292e+01 1.720754e+01 1.407994e+01 -3.764587e-13 -1.407994e+01 -1.720754e+01 -1.062292e+01 1.190519e+01 -1.437564e+01 -3.256374e+01 2.060950e+00 -1.438718e+01 -2.071205e+01 -2.722653e+00 -4.736514e+00 -9.274277e+00 -1.211095e+01 -1.134276e+01 -6.896319e+00 
-4.928508e-13 8.844981e+00 1.544166e+01 1.779598e+01 1.474177e+01 8.686709e+00 8.549185e+00 2.141166e+01 -1.987267e+01 7.034576e+00 3.650543e+01 -1.234225e+01 -1.326336e+01 -1.755303e-01 5.810778e+00 6.604731e+00 -1.599946e-13 -6.604731e+00 -5.810778e+00 1.755303e-01 1.326336e+01 1.234225e+01 -3.650543e+01 -7.034576e+00 1.987267e+01 -2.141166e+01 -8.549185e+00 -8.686709e+00 -1.474177e+01 -1.779598e+01 -1.544166e+01 -8.844981e+00 
-4.610733e-13 1.069363e+01 1.981322e+01 2.467770e+01 2.331515e+01 1.932412e+01 1.911978e+01 1.507805e+01 -2.257717e+01 2.304263e+01 2.902829e+01 -2.746276e+01 -1.404546e+01 -5.048228e+00 3.623390e-01 2.047085e+00 -1.250010e-13 -2.047085e+00 -3.623390e-01 5.048228e+00 1.404546e+01 2.746276e+01 -2.902829e+01 -2.304263e+01 2.257717e+01 -1.507805e+01 -1.911978e+01 -1.932412e+01 -2.331515e+01 -2.467770e+01 -1.981322e+01 -1.069363e+01 
-1.401084e-13 1.239238e+01 2.412424e+01 3.242802e+01 3.486006e+01 2.934508e+01 1.449945e+01 -5.921996e+00 -1.115993e+01 2.608486e+01 1.294761e+01 -2.782284e+01 -1.432198e+01 -7.250072e+00 -2.421532e+00 -1.461077e-01 -1.401340e-14 1.461077e-01 2.421532e+00 7.250072e+00 1.432198e+01 2.782284e+01 -1.294761e+01 -2.608486e+01 1.115993e+01 5.921996e+00 -1.449945e+01 -2.934508e+01 -3.486006e+01 -3.242802e+01 -2.412424e+01 -1.239238e+01 
7.637383e-13 1.127572e+01 2.215306e+01 2.914694e+01 2.868530e+01 1.848203e+01 -1.612907e-03 -1.175345e+01 -8.057413e-01 1.342334e+01 4.464524e-01 -1.690875e+01 -1.016290e+01 -5.838163e+00 -2.538813e+00 -6.876456e-01 -7.151709e-14 6.876456e-01 2.538813e+00 5.838163e+00 1.016290e+01 1.690875e+01 -4.464524e-01 -1.342334e+01 8.057413e-01 1.175345e+01 1.612907e-03 -1.848203e+01 -2.868530e+01 -2.914694e+01 -2.215306e+01 -1.127572e+01 
1.383592e-12 1.639508e-12 1.764147e-12 1.594650e-12 1.172351e-12 1.975689e-13 3.180201e-13 1.762686e-12 -1.421641e-12 -3.934067e-12 -9.760236e-13 6.734565e-13 4.243238e-13 9.678131e-14 -3.723905e-14 -4.717341e-14 -4.065867e-14 -2.858773e-14 8.548426e-15 2.217366e-13 8.455452e-13 2.085405e-12 -8.233399e-13 -5.380940e-12 -1.581179e-12 2.956787e-12 3.065708e-12 1.333685e-12 2.318581e-13 4.082658e-13 1.000861e-12 1.245712e-12 
6.470530e-14 -1.127572e+01 -2.215306e+01 -2.914694e+01 -2.868530e+01 -1.848203e+01 1.612907e-03 1.175345e+01 8.057413e-01 -1.342334e+01 -4.464524e-01 1.690875e+01 1.016290e+01 5.838163e+00 2.538813e+00 6.876456e-01 -6.013320e-15 -6.876456e-01 -2.538813e+00 -5.838163e+00 -1.016290e+01 -1.690875e+01 4.464524e-01 1.342334e+01 -8.057413e-01 -1.175345e+01 -1.612907e-03 1.848203e+01 2.868530e+01 2.914694e+01 2.215306e+01 1.127572e+01 
-7.618331e-13 -1.239238e+01 -2.412424e+01 -3.242802e+01 -3.486006e+01 -2.934508e+01 -1.449945e+01 5.921996e+00 1.115993e+01 -2.608486e+01 -1.294761e+01 2.782284e+01 1.432198e+01 7.250072e+00 2.421532e+00 1.461077e-01 -5.761661e-14 -1.461077e-01 -2.421532e+00 -7.250072e+00 -1.432198e+01 -2.782284e+01 1.294761e+01 2.608486e+01 -1.115993e+01 -5.921996e+00 1.449945e+01 2.934508e+01 3.486006e+01 3.242802e+01 2.412424e+01 1.239238e+01 
-7.660746e-13 -1.069363e+01 -1.981322e+01 -2.467770e+01 -2.331515e+01 -1.932412e+01 -1.911978e+01 -1.507805e+01 2.257717e+01 -2.304263e+01 -2.902829e+01 2.746276e+01 1.404546e+01 5.048228e+00 -3.623390e-01 -2.047085e+00 1.459423e-13 2.047085e+00 3.623390e-01 -5.048228e+00 -1.404546e+01 -2.746276e+01 2.902829e+01 2.304263e+01 -2.257717e+01 1.507805e+01 1.911978e+01 1.932412e+01 2.331515e+01 2.467770e+01 1.981322e+01 1.069363e+01 
-6.859609e-13 -8.844981e+00 -1.544166e+01 -1.779598e+01 -1.474177e+01 -8.686709e+00 -8.549185e+00 -2.141166e+01 1.987267e+01 -7.034576e+00 -3.650543e+01 1.234225e+01 1.326336e+01 1.755303e-01 -5.810778e+00 -6.604731e+00 2.942412e-13 6.604731e+00 5.810778e+00 -1.755303e-01 -1.326336e+01 -1.234225e+01 3.650543e+01 7.034576e+00 -1.987267e+01 2.141166e+01 8.549185e+00 8.686709e+00 1.474177e+01 1.779598e+01 1.544166e+01 8.844981e+00 
-5.547525e-13 -6.896319e+00 -1.134276e+01 -1.211095e+01 -9.274277e+00 -4.736514e+00 -2.722653e+00 -2.071205e+01 -1.438718e+01 2.060950e+00 -3.256374e+01 -1.437564e+01 1.190519e+01 -1.062292e+01 -1.720754e+01 -1.407994e+01 5.763748e-13 1.407994e+01 1.720754e+01 1.062292e+01 -1.190519e+01 1.437564e+01 3.256374e+01 -2.060950e+00 1.438718e+01 2.071205e+01 2.722653e+00 4.736514e+00 9.274277e+00 1.211095e+01 1.134276e+01 6.896319e+00 
-3.222158e-13 -4.905780e+00 -7.648845e+00 -7.709867e+00 -5.639676e+00 -2.841971e+00 4.944103e-01 -7.048124e+00 -3.497694e+01 -7.909238e+00 -2.124035e+01 -2.647938e+01 1.158328e+01 -7.976815e+00 -2.250387e+01 -1.822148e+01 8.471105e-13 1.822148e+01 2.250387e+01 7.976815e+00 -1.158328e+01 2.647938e+01 2.124035e+01 7.909238e+00 3.497694e+01 7.048124e+00 -4.944103e-01 2.841971e+00 5.639676e+00 7.709867e+00 7.648845e+00 4.905780e+00 
-1.659024e-13 -3.109813e+00 -4.666472e+00 -4.546445e+00 -3.420202e+00 -2.094842e+00 1.856277e-01 1.630424e+00 -2.389494e+01 -3.144923e+01 -2.064165e+01 -1.920520e+01 -7.268185e-02 1.110008e+01 -3.927583e+00 -9.918471e+00 1.307628e-12 9.918471e+00 3.927583e+00 -1.110008e+01 7.268185e-02 1.920520e+01 2.064165e+01 3.144923e+01 2.389494e+01 -1.630424e+00 -1.856277e-01 2.094842e+00 3.420202e+00 4.546445e+00 4.666472e+00 3.109813e+00 
-7.138553e-14 -1.760401e+00 -2.607511e+00 -2.570001e+00 -2.094271e+00 -1.660881e+00 -7.756303e-01 1.853969e+00 -2.774231e+00 -3.398558e+01 -4.583311e+01 -5.106804e+01 -2.006230e+01 3.770247e+01 3.579665e+01 1.029847e+01 2.494393e-13 -1.029847e+01 -3.579665e+01 -3.770247e+01 2.006230e+01 5.106804e+01 4.583311e+01 3.398558e+01 2.774231e+00 -1.853969e+00 7.756303e-01 1.660881e+00 2.094271e+00 2.570001e+00 2.607511e+00 1.760401e+00 
-1.450255e-14 -9.204921e-01 -1.385533e+00 -1.429464e+00 -1.256919e+00 -1.106079e+00 -8.871018e-01 2.404143e-01 3.019449e+00 -7.556697e+00 -1.579525e+01 -5.628557e+01 -9.367255e+01 -5.213822e+01 2.513306e+01 4.436452e+01 8.538229e-14 -4.436452e+01 -2.513306e+01 5.213822e+01 9.367255e+01 5.628557e+01 1.579525e+01 7.556697e+00 -3.019449e+00 -2.404143e-01 8.871018e-01 1.106079e+00 1.256919e+00 1.429464e+00 1.385533e+00 9.204921e-01 
-1.338738e-16 -4.539723e-01 -7.139572e-01 -7.987474e-01 -7.839449e-01 -7.532509e-01 -6.611358e-01 -2.161473e-01 1.439508e+00 3.170933e+00 1.285708e+01 1.360285e+01 -4.288089e+01 -1.065626e+02 -9.994456e+01 -3.942096e+01 3.608711e-12 3.942096e+01 9.994456e+01 1.065626e+02 4.288089e+01 -1.360285e+01 -1.285708e+01 -3.170933e+00 -1.439508e+00 2.161473e-01 6.611358e-01 7.532509e-01 7.839449e-01 7.987474e-01 7.139572e-01 4.539723e-01 
-8.336331e-15 -2.256718e-01 -3.773453e-01 -4.600955e-01 -4.889624e-01 -4.634772e-01 -2.960726e-01 1.964453e-01 1.398355e+00 3.900626e+00 1.007106e+01 2.744350e+01 3.787380e+01 2.548253e+01 -2.821242e+01 -4.963543e+01 5.504989e-12 4.963543e+01 2.821242e+01 -2.548253e+01 -3.787380e+01 -2.744350e+01 -1.007106e+01 -3.900626e+00 -1.398355e+00 -1.964453e-01 2.960726e-01 4.634772e-01 4.889624e-01 4.600955e-01 3.773453e-01 2.256718e-01 
-8.334071e-15 -1.118894e-01 -1.995620e-01 -2.631254e-01 -2.938489e-01 -2.508729e-01 -1.271876e-02 6.628414e-01 2.131075e+00 4.839462e+00 9.160629e+00 1.609846e+01 2.717714e+01 5.044196e+01 6.432745e+01 4.292594e+01 2.256450e-12 -4.292594e+01 -6.432745e+01 -5.044196e+01 -2.717714e+01 -1.609846e+01 -9.160629e+00 -4.839462e+00 -2.131075e+00 -6.628414e-01 1.271876e-02 2.508729e-01 2.938489e-01 2.631254e-01 1.995620e-01 1.118894e-01 
-3.441521e-14 -5.697717e-02 -1.068382e-01 -1.461979e-01 -1.566280e-01 -7.565932e-02 2.427477e-01 1.093130e+00 2.853512e+00 5.884853e+00 1.026032e+01 1.589975e+01 2.296374e+01 2.968356e+01 3.100484e+01 2.126308e+01 1.535850e-12 -2.126308e+01 -3.100484e+01 -2.968356e+01 -2.296374e+01 -1.589975e+01 -1.026032e+01 -5.884853e+00 -2.853512e+00 -1.093130e+00 -2.427477e-01 7.565932e-02 1.566280e-01 1.461979e-01 1.068382e-01 5.697717e-02 
-5.249729e-14 -2.817270e-02 -5.488274e-02 -7.640934e-02 -7.455780e-02 1.310879e-02 3.230651e-01 1.136192e+00 2.784340e+00 5.571184e+00 9.497768e+00 1.419663e+01 1.910160e+01 2.230276e+01 2.069816e+01 1.289103e+01 1.498355e-12 -1.289103e+01 -2.069816e+01 -2.230276e+01 -1.910160e+01 -1.419663e+01 -9.497768e+00 -5.571184e+00 -2.784340e+00 -1.136192e+00 -3.230651e-01 -1.310879e-02 7.455780e-02 7.640934e-02 5.488274e-02 2.817270e-02 
-2.971405e-14 -1.135930e-02 -2.237065e-02 -3.017548e-02 -2.243408e-02 4.188894e-02 2.509661e-01 7.811250e-01 1.829991e+00 3.567390e+00 5.961060e+00 8.768659e+00 1.147835e+01 1.309495e+01 1.209794e+01 7.490613e+00 1.485718e-12 -7.490613e+00 -1.209794e+01 -1.309495e+01 -1.147835e+01 -8.768659e+00 -5.961060e+00 -3.567390e+00 -1.829991e+00 -7.811250e-01 -2.509661e-01 -4.188894e-02 2.243408e-02 3.017548e-02 2.237065e-02 1.135930e-02 
