# vtk DataFile Version 2.0
Comment goes here
ASCII

DATASET STRUCTURED_POINTS
FIELD FieldData 1
TIME 1 1 double
1.12000000
DIMENSIONS    32   32   1

ORIGIN    0.000   0.000   0.000
SPACING   0.03125 0.03125   1.000

POINT_DATA   1024
SCALARS Omega double
LOOKUP_TABLE default

-5.249836e-14 -3.630227e-14 -2.889338e-14 -2.509934e-14 1.292830e-14 1.577586e-13 6.255779e-13 1.505984e-12 2.796984e-12 4.188796e-12 5.419081e-12 6.114870e-12 6.115753e-12 5.130001e-12 2.857735e-12 -4.210818e-13 -2.577002e-12 -2.164183e-12 -1.640915e-14 2.248158e-12 3.990967e-12 4.923712e-12 5.046913e-12 4.485942e-12 3.514486e-12 2.284352e-12 1.301461e-12 5.223365e-13 1.947267e-13 2.000055e-15 -3.471257e-14 -6.676763e-14 
-5.147293e-14 3.954386e-02 1.479105e-04 -1.901668e-01 -5.998493e-01 -1.294072e+00 -2.313085e+00 -3.614564e+00 -5.102983e+00 -6.626896e+00 -8.070905e+00 -9.370299e+00 -1.042017e+01 -1.091234e+01 -9.980580e+00 -6.319489e+00 -2.259313e-12 6.319489e+00 9.980580e+00 1.091234e+01 1.042017e+01 9.370299e+00 8.070905e+00 6.626896e+00 5.102983e+00 3.614564e+00 2.313085e+00 1.294072e+00 5.998493e-01 1.901668e-01 -1.479105e-04 -3.954386e-02 
-1.185108e-13 1.516510e-01 1.426817e-01 -1.544414e-01 -8.428481e-01 -2.026752e+00 -3.781312e+00 -6.045094e+00 -8.661874e+00 -1.136752e+01 -1.395139e+01 -1.627828e+01 -1.821950e+01 -1.925473e+01 -1.773680e+01 -1.120419e+01 -3.277232e-12 1.120419e+01 1.773680e+01 1.925473e+01 1.821950e+01 1.627828e+01 1.395139e+01 1.136752e+01 8.661874e+00 6.045094e+00 3.781312e+00 2.026752e+00 8.428481e-01 1.544414e-01 -1.426817e-01 -1.516510e-01 
-2.477784e-13 4.074384e-01 5.497950e-01 2.578005e-01 -5.583466e-01 -1.992051e+00 -4.136090e+00 -6.927457e+00 -1.015902e+01 -1.347020e+01 -1.649663e+01 -1.915006e+01 -2.149232e+01 -2.326148e+01 -2.218343e+01 -1.422982e+01 -5.124966e-12 1.422982e+01 2.218343e+01 2.326148e+01 2.149232e+01 1.915006e+01 1.649663e+01 1.347020e+01 1.015902e+01 6.927457e+00 4.136090e+00 1.992051e+00 5.583466e-01 -2.578005e-01 -5.497950e-01 -4.074384e-01 
-4.264572e-13 8.691387e-01 1.324267e+00 1.148600e+00 3.215227e-01 -1.169264e+00 -3.371759e+00 -6.240482e+00 -9.563892e+00 -1.296445e+01 -1.599545e+01 -1.857286e+01 -2.140993e+01 -2.480639e+01 -2.521521e+01 -1.635181e+01 -7.149344e-12 1.635181e+01 2.521521e+01 2.480639e+01 2.140993e+01 1.857286e+01 1.599545e+01 1.296445e+01 9.563892e+00 6.240482e+00 3.371759e+00 1.169264e+00 -3.215227e-01 -1.148600e+00 -1.324267e+00 -8.691387e-01 
-6.672729e-13 1.602461e+00 2.578829e+00 2.632875e+00 1.828276e+00 3.036469e-01 -1.870812e+00 -4.639842e+00 -7.815119e+00 -1.109337e+01 -1.395975e+01 -1.681550e+01 -1.961683e+01 -2.654729e+01 -3.161925e+01 -2.071711e+01 -9.710023e-12 2.071711e+01 3.161925e+01 2.654729e+01 1.961683e+01 1.681550e+01 1.395975e+01 1.109337e+01 7.815119e+00 4.639842e+00 1.870812e+00 -3.036469e-01 -1.828276e+00 -2.632875e+00 -2.578829e+00 -1.602461e+00 
-1.002685e-12 2.598724e+00 4.311940e+00 4.713895e+00 3.959080e+00 2.344322e+00 1.709904e-01 -2.461008e+00 -5.362540e+00 -8.398083e+00 -1.102763e+01 -1.509351e+01 -1.480010e+01 -3.817258e+01 -5.115512e+01 -2.684980e+01 -8.950691e-12 2.684980e+01 5.115512e+01 3.817258e+01 1.480010e+01 1.509351e+01 1.102763e+01 8.398083e+00 5.362540e+00 2.461008e+00 -1.709904e-01 -2.344322e+00 -3.959080e+00 -4.713895e+00 -4.311940e+00 -2.598724e+00 
-1.466565e-12 3.844341e+00 6.499679e+00 7.380083e+00 6.697822e+00 4.920872e+00 2.584843e+00 -8.300747e-02 -2.790982e+00 -6.039842e+00 -1.088632e+01 -1.269350e+01 -2.194661e+01 -1.942627e+01 3.570495e+01 4.958471e+01 3.379949e-11 -4.958471e+01 -3.570495e+01 1.942627e+01 2.194661e+01 1.269350e+01 1.088632e+01 6.039842e+00 2.790982e+00 8.300747e-02 -2.584843e+00 -4.920872e+00 -6.697822e+00 -7.380083e+00 -6.499679e+00 -3.844341e+00 
-2.071828e-12 5.236047e+00 8.945419e+00 1.036592e+01 9.802843e+00 7.822368e+00 5.303430e+00 2.433325e+00 -2.769101e-01 -4.125633e+00 -1.302330e+01 2.797368e+00 4.224904e+01 9.108245e+01 8.340106e+01 2.112210e+01 1.261060e-11 -2.112210e+01 -8.340106e+01 -9.108245e+01 -4.224904e+01 -2.797368e+00 1.302330e+01 4.125633e+00 2.769101e-01 -2.433325e+00 -5.303430e+00 -7.822368e+00 -9.802843e+00 -1.036592e+01 -8.945419e+00 -5.236047e+00 
-2.692815e-12 6.705576e+00 1.148607e+01 1.341688e+01 1.289237e+01 1.068283e+01 7.799862e+00 4.906842e+00 1.954330e+00 -4.313707e-01 9.199590e+00 4.935015e+01 6.765526e+01 2.829341e+01 -3.046258e+01 -3.851297e+01 -1.377447e-11 3.851297e+01 3.046258e+01 -2.829341e+01 -6.765526e+01 -4.935015e+01 -9.199590e+00 4.313707e-01 -1.954330e+00 -4.906842e+00 -7.799862e+00 -1.068283e+01 -1.289237e+01 -1.341688e+01 -1.148607e+01 -6.705576e+00 
-3.326088e-12 8.125513e+00 1.391614e+01 1.635026e+01 1.583312e+01 1.351798e+01 1.061850e+01 8.002745e+00 1.787826e+01 3.570455e+01 2.543382e+01 2.239112e+01 -4.472604e-01 -3.787447e+01 -2.377895e+01 2.688236e+00 -1.060452e-11 -2.688236e+00 2.377895e+01 3.787447e+01 4.472604e-01 -2.239112e+01 -2.543382e+01 -3.570455e+01 -1.787826e+01 -8.002745e+00 -1.061850e+01 -1.351798e+01 -1.583312e+01 -1.635026e+01 -1.391614e+01 -8.125513e+00 
-3.626380e-12 9.293838e+00 1.593593e+01 1.878581e+01 1.817024e+01 1.533989e+01 1.328594e+01 1.866990e+01 4.619634e+01 1.744945e+01 -2.172156e+01 8.268048e+00 6.320276e+00 -3.118038e+00 6.663687e+00 1.286883e+01 -6.900281e-12 -1.286883e+01 -6.663687e+00 3.118038e+00 -6.320276e+00 -8.268048e+00 2.172156e+01 -1.744945e+01 -4.619634e+01 -1.866990e+01 -1.328594e+01 -1.533989e+01 -1.817024e+01 -1.878581e+01 -1.593593e+01 -9.293838e+00 
-3.674526e-12 1.002489e+01 1.739405e+01 2.104942e+01 2.094036e+01 1.799196e+01 1.418462e+01 1.211362e+01 2.601443e+01 -2.940189e+01 -8.980493e+00 2.653071e+01 -9.228382e+00 -5.822706e-01 7.731668e+00 7.505332e+00 -1.818051e-12 -7.505332e+00 -7.731668e+00 5.822706e-01 9.228382e+00 -2.653071e+01 8.980493e+00 2.940189e+01 -2.601443e+01 -1.211362e+01 -1.418462e+01 -1.799196e+01 -2.094036e+01 -2.104942e+01 -1.739405e+01 -1.002489e+01 
-3.267742e-12 1.005112e+01 1.796360e+01 2.295999e+01 2.462405e+01 2.315209e+01 2.043944e+01 2.429542e+01 -2.566405e+00 -3.633540e+01 2.395004e+01 1.395965e+01 -1.845333e+01 -1.892545e+00 2.622092e+00 2.986354e+00 -4.407496e-13 -2.986354e+00 -2.622092e+00 1.892545e+00 1.845333e+01 -1.395965e+01 -2.395004e+01 3.633540e+01 2.566405e+00 -2.429542e+01 -2.043944e+01 -2.315209e+01 -2.462405e+01 -2.295999e+01 -1.796360e+01 -1.005112e+01 
-2.414798e-12 8.994662e+00 1.688879e+01 2.336893e+01 2.783831e+01 2.945172e+01 2.866377e+01 2.652172e+01 -3.519530e+01 -1.952301e+01 3.145977e+01 -2.538796e+00 -9.497638e+00 -2.981933e+00 -2.193176e-01 7.336153e-01 3.770253e-14 -7.336153e-01 2.193176e-01 2.981933e+00 9.497638e+00 2.538796e+00 -3.145977e+01 1.952301e+01 3.519530e+01 -2.652172e+01 -2.866377e+01 -2.945172e+01 -2.783831e+01 -2.336893e+01 -1.688879e+01 -8.994662e+00 
-1.212786e-12 6.205326e+00 1.221621e+01 1.784956e+01 2.202523e+01 2.315820e+01 2.138680e+01 1.227112e+01 -3.001231e+01 6.271026e+00 2.160860e+01 -1.456566e+01 -9.095421e+00 -3.398595e+00 -9.980658e-01 -7.929479e-02 2.511791e-14 7.929479e-02 9.980658e-01 3.398595e+00 9.095421e+00 1.456566e+01 -2.160860e+01 -6.271026e+00 3.001231e+01 -1.227112e+01 -2.138680e+01 -2.315820e+01 -2.202523e+01 -1.784956e+01 -1.221621e+01 -6.205326e+00 
-6.399239e-13 -1.488494e-13 1.067777e-12 2.984575e-12 5.121835e-12 6.717031e-12 6.548112e-12 3.129021e-12 -8.687180e-12 3.478197e-12 9.721052e-12 -1.377202e-12 -2.612144e-12 -1.649338e-12 -7.710800e-13 -2.104423e-13 -1.666387e-14 1.442175e-13 7.560192e-13 3.802786e-12 1.239889e-11 2.230785e-11 1.550793e-11 -2.336323e-11 -5.689403e-11 5.867776e-12 3.111610e-11 3.205039e-11 2.430535e-11 1.422944e-11 5.746335e-12 8.796010e-13 
-1.413096e-12 -6.205326e+00 -1.221621e+01 -1.784956e+01 -2.202523e+01 -2.315820e+01 -2.138680e+01 -1.227112e+01 3.001231e+01 -6.271026e+00 -2.160860e+01 1.456566e+01 9.095421e+00 3.398595e+00 9.980658e-01 7.929479e-02 -3.610973e-13 -7.929479e-02 -9.980658e-01 -3.398595e+00 -9.095421e+00 -1.456566e+01 2.160860e+01 6.271026e+00 -3.001231e+01 1.227112e+01 2.138680e+01 2.315820e+01 2.202523e+01 1.784956e+01 1.221621e+01 6.205326e+00 
-2.772624e-12 -8.994662e+00 -1.688879e+01 -2.336893e+01 -2.783831e+01 -2.945172e+01 -2.866377e+01 -2.652172e+01 3.519530e+01 1.952301e+01 -3.145977e+01 2.538796e+00 9.497638e+00 2.981933e+00 2.193176e-01 -7.336153e-01 -8.042584e-13 7.336153e-01 -2.193176e-01 -2.981933e+00 -9.497638e+00 -2.538796e+00 3.145977e+01 -1.952301e+01 -3.519530e+01 2.652172e+01 2.866377e+01 2.945172e+01 2.783831e+01 2.336893e+01 1.688879e+01 8.994662e+00 
-3.925041e-12 -1.005112e+01 -1.796360e+01 -2.295999e+01 -2.462405e+01 -2.315209e+01 -2.043944e+01 -2.429542e+01 2.566405e+00 3.633540e+01 -2.395004e+01 -1.395965e+01 1.845333e+01 1.892545e+00 -2.622092e+00 -2.986354e+00 -3.371912e-12 2.986354e+00 2.622092e+00 -1.892545e+00 -1.845333e+01 1.395965e+01 2.395004e+01 -3.633540e+01 -2.566405e+00 2.429542e+01 2.043944e+01 2.315209e+01 2.462405e+01 2.295999e+01 1.796360e+01 1.005112e+01 
-4.640038e-12 -1.002489e+01 -1.739405e+01 -2.104942e+01 -2.094036e+01 -1.799196e+01 -1.418462e+01 -1.211362e+01 -2.601443e+01 2.940189e+01 8.980493e+00 -2.653071e+01 9.228382e+00 5.822706e-01 -7.731668e+00 -7.505332e+00 -1.086307e-11 7.505332e+00 7.731668e+00 -5.822706e-01 -9.228382e+00 2.653071e+01 -8.980493e+00 -2.940189e+01 2.601443e+01 1.211362e+01 1.418462e+01 1.799196e+01 2.094036e+01 2.104942e+01 1.739405e+01 1.002489e+01 
-4.883592e-12 -9.293838e+00 -1.593593e+01 -1.878581e+01 -1.817024e+01 -1.533989e+01 -1.328594e+01 -1.866990e+01 -4.619634e+01 -1.744945e+01 2.172156e+01 -8.268048e+00 -6.320276e+00 3.118038e+00 -6.663687e+00 -1.286883e+01 -2.967854e-11 1.286883e+01 6.663687e+00 -3.118038e+00 6.320276e+00 8.268048e+00 -2.172156e+01 1.744945e+01 4.619634e+01 1.866990e+01 1.328594e+01 1.533989e+01 1.817024e+01 1.878581e+01 1.593593e+01 9.293838e+00 
-4.706814e-12 -8.125513e+00 -1.391614e+01 -1.635026e+01 -1.583312e+01 -1.351798e+01 -1.061850e+01 -8.002745e+00 -1.787826e+01 -3.570455e+01 -2.543382e+01 -2.239112e+01 4.472604e-01 3.787447e+01 2.377895e+01 -2.688236e+00 -1.908185e-11 2.688236e+00 -2.377895e+01 -3.787447e+01 -4.472604e-01 2.239112e+01 2.543382e+01 3.570455e+01 1.787826e+01 8.002745e+00 1.061850e+01 1.351798e+01 1.583312e+01 1.635026e+01 1.391614e+01 8.125513e+00 
-4.024949e-12 -6.705576e+00 -1.148607e+01 -1.341688e+01 -1.289237e+01 -1.068283e+01 -7.799862e+00 -4.906842e+00 -1.954330e+00 4.313707e-01 -9.199590e+00 -4.935015e+01 -6.765526e+01 -2.829341e+01 3.046258e+01 3.851297e+01 2.141518e-11 -3.851297e+01 -3.046258e+01 2.829341e+01 6.765526e+01 4.935015e+01 9.199590e+00 -4.313707e-01 1.954330e+00 4.906842e+00 7.799862e+00 1.068283e+01 1.289237e+01 1.341688e+01 1.148607e+01 6.705576e+00 
-3.219748e-12 -5.236047e+00 -8.945419e+00 -1.036592e+01 -9.802843e+00 -7.822368e+00 -5.303430e+00 -2.433325e+00 2.769101e-01 4.125633e+00 1.302330e+01 -2.797368e+00 -4.224904e+01 -9.108245e+01 -8.340106e+01 -2.112210e+01 3.290864e-11 2.112210e+01 8.340106e+01 9.108245e+01 4.224904e+01 2.797368e+00 -1.302330e+01 -4.125633e+00 -2.769101e-01 2.433325e+00 5.303430e+00 7.822368e+00 9.802843e+00 1.036592e+01 8.945419e+00 5.236047e+00 
-2.412129e-12 -3.844341e+00 -6.499679e+00 -7.380083e+00 -6.697822e+00 -4.920872e+00 -2.584843e+00 8.300747e-02 2.790982e+00 6.039842e+00 1.088632e+01 1.269350e+01 2.194661e+01 1.942627e+01 -3.570495e+01 -4.958471e+01 4.909831e-11 4.958471e+01 3.570495e+01 -1.942627e+01 -2.194661e+01 -1.269350e+01 -1.088632e+01 -6.039842e+00 -2.790982e+00 -8.300747e-02 2.584843e+00 4.920872e+00 6.697822e+00 7.380083e+00 6.499679e+00 3.844341e+00 
-1.685689e-12 -2.598724e+00 -4.311940e+00 -4.713895e+00 -3.959080e+00 -2.344322e+00 -1.709904e-01 2.461008e+00 5.362540e+00 8.398083e+00 1.102763e+01 1.509351e+01 1.480010e+01 3.817258e+01 5.115512e+01 2.684980e+01 -3.858944e-11 -2.684980e+01 -5.115512e+01 -3.817258e+01 -1.480010e+01 -1.509351e+01 -1.102763e+01 -8.398083e+00 -5.362540e+00 -2.461008e+00 1.709904e-01 2.344322e+00 3.959080e+00 4.713895e+00 4.311940e+00 2.598724e+00 
-1.089026e-12 -1.602461e+00 -2.578829e+00 -2.632875e+00 -1.828276e+00 -3.036469e-01 1.870812e+00 4.639842e+00 7.815119e+00 1.109337e+01 1.395975e+01 1.681550e+01 1.961683e+01 2.654729e+01 3.161925e+01 2.071711e+01 -3.348875e-11 -2.071711e+01 -3.161925e+01 -2.654729e+01 -1.961683e+01 -1.681550e+01 -1.395975e+01 -1.109337e+01 -7.815119e+00 -4.639842e+00 -1.870812e+00 3.036469e-01 1.828276e+00 2.632875e+00 2.578829e+00 1.602461e+00 
-6.201575e-13 -8.691387e-01 -1.324267e+00 -1.148600e+00 -3.215227e-01 1.169264e+00 3.371759e+00 6.240482e+00 9.563892e+00 1.296445e+01 1.599545e+01 1.857286e+01 2.140993e+01 2.480639e+01 2.521521e+01 1.635181e+01 -2.544253e-11 -1.635181e+01 -2.521521e+01 -2.480639e+01 -2.140993e+01 -1.857286e+01 -1.599545e+01 -1.296445e+01 -9.563892e+00 -6.240482e+00 -3.371759e+00 -1.169264e+00 3.215227e-01 1.148600e+00 1.324267e+00 8.691387e-01 
-3.134756e-13 -4.074384e-01 -5.497950e-01 -2.578005e-01 5.583466e-01 1.992051e+00 4.136090e+00 6.927457e+00 1.015902e+01 1.347020e+01 1.649663e+01 1.915006e+01 2.149232e+01 2.326148e+01 2.218343e+01 1.422982e+01 -1.933868e-11 -1.422982e+01 -2.218343e+01 -2.326148e+01 -2.149232e+01 -1.915006e+01 -1.649663e+01 -1.347020e+01 -1.015902e+01 -6.927457e+00 -4.136090e+00 -1.992051e+00 -5.583466e-01 2.578005e-01 5.497950e-01 4.074384e-01 
-1.491864e-13 -1.516510e-01 -1.426817e-01 1.544414e-01 8.428481e-01 2.026752e+00 3.781312e+00 6.045094e+00 8.661874e+00 1.136752e+01 1.395139e+01 1.627828e+01 1.821950e+01 1.925473e+01 1.773680e+01 1.120419e+01 -1.115307e-11 -1.120419e+01 -1.773680e+01 -1.925473e+01 -1.821950e+01 -1.627828e+01 -1.395139e+01 -1.136752e+01 -8.661874e+00 -6.045094e+00 -3.781312e+00 -2.026752e+00 -8.428481e-01 -1.544414e-01 1.426817e-01 1.516510e-01 
-7.056822e-14 -3.954386e-02 -1.479105e-04 1.901668e-01 5.998493e-01 1.294072e+00 2.313085e+00 3.614564e+00 5.102983e+00 6.626896e+00 8.070905e+00 9.370299e+00 1.042017e+01 1.091234e+01 9.980580e+00 6.319489e+00 -5.049856e-12 -6.319489e+00 -9.980580e+00 -1.091234e+01 -1.042017e+01 -9.370299e+00 -8.070905e+00 -6.626896e+00 -5.102983e+00 -3.614564e+00 -2.313085e+00 -1.294072e+00 -5.998493e-01 -1.901668e-01 1.479105e-04 3.954386e-02 
