# vtk DataFile Version 2.0
Comment goes here
ASCII

DATASET STRUCTURED_POINTS
FIELD FieldData 1
TIME 1 1 double
0.38000000
DIMENSIONS    32   32   1

ORIGIN    0.000   0.000   0.000
SPACING   0.03125 0.03125   1.000

POINT_DATA   1024
SCALARS Omega double
LOOKUP_TABLE default

-8.350378e-14 -6.486590e-14 -6.360563e-14 -3.770181e-14 -6.024524e-14 -4.106108e-14 -3.111889e-14 -3.947030e-14 -2.090621e-14 -8.600770e-14 -1.514046e-13 -4.023299e-13 -5.751268e-13 -6.239053e-13 -3.617654e-13 4.797392e-13 1.239604e-12 4.785586e-13 -2.440014e-13 -3.107779e-13 -2.691633e-13 -1.667146e-13 -7.278789e-14 -6.661616e-15 -6.738312e-16 -3.361741e-14 -4.827905e-14 -2.867549e-14 -4.342882e-14 -3.233956e-14 -5.812621e-14 -7.981721e-14 
-8.364553e-14 4.174968e-03 1.053899e-02 1.959396e-02 3.349037e-02 4.739156e-02 4.910773e-02 1.542022e-02 -1.664638e-01 -6.568653e-01 -1.835006e+00 -3.862390e+00 -6.560590e+00 -9.216592e+00 -1.063139e+01 -8.398345e+00 8.801034e-13 8.398345e+00 1.063139e+01 9.216592e+00 6.560590e+00 3.862390e+00 1.835006e+00 6.568653e-01 1.664638e-01 -1.542022e-02 -4.910773e-02 -4.739156e-02 -3.349037e-02 -1.959396e-02 -1.053899e-02 -4.174968e-03 
-6.217380e-14 1.277280e-02 2.998306e-02 5.419677e-02 8.883043e-02 1.259774e-01 1.474425e-01 1.170486e-01 -1.337663e-01 -8.230089e-01 -2.682997e+00 -6.075752e+00 -1.112078e+01 -1.640180e+01 -1.971877e+01 -1.860481e+01 6.309041e-13 1.860481e+01 1.971877e+01 1.640180e+01 1.112078e+01 6.075752e+00 2.682997e+00 8.230089e-01 1.337663e-01 -1.170486e-01 -1.474425e-01 -1.259774e-01 -8.883043e-02 -5.419677e-02 -2.998306e-02 -1.277280e-02 
-7.214617e-14 3.118950e-02 6.848316e-02 1.161807e-01 1.811642e-01 2.491782e-01 3.132062e-01 3.097660e-01 9.308807e-02 -4.736307e-01 -2.273699e+00 -6.158875e+00 -1.308589e+01 -1.946100e+01 -3.007044e+01 -3.463746e+01 4.875205e-13 3.463746e+01 3.007044e+01 1.946100e+01 1.308589e+01 6.158875e+00 2.273699e+00 4.736307e-01 -9.308807e-02 -3.097660e-01 -3.132062e-01 -2.491782e-01 -1.811642e-01 -1.161807e-01 -6.848316e-02 -3.118950e-02 
-4.877610e-14 7.252847e-02 1.467411e-01 2.336582e-01 3.399806e-01 4.646400e-01 5.950636e-01 6.459519e-01 3.690312e-01 2.375712e-01 -1.287691e+00 -3.929708e+00 -6.757382e+00 -1.953462e+01 -5.361496e+01 -5.736086e+01 1.094364e-12 5.736086e+01 5.361496e+01 1.953462e+01 6.757382e+00 3.929708e+00 1.287691e+00 -2.375712e-01 -3.690312e-01 -6.459519e-01 -5.950636e-01 -4.646400e-01 -3.399806e-01 -2.336582e-01 -1.467411e-01 -7.252847e-02 
-2.442907e-14 1.614824e-01 3.004428e-01 4.342072e-01 5.792597e-01 7.628469e-01 9.188394e-01 8.644044e-01 2.242475e-01 7.545807e-01 2.092202e+00 3.636665e+00 -5.009772e+00 -3.737495e+01 -6.308351e+01 -3.672966e+01 1.741479e-12 3.672966e+01 6.308351e+01 3.737495e+01 5.009772e+00 -3.636665e+00 -2.092202e+00 -7.545807e-01 -2.242475e-01 -8.644044e-01 -9.188394e-01 -7.628469e-01 -5.792597e-01 -4.342072e-01 -3.004428e-01 -1.614824e-01 
-2.826335e-15 3.578132e-01 6.137234e-01 7.956472e-01 9.437722e-01 1.165250e+00 1.087998e+00 5.108537e-01 4.172298e-01 4.799443e+00 1.277907e+01 2.880871e+00 -2.807852e+01 -2.751574e+01 8.052818e+00 3.469174e+01 -1.474494e-13 -3.469174e+01 -8.052818e+00 2.751574e+01 2.807852e+01 -2.880871e+00 -1.277907e+01 -4.799443e+00 -4.172298e-01 -5.108537e-01 -1.087998e+00 -1.165250e+00 -9.437722e-01 -7.956472e-01 -6.137234e-01 -3.578132e-01 
-4.647105e-14 7.759612e-01 1.253277e+00 1.452496e+00 1.475182e+00 1.484018e+00 6.266970e-01 -9.766128e-02 7.818600e+00 1.710507e+01 1.203280e+01 7.809449e+00 2.836694e+01 6.729170e+01 6.627290e+01 3.247735e+01 -2.659269e-12 -3.247735e+01 -6.627290e+01 -6.729170e+01 -2.836694e+01 -7.809449e+00 -1.203280e+01 -1.710507e+01 -7.818600e+00 9.766128e-02 -6.266970e-01 -1.484018e+00 -1.475182e+00 -1.452496e+00 -1.253277e+00 -7.759612e-01 
-2.595159e-14 1.577270e+00 2.469896e+00 2.610820e+00 2.206906e+00 1.460472e+00 3.349472e-01 8.010863e+00 2.769540e+01 3.469339e+01 3.960403e+01 6.071801e+01 6.650643e+01 4.087443e+01 1.858667e+01 -4.085767e+00 2.954832e-13 4.085767e+00 -1.858667e+01 -4.087443e+01 -6.650643e+01 -6.071801e+01 -3.960403e+01 -3.469339e+01 -2.769540e+01 -8.010863e+00 -3.349472e-01 -1.460472e+00 -2.206906e+00 -2.610820e+00 -2.469896e+00 -1.577270e+00 
-6.305860e-14 2.924458e+00 4.555967e+00 4.548564e+00 3.282433e+00 1.807873e+00 6.789655e+00 3.635771e+01 5.886463e+01 5.541710e+01 5.685056e+01 4.793110e+01 1.513325e+01 -1.423731e+01 -2.095683e+00 1.752729e+00 2.665096e-12 -1.752729e+00 2.095683e+00 1.423731e+01 -1.513325e+01 -4.793110e+01 -5.685056e+01 -5.541710e+01 -5.886463e+01 -3.635771e+01 -6.789655e+00 -1.807873e+00 -3.282433e+00 -4.548564e+00 -4.555967e+00 -2.924458e+00 
-1.291235e-13 4.882701e+00 7.687542e+00 7.511001e+00 5.256498e+00 6.471649e+00 2.854883e+01 6.371714e+01 5.707430e+01 4.022409e+01 3.795959e+01 1.340229e+01 -1.114109e+00 1.236168e+01 2.119252e+01 1.737728e+01 4.424587e-13 -1.737728e+01 -2.119252e+01 -1.236168e+01 1.114109e+00 -1.340229e+01 -3.795959e+01 -4.022409e+01 -5.707430e+01 -6.371714e+01 -2.854883e+01 -6.471649e+00 -5.256498e+00 -7.511001e+00 -7.687542e+00 -4.882701e+00 
-2.236123e-13 7.511463e+00 1.195764e+01 1.173302e+01 9.460864e+00 1.969862e+01 5.556136e+01 4.898320e+01 2.220247e+01 2.514101e+01 1.816086e+01 1.912651e+00 6.379851e+00 2.297177e+01 2.032020e+01 1.491941e+01 -5.209817e-13 -1.491941e+01 -2.032020e+01 -2.297177e+01 -6.379851e+00 -1.912651e+00 -1.816086e+01 -2.514101e+01 -2.220247e+01 -4.898320e+01 -5.556136e+01 -1.969862e+01 -9.460864e+00 -1.173302e+01 -1.195764e+01 -7.511463e+00 
-2.124937e-13 1.078216e+01 1.719700e+01 1.724545e+01 1.650981e+01 3.583065e+01 5.031306e+01 1.309784e+01 2.054593e+01 3.219177e+01 -1.003864e+01 -1.943753e+01 4.301319e+00 1.450134e+01 1.368131e+01 1.097927e+01 -5.016263e-13 -1.097927e+01 -1.368131e+01 -1.450134e+01 -4.301319e+00 1.943753e+01 1.003864e+01 -3.219177e+01 -2.054593e+01 -1.309784e+01 -5.031306e+01 -3.583065e+01 -1.650981e+01 -1.724545e+01 -1.719700e+01 -1.078216e+01 
-1.928664e-13 1.422054e+01 2.238428e+01 2.260900e+01 2.245904e+01 4.031096e+01 1.886448e+01 2.616072e+00 3.597355e+01 1.158101e+01 -3.785143e+01 -2.772214e+01 1.027273e+00 3.862311e+00 6.247721e+00 6.010589e+00 -2.624705e-13 -6.010589e+00 -6.247721e+00 -3.862311e+00 -1.027273e+00 2.772214e+01 3.785143e+01 -1.158101e+01 -3.597355e+01 -2.616072e+00 -1.886448e+01 -4.031096e+01 -2.245904e+01 -2.260900e+01 -2.238428e+01 -1.422054e+01 
-8.953601e-14 1.601643e+01 2.426396e+01 2.304954e+01 2.012257e+01 2.494985e+01 -2.132062e+00 1.317558e+01 3.744969e+01 -7.753239e+00 -4.301924e+01 -2.996095e+01 -5.974844e+00 -2.770833e+00 7.468230e-01 1.795894e+00 -1.679933e-13 -1.795894e+00 -7.468230e-01 2.770833e+00 5.974844e+00 2.996095e+01 4.301924e+01 7.753239e+00 -3.744969e+01 -1.317558e+01 2.132062e+00 -2.494985e+01 -2.012257e+01 -2.304954e+01 -2.426396e+01 -1.601643e+01 
2.715338e-13 1.206087e+01 1.671850e+01 1.367330e+01 1.062079e+01 9.613410e+00 -6.003318e+00 9.844728e+00 2.151305e+01 -9.509192e+00 -2.889540e+01 -2.117377e+01 -7.280623e+00 -3.876349e+00 -1.287942e+00 -1.247434e-01 -5.201023e-14 1.247434e-01 1.287942e+00 3.876349e+00 7.280623e+00 2.117377e+01 2.889540e+01 9.509192e+00 -2.151305e+01 -9.844728e+00 6.003318e+00 -9.613410e+00 -1.062079e+01 -1.367330e+01 -1.671850e+01 -1.206087e+01 
4.579310e-13 4.313157e-13 6.050060e-13 1.253489e-12 3.825082e-12 5.633129e-12 -1.883619e-12 -7.549828e-12 -3.452147e-13 3.037033e-12 8.452997e-13 4.184615e-14 -2.521870e-13 -1.781218e-13 -1.143481e-13 -6.310734e-14 -6.612816e-14 -7.259362e-14 -5.763595e-14 -6.641055e-14 9.183067e-15 3.940362e-13 7.972495e-13 2.463944e-12 5.115272e-12 3.163235e-12 -2.599155e-12 -2.311030e-12 2.335988e-13 4.849292e-13 4.390851e-13 4.719828e-13 
-8.223358e-14 -1.206087e+01 -1.671850e+01 -1.367330e+01 -1.062079e+01 -9.613410e+00 6.003318e+00 -9.844728e+00 -2.151305e+01 9.509192e+00 2.889540e+01 2.117377e+01 7.280623e+00 3.876349e+00 1.287942e+00 1.247434e-01 -1.316536e-14 -1.247434e-01 -1.287942e+00 -3.876349e+00 -7.280623e+00 -2.117377e+01 -2.889540e+01 -9.509192e+00 2.151305e+01 9.844728e+00 -6.003318e+00 9.613410e+00 1.062079e+01 1.367330e+01 1.671850e+01 1.206087e+01 
-4.431694e-13 -1.601643e+01 -2.426396e+01 -2.304954e+01 -2.012257e+01 -2.494985e+01 2.132062e+00 -1.317558e+01 -3.744969e+01 7.753239e+00 4.301924e+01 2.996095e+01 5.974844e+00 2.770833e+00 -7.468230e-01 -1.795894e+00 -8.781547e-16 1.795894e+00 7.468230e-01 -2.770833e+00 -5.974844e+00 -2.996095e+01 -4.301924e+01 -7.753239e+00 3.744969e+01 1.317558e+01 -2.132062e+00 2.494985e+01 2.012257e+01 2.304954e+01 2.426396e+01 1.601643e+01 
-3.827026e-13 -1.422054e+01 -2.238428e+01 -2.260900e+01 -2.245904e+01 -4.031096e+01 -1.886448e+01 -2.616072e+00 -3.597355e+01 -1.158101e+01 3.785143e+01 2.772214e+01 -1.027273e+00 -3.862311e+00 -6.247721e+00 -6.010589e+00 2.553497e-13 6.010589e+00 6.247721e+00 3.862311e+00 1.027273e+00 -2.772214e+01 -3.785143e+01 1.158101e+01 3.597355e+01 2.616072e+00 1.886448e+01 4.031096e+01 2.245904e+01 2.260900e+01 2.238428e+01 1.422054e+01 
-2.342946e-13 -1.078216e+01 -1.719700e+01 -1.724545e+01 -1.650981e+01 -3.583065e+01 -5.031306e+01 -1.309784e+01 -2.054593e+01 -3.219177e+01 1.003864e+01 1.943753e+01 -4.301319e+00 -1.450134e+01 -1.368131e+01 -1.097927e+01 6.994790e-13 1.097927e+01 1.368131e+01 1.450134e+01 4.301319e+00 -1.943753e+01 -1.003864e+01 3.219177e+01 2.054593e+01 1.309784e+01 5.031306e+01 3.583065e+01 1.650981e+01 1.724545e+01 1.719700e+01 1.078216e+01 
-1.345109e-13 -7.511463e+00 -1.195764e+01 -1.173302e+01 -9.460864e+00 -1.969862e+01 -5.556136e+01 -4.898320e+01 -2.220247e+01 -2.514101e+01 -1.816086e+01 -1.912651e+00 -6.379851e+00 -2.297177e+01 -2.032020e+01 -1.491941e+01 1.611144e-12 1.491941e+01 2.032020e+01 2.297177e+01 6.379851e+00 1.912651e+00 1.816086e+01 2.514101e+01 2.220247e+01 4.898320e+01 5.556136e+01 1.969862e+01 9.460864e+00 1.173302e+01 1.195764e+01 7.511463e+00 
-7.526992e-14 -4.882701e+00 -7.687542e+00 -7.511001e+00 -5.256498e+00 -6.471649e+00 -2.854883e+01 -6.371714e+01 -5.707430e+01 -4.022409e+01 -3.795959e+01 -1.340229e+01 1.114109e+00 -1.236168e+01 -2.119252e+01 -1.737728e+01 1.079371e-12 1.737728e+01 2.119252e+01 1.236168e+01 -1.114109e+00 1.340229e+01 3.795959e+01 4.022409e+01 5.707430e+01 6.371714e+01 2.854883e+01 6.471649e+00 5.256498e+00 7.511001e+00 7.687542e+00 4.882701e+00 
1.566936e-15 -2.924458e+00 -4.555967e+00 -4.548564e+00 -3.282433e+00 -1.807873e+00 -6.789655e+00 -3.635771e+01 -5.886463e+01 -5.541710e+01 -5.685056e+01 -4.793110e+01 -1.513325e+01 1.423731e+01 2.095683e+00 -1.752729e+00 -2.646903e-12 1.752729e+00 -2.095683e+00 -1.423731e+01 1.513325e+01 4.793110e+01 5.685056e+01 5.541710e+01 5.886463e+01 3.635771e+01 6.789655e+00 1.807873e+00 3.282433e+00 4.548564e+00 4.555967e+00 2.924458e+00 
3.597272e-14 -1.577270e+00 -2.469896e+00 -2.610820e+00 -2.206906e+00 -1.460472e+00 -3.349472e-01 -8.010863e+00 -2.769540e+01 -3.469339e+01 -3.960403e+01 -6.071801e+01 -6.650643e+01 -4.087443e+01 -1.858667e+01 4.085767e+00 -2.254342e-12 -4.085767e+00 1.858667e+01 4.087443e+01 6.650643e+01 6.071801e+01 3.960403e+01 3.469339e+01 2.769540e+01 8.010863e+00 3.349472e-01 1.460472e+00 2.206906e+00 2.610820e+00 2.469896e+00 1.577270e+00 
1.995617e-14 -7.759612e-01 -1.253277e+00 -1.452496e+00 -1.475182e+00 -1.484018e+00 -6.266970e-01 9.766128e-02 -7.818600e+00 -1.710507e+01 -1.203280e+01 -7.809449e+00 -2.836694e+01 -6.729170e+01 -6.627290e+01 -3.247735e+01 3.072374e-12 3.247735e+01 6.627290e+01 6.729170e+01 2.836694e+01 7.809449e+00 1.203280e+01 1.710507e+01 7.818600e+00 -9.766128e-02 6.266970e-01 1.484018e+00 1.475182e+00 1.452496e+00 1.253277e+00 7.759612e-01 
2.864742e-15 -3.578132e-01 -6.137234e-01 -7.956472e-01 -9.437722e-01 -1.165250e+00 -1.087998e+00 -5.108537e-01 -4.172298e-01 -4.799443e+00 -1.277907e+01 -2.880871e+00 2.807852e+01 2.751574e+01 -8.052818e+00 -3.469174e+01 2.183116e-12 3.469174e+01 8.052818e+00 -2.751574e+01 -2.807852e+01 2.880871e+00 1.277907e+01 4.799443e+00 4.172298e-01 5.108537e-01 1.087998e+00 1.165250e+00 9.437722e-01 7.956472e-01 6.137234e-01 3.578132e-01 
1.841350e-14 -1.614824e-01 -3.004428e-01 -4.342072e-01 -5.792597e-01 -7.628469e-01 -9.188394e-01 -8.644044e-01 -2.242475e-01 -7.545807e-01 -2.092202e+00 -3.636665e+00 5.009772e+00 3.737495e+01 6.308351e+01 3.672966e+01 5.506415e-13 -3.672966e+01 -6.308351e+01 -3.737495e+01 -5.009772e+00 3.636665e+00 2.092202e+00 7.545807e-01 2.242475e-01 8.644044e-01 9.188394e-01 7.628469e-01 5.792597e-01 4.342072e-01 3.004428e-01 1.614824e-01 
-2.653540e-14 -7.252847e-02 -1.467411e-01 -2.336582e-01 -3.399806e-01 -4.646400e-01 -5.950636e-01 -6.459519e-01 -3.690312e-01 -2.375712e-01 1.287691e+00 3.929708e+00 6.757382e+00 1.953462e+01 5.361496e+01 5.736086e+01 3.875099e-12 -5.736086e+01 -5.361496e+01 -1.953462e+01 -6.757382e+00 -3.929708e+00 -1.287691e+00 2.375712e-01 3.690312e-01 6.459519e-01 5.950636e-01 4.646400e-01 3.399806e-01 2.336582e-01 1.467411e-01 7.252847e-02 
-4.757174e-14 -3.118950e-02 -6.848316e-02 -1.161807e-01 -1.811642e-01 -2.491782e-01 -3.132062e-01 -3.097660e-01 -9.308807e-02 4.736307e-01 2.273699e+00 6.158875e+00 1.308589e+01 1.946100e+01 3.007044e+01 3.463746e+01 4.524723e-12 -3.463746e+01 -3.007044e+01 -1.946100e+01 -1.308589e+01 -6.158875e+00 -2.273699e+00 -4.736307e-01 9.308807e-02 3.097660e-01 3.132062e-01 2.491782e-01 1.811642e-01 1.161807e-01 6.848316e-02 3.118950e-02 
-7.449334e-14 -1.277280e-02 -2.998306e-02 -5.419677e-02 -8.883043e-02 -1.259774e-01 -1.474425e-01 -1.170486e-01 1.337663e-01 8.230089e-01 2.682997e+00 6.075752e+00 1.112078e+01 1.640180e+01 1.971877e+01 1.860481e+01 3.156804e-12 -1.860481e+01 -1.971877e+01 -1.640180e+01 -1.112078e+01 -6.075752e+00 -2.682997e+00 -8.230089e-01 -1.337663e-01 1.170486e-01 1.474425e-01 1.259774e-01 8.883043e-02 5.419677e-02 2.998306e-02 1.277280e-02 
-8.043592e-14 -4.174968e-03 -1.053899e-02 -1.959396e-02 -3.349037e-02 -4.739156e-02 -4.910773e-02 -1.542022e-02 1.664638e-01 6.568653e-01 1.835006e+00 3.862390e+00 6.560590e+00 9.216592e+00 1.063139e+01 8.398345e+00 1.989959e-12 -8.398345e+00 -1.063139e+01 -9.216592e+00 -6.560590e+00 -3.862390e+00 -1.835006e+00 -6.568653e-01 -1.664638e-01 1.542022e-02 4.910773e-02 4.739156e-02 3.349037e-02 1.959396e-02 1.053899e-02 4.174968e-03 
