# vtk DataFile Version 2.0
Comment goes here
ASCII

DATASET STRUCTURED_POINTS
FIELD FieldData 1
TIME 1 1 double
1.08000000
DIMENSIONS    32   32   1

ORIGIN    0.000   0.000   0.000
SPACING   0.03125 0.03125   1.000

POINT_DATA   1024
SCALARS Omega double
LOOKUP_TABLE default

-5.897339e-14 -4.499333e-14 -3.228523e-14 -4.050237e-14 -4.560184e-14 7.915806e-15 2.676874e-13 7.567035e-13 1.530605e-12 2.464639e-12 3.303857e-12 3.792184e-12 3.867991e-12 3.426363e-12 2.398893e-12 3.591429e-13 -9.971574e-13 -6.645236e-13 3.601896e-13 1.686005e-12 2.529269e-12 3.057223e-12 3.173672e-12 2.815404e-12 2.128638e-12 1.323314e-12 6.726580e-13 2.397929e-13 3.446390e-14 -5.251582e-14 -8.003759e-14 -7.960954e-14 
-5.770259e-14 4.299905e-02 9.707618e-03 -1.601968e-01 -5.428803e-01 -1.209211e+00 -2.204078e+00 -3.523453e+00 -5.066396e+00 -6.692787e+00 -8.198060e+00 -9.431025e+00 -1.031104e+01 -1.072199e+01 -1.016571e+01 -6.986524e+00 -1.010558e-12 6.986524e+00 1.016571e+01 1.072199e+01 1.031104e+01 9.431025e+00 8.198060e+00 6.692787e+00 5.066396e+00 3.523453e+00 2.204078e+00 1.209211e+00 5.428803e-01 1.601968e-01 -9.707618e-03 -4.299905e-02 
-1.067168e-13 1.537861e-01 1.493131e-01 -1.161637e-01 -7.638636e-01 -1.904750e+00 -3.621501e+00 -5.912921e+00 -8.593822e+00 -1.142711e+01 -1.408093e+01 -1.635480e+01 -1.821242e+01 -1.947631e+01 -1.894553e+01 -1.306975e+01 -1.526554e-12 1.306975e+01 1.894553e+01 1.947631e+01 1.821242e+01 1.635480e+01 1.408093e+01 1.142711e+01 8.593822e+00 5.912921e+00 3.621501e+00 1.904750e+00 7.638636e-01 1.161637e-01 -1.493131e-01 -1.537861e-01 
-2.191335e-13 4.057846e-01 5.439643e-01 2.863519e-01 -4.837120e-01 -1.859238e+00 -3.940489e+00 -6.744263e+00 -1.003451e+01 -1.349164e+01 -1.672240e+01 -1.947660e+01 -2.196979e+01 -2.425951e+01 -2.444897e+01 -1.685962e+01 -2.837525e-12 1.685962e+01 2.444897e+01 2.425951e+01 2.196979e+01 1.947660e+01 1.672240e+01 1.349164e+01 1.003451e+01 6.744263e+00 3.940489e+00 1.859238e+00 4.837120e-01 -2.863519e-01 -5.439643e-01 -4.057846e-01 
-3.797436e-13 8.635092e-01 1.293959e+00 1.142938e+00 3.397538e-01 -1.097808e+00 -3.239441e+00 -6.115042e+00 -9.483621e+00 -1.297627e+01 -1.616729e+01 -1.878076e+01 -2.154471e+01 -2.508884e+01 -2.650171e+01 -1.813483e+01 -4.592715e-12 1.813483e+01 2.650171e+01 2.508884e+01 2.154471e+01 1.878076e+01 1.616729e+01 1.297627e+01 9.483621e+00 6.115042e+00 3.239441e+00 1.097808e+00 -3.397538e-01 -1.142938e+00 -1.293959e+00 -8.635092e-01 
-5.735967e-13 1.600216e+00 2.525310e+00 2.581263e+00 1.758838e+00 2.695691e-01 -1.842185e+00 -4.590367e+00 -7.768957e+00 -1.102811e+01 -1.409505e+01 -1.661011e+01 -1.944887e+01 -2.400478e+01 -2.641263e+01 -1.795135e+01 -5.696024e-12 1.795135e+01 2.641263e+01 2.400478e+01 1.944887e+01 1.661011e+01 1.409505e+01 1.102811e+01 7.768957e+00 4.590367e+00 1.842185e+00 -2.695691e-01 -1.758838e+00 -2.581263e+00 -2.525310e+00 -1.600216e+00 
-8.071520e-13 2.620418e+00 4.258661e+00 4.644460e+00 3.796825e+00 2.193760e+00 4.617649e-02 -2.556615e+00 -5.462740e+00 -8.291926e+00 -1.153469e+01 -1.717646e+01 -1.936283e+01 -2.772445e+01 -3.099944e+01 -1.941746e+01 -9.733749e-13 1.941746e+01 3.099944e+01 2.772445e+01 1.936283e+01 1.717646e+01 1.153469e+01 8.291926e+00 5.462740e+00 2.556615e+00 -4.617649e-02 -2.193760e+00 -3.796825e+00 -4.644460e+00 -4.258661e+00 -2.620418e+00 
-1.013948e-12 3.895397e+00 6.464300e+00 7.302485e+00 6.437033e+00 4.611144e+00 2.255919e+00 -3.797191e-01 -3.126980e+00 -6.208561e+00 -1.266912e+01 -3.239374e+01 -3.513076e+01 -1.912038e+01 8.317652e+00 1.754532e+01 1.574229e-11 -1.754532e+01 -8.317652e+00 1.912038e+01 3.513076e+01 3.239374e+01 1.266912e+01 6.208561e+00 3.126980e+00 3.797191e-01 -2.255919e+00 -4.611144e+00 -6.437033e+00 -7.302485e+00 -6.464300e+00 -3.895397e+00 
-1.252093e-12 5.318723e+00 8.958656e+00 1.034183e+01 9.486000e+00 7.433901e+00 4.743921e+00 1.917542e+00 -1.126294e+00 -7.731528e+00 -2.945421e+01 -3.502111e+01 7.674337e+00 5.170626e+01 4.212604e+01 2.451426e+01 9.518986e-12 -2.451426e+01 -4.212604e+01 -5.170626e+01 -7.674337e+00 3.502111e+01 2.945421e+01 7.731528e+00 1.126294e+00 -1.917542e+00 -4.743921e+00 -7.433901e+00 -9.486000e+00 -1.034183e+01 -8.958656e+00 -5.318723e+00 
-1.505751e-12 6.802122e+00 1.156282e+01 1.345898e+01 1.262119e+01 1.032881e+01 7.252189e+00 3.683765e+00 -2.180362e+00 -1.111347e+01 -2.868912e+01 5.705132e+00 2.654542e+01 7.968969e+00 -3.752735e+01 -2.793541e+01 -7.542276e-12 2.793541e+01 3.752735e+01 -7.968969e+00 -2.654542e+01 -5.705132e+00 2.868912e+01 1.111347e+01 2.180362e+00 -3.683765e+00 -7.252189e+00 -1.032881e+01 -1.262119e+01 -1.345898e+01 -1.156282e+01 -6.802122e+00 
-1.811859e-12 8.265809e+00 1.412204e+01 1.645136e+01 1.562285e+01 1.314865e+01 9.528738e+00 6.024330e+00 1.192930e+01 -5.665588e+00 -2.862954e+01 -7.189111e-01 -9.962308e+00 -3.246545e+01 -3.795303e+01 -1.010717e+01 -7.596324e-12 1.010717e+01 3.795303e+01 3.246545e+01 9.962308e+00 7.189111e-01 2.862954e+01 5.665588e+00 -1.192930e+01 -6.024330e+00 -9.528738e+00 -1.314865e+01 -1.562285e+01 -1.645136e+01 -1.412204e+01 -8.265809e+00 
-1.979180e-12 9.575255e+00 1.640091e+01 1.907328e+01 1.825431e+01 1.593388e+01 1.309659e+01 1.401936e+01 2.345209e+01 -3.960999e+01 -3.961879e+01 -1.131904e+01 -8.183087e-01 2.140395e+01 1.911376e+01 2.115123e+01 -5.390736e-12 -2.115123e+01 -1.911376e+01 -2.140395e+01 8.183087e-01 1.131904e+01 3.961879e+01 3.960999e+01 -2.345209e+01 -1.401936e+01 -1.309659e+01 -1.593388e+01 -1.825431e+01 -1.907328e+01 -1.640091e+01 -9.575255e+00 
-2.058310e-12 1.050730e+01 1.816154e+01 2.131016e+01 2.138242e+01 1.905135e+01 1.184574e+01 1.066230e+01 -7.604030e+00 -6.726551e+01 -8.022743e+00 8.722496e+00 -3.929561e+00 9.551531e+00 1.067742e+01 8.409882e+00 -1.970363e-12 -8.409882e+00 -1.067742e+01 -9.551531e+00 3.929561e+00 -8.722496e+00 8.022743e+00 6.726551e+01 7.604030e+00 -1.066230e+01 -1.184574e+01 -1.905135e+01 -2.138242e+01 -2.131016e+01 -1.816154e+01 -1.050730e+01 
-2.048375e-12 1.064799e+01 1.872215e+01 2.270751e+01 2.510491e+01 2.466695e+01 2.443177e+01 3.901018e+01 -4.483487e+01 -5.371072e+01 1.859849e+01 4.798119e-01 -4.950672e+00 -8.210391e-03 2.286320e+00 2.423769e+00 -6.785385e-13 -2.423769e+00 -2.286320e+00 8.210391e-03 4.950672e+00 -4.798119e-01 -1.859849e+01 5.371072e+01 4.483487e+01 -3.901018e+01 -2.443177e+01 -2.466695e+01 -2.510491e+01 -2.270751e+01 -1.872215e+01 -1.064799e+01 
-1.986326e-12 9.257138e+00 1.667455e+01 2.166117e+01 2.694998e+01 3.398555e+01 4.322585e+01 3.293572e+01 -7.046756e+01 -1.734389e+01 2.972279e+01 -8.626616e+00 -6.899560e+00 -3.208923e+00 -3.298360e-01 7.038775e-01 4.148903e-15 -7.038775e-01 3.298360e-01 3.208923e+00 6.899560e+00 8.626616e+00 -2.972279e+01 1.734389e+01 7.046756e+01 -3.293572e+01 -4.322585e+01 -3.398555e+01 -2.694998e+01 -2.166117e+01 -1.667455e+01 -9.257138e+00 
-1.817095e-12 5.804778e+00 1.081979e+01 1.529819e+01 2.153444e+01 3.031886e+01 3.603653e+01 -3.448457e+00 -4.596527e+01 9.382857e+00 1.592136e+01 -1.318657e+01 -8.248040e+00 -3.689991e+00 -1.040344e+00 -5.262029e-02 -3.394502e-16 5.262029e-02 1.040344e+00 3.689991e+00 8.248040e+00 1.318657e+01 -1.592136e+01 -9.382857e+00 4.596527e+01 3.448457e+00 -3.603653e+01 -3.031886e+01 -2.153444e+01 -1.529819e+01 -1.081979e+01 -5.804778e+00 
-1.833241e-12 -1.272103e-12 -2.220013e-13 1.601337e-12 4.292390e-12 7.299692e-12 9.382013e-12 -1.522598e-13 -4.648901e-12 3.786115e-12 3.060487e-12 -1.639899e-12 -2.225510e-12 -1.186735e-12 -5.389218e-13 -1.130818e-13 5.166215e-14 9.502585e-14 2.735372e-13 1.925482e-12 6.643381e-12 1.114582e-11 3.841657e-12 -1.922327e-11 -3.001965e-11 -6.925637e-12 2.972378e-11 2.485220e-11 1.631435e-11 8.501819e-12 2.410678e-12 -1.093029e-12 
-2.123986e-12 -5.804778e+00 -1.081979e+01 -1.529819e+01 -2.153444e+01 -3.031886e+01 -3.603653e+01 3.448457e+00 4.596527e+01 -9.382857e+00 -1.592136e+01 1.318657e+01 8.248040e+00 3.689991e+00 1.040344e+00 5.262029e-02 -1.300607e-13 -5.262029e-02 -1.040344e+00 -3.689991e+00 -8.248040e+00 -1.318657e+01 1.592136e+01 9.382857e+00 -4.596527e+01 -3.448457e+00 3.603653e+01 3.031886e+01 2.153444e+01 1.529819e+01 1.081979e+01 5.804778e+00 
-2.472871e-12 -9.257138e+00 -1.667455e+01 -2.166117e+01 -2.694998e+01 -3.398555e+01 -4.322585e+01 -3.293572e+01 7.046756e+01 1.734389e+01 -2.972279e+01 8.626616e+00 6.899560e+00 3.208923e+00 3.298360e-01 -7.038775e-01 -4.506770e-13 7.038775e-01 -3.298360e-01 -3.208923e+00 -6.899560e+00 -8.626616e+00 2.972279e+01 -1.734389e+01 -7.046756e+01 3.293572e+01 4.322585e+01 3.398555e+01 2.694998e+01 2.166117e+01 1.667455e+01 9.257138e+00 
-2.759062e-12 -1.064799e+01 -1.872215e+01 -2.270751e+01 -2.510491e+01 -2.466695e+01 -2.443177e+01 -3.901018e+01 4.483487e+01 5.371072e+01 -1.859849e+01 -4.798119e-01 4.950672e+00 8.210391e-03 -2.286320e+00 -2.423769e+00 -2.716892e-12 2.423769e+00 2.286320e+00 -8.210391e-03 -4.950672e+00 4.798119e-01 1.859849e+01 -5.371072e+01 -4.483487e+01 3.901018e+01 2.443177e+01 2.466695e+01 2.510491e+01 2.270751e+01 1.872215e+01 1.064799e+01 
-3.034485e-12 -1.050730e+01 -1.816154e+01 -2.131016e+01 -2.138242e+01 -1.905135e+01 -1.184574e+01 -1.066230e+01 7.604030e+00 6.726551e+01 8.022743e+00 -8.722496e+00 3.929561e+00 -9.551531e+00 -1.067742e+01 -8.409882e+00 -8.567364e-12 8.409882e+00 1.067742e+01 9.551531e+00 -3.929561e+00 8.722496e+00 -8.022743e+00 -6.726551e+01 -7.604030e+00 1.066230e+01 1.184574e+01 1.905135e+01 2.138242e+01 2.131016e+01 1.816154e+01 1.050730e+01 
-3.026896e-12 -9.575255e+00 -1.640091e+01 -1.907328e+01 -1.825431e+01 -1.593388e+01 -1.309659e+01 -1.401936e+01 -2.345209e+01 3.960999e+01 3.961879e+01 1.131904e+01 8.183087e-01 -2.140395e+01 -1.911376e+01 -2.115123e+01 -2.575781e-11 2.115123e+01 1.911376e+01 2.140395e+01 -8.183087e-01 -1.131904e+01 -3.961879e+01 -3.960999e+01 2.345209e+01 1.401936e+01 1.309659e+01 1.593388e+01 1.825431e+01 1.907328e+01 1.640091e+01 9.575255e+00 
-2.828151e-12 -8.265809e+00 -1.412204e+01 -1.645136e+01 -1.562285e+01 -1.314865e+01 -9.528738e+00 -6.024330e+00 -1.192930e+01 5.665588e+00 2.862954e+01 7.189111e-01 9.962308e+00 3.246545e+01 3.795303e+01 1.010717e+01 -2.217368e-11 -1.010717e+01 -3.795303e+01 -3.246545e+01 -9.962308e+00 -7.189111e-01 -2.862954e+01 -5.665588e+00 1.192930e+01 6.024330e+00 9.528738e+00 1.314865e+01 1.562285e+01 1.645136e+01 1.412204e+01 8.265809e+00 
-2.415534e-12 -6.802122e+00 -1.156282e+01 -1.345898e+01 -1.262119e+01 -1.032881e+01 -7.252189e+00 -3.683765e+00 2.180362e+00 1.111347e+01 2.868912e+01 -5.705132e+00 -2.654542e+01 -7.968969e+00 3.752735e+01 2.793541e+01 -7.409782e-12 -2.793541e+01 -3.752735e+01 7.968969e+00 2.654542e+01 5.705132e+00 -2.868912e+01 -1.111347e+01 -2.180362e+00 3.683765e+00 7.252189e+00 1.032881e+01 1.262119e+01 1.345898e+01 1.156282e+01 6.802122e+00 
-2.045083e-12 -5.318723e+00 -8.958656e+00 -1.034183e+01 -9.486000e+00 -7.433901e+00 -4.743921e+00 -1.917542e+00 1.126294e+00 7.731528e+00 2.945421e+01 3.502111e+01 -7.674337e+00 -5.170626e+01 -4.212604e+01 -2.451426e+01 4.080292e-11 2.451426e+01 4.212604e+01 5.170626e+01 7.674337e+00 -3.502111e+01 -2.945421e+01 -7.731528e+00 -1.126294e+00 1.917542e+00 4.743921e+00 7.433901e+00 9.486000e+00 1.034183e+01 8.958656e+00 5.318723e+00 
-1.631277e-12 -3.895397e+00 -6.464300e+00 -7.302485e+00 -6.437033e+00 -4.611144e+00 -2.255919e+00 3.797191e-01 3.126980e+00 6.208561e+00 1.266912e+01 3.239374e+01 3.513076e+01 1.912038e+01 -8.317652e+00 -1.754532e+01 4.885809e-11 1.754532e+01 8.317652e+00 -1.912038e+01 -3.513076e+01 -3.239374e+01 -1.266912e+01 -6.208561e+00 -3.126980e+00 -3.797191e-01 2.255919e+00 4.611144e+00 6.437033e+00 7.302485e+00 6.464300e+00 3.895397e+00 
-1.243955e-12 -2.620418e+00 -4.258661e+00 -4.644460e+00 -3.796825e+00 -2.193760e+00 -4.617649e-02 2.556615e+00 5.462740e+00 8.291926e+00 1.153469e+01 1.717646e+01 1.936283e+01 2.772445e+01 3.099944e+01 1.941746e+01 -7.567079e-12 -1.941746e+01 -3.099944e+01 -2.772445e+01 -1.936283e+01 -1.717646e+01 -1.153469e+01 -8.291926e+00 -5.462740e+00 -2.556615e+00 4.617649e-02 2.193760e+00 3.796825e+00 4.644460e+00 4.258661e+00 2.620418e+00 
-8.244331e-13 -1.600216e+00 -2.525310e+00 -2.581263e+00 -1.758838e+00 -2.695691e-01 1.842185e+00 4.590367e+00 7.768957e+00 1.102811e+01 1.409505e+01 1.661011e+01 1.944887e+01 2.400478e+01 2.641263e+01 1.795135e+01 -2.146982e-11 -1.795135e+01 -2.641263e+01 -2.400478e+01 -1.944887e+01 -1.661011e+01 -1.409505e+01 -1.102811e+01 -7.768957e+00 -4.590367e+00 -1.842185e+00 2.695691e-01 1.758838e+00 2.581263e+00 2.525310e+00 1.600216e+00 
-5.122649e-13 -8.635092e-01 -1.293959e+00 -1.142938e+00 -3.397538e-01 1.097808e+00 3.239441e+00 6.115042e+00 9.483621e+00 1.297627e+01 1.616729e+01 1.878076e+01 2.154471e+01 2.508884e+01 2.650171e+01 1.813483e+01 -1.984397e-11 -1.813483e+01 -2.650171e+01 -2.508884e+01 -2.154471e+01 -1.878076e+01 -1.616729e+01 -1.297627e+01 -9.483621e+00 -6.115042e+00 -3.239441e+00 -1.097808e+00 3.397538e-01 1.142938e+00 1.293959e+00 8.635092e-01 
-2.634356e-13 -4.057846e-01 -5.439643e-01 -2.863519e-01 4.837120e-01 1.859238e+00 3.940489e+00 6.744263e+00 1.003451e+01 1.349164e+01 1.672240e+01 1.947660e+01 2.196979e+01 2.425951e+01 2.444897e+01 1.685962e+01 -1.315386e-11 -1.685962e+01 -2.444897e+01 -2.425951e+01 -2.196979e+01 -1.947660e+01 -1.672240e+01 -1.349164e+01 -1.003451e+01 -6.744263e+00 -3.940489e+00 -1.859238e+00 -4.837120e-01 2.863519e-01 5.439643e-01 4.057846e-01 
-1.214359e-13 -1.537861e-01 -1.493131e-01 1.161637e-01 7.638636e-01 1.904750e+00 3.621501e+00 5.912921e+00 8.593822e+00 1.142711e+01 1.408093e+01 1.635480e+01 1.821242e+01 1.947631e+01 1.894553e+01 1.306975e+01 -6.397065e-12 -1.306975e+01 -1.894553e+01 -1.947631e+01 -1.821242e+01 -1.635480e+01 -1.408093e+01 -1.142711e+01 -8.593822e+00 -5.912921e+00 -3.621501e+00 -1.904750e+00 -7.638636e-01 -1.161637e-01 1.493131e-01 1.537861e-01 
-6.351489e-14 -4.299905e-02 -9.707618e-03 1.601968e-01 5.428803e-01 1.209211e+00 2.204078e+00 3.523453e+00 5.066396e+00 6.692787e+00 8.198060e+00 9.431025e+00 1.031104e+01 1.072199e+01 1.016571e+01 6.986524e+00 -2.423988e-12 -6.986524e+00 -1.016571e+01 -1.072199e+01 -1.031104e+01 -9.431025e+00 -8.198060e+00 -6.692787e+00 -5.066396e+00 -3.523453e+00 -2.204078e+00 -1.209211e+00 -5.428803e-01 -1.601968e-01 9.707618e-03 4.299905e-02 
