# vtk DataFile Version 2.0
Comment goes here
ASCII

DATASET STRUCTURED_POINTS
FIELD FieldData 1
TIME 1 1 double
1.06000000
DIMENSIONS    32   32   1

ORIGIN    0.000   0.000   0.000
SPACING   0.03125 0.03125   1.000

POINT_DATA   1024
SCALARS Omega double
LOOKUP_TABLE default

-6.313907e-14 -5.956919e-14 -5.591643e-14 -7.409880e-14 -8.465445e-14 -7.182480e-14 8.133651e-14 3.913915e-13 9.482157e-13 1.654745e-12 2.334697e-12 2.786622e-12 2.937845e-12 2.667337e-12 2.006127e-12 5.416354e-13 -4.866812e-13 -2.246036e-13 4.628731e-13 1.371010e-12 1.962973e-12 2.317241e-12 2.405291e-12 2.067552e-12 1.518954e-12 8.863119e-13 4.114695e-13 1.191910e-13 -3.590295e-14 -7.857573e-14 -9.549323e-14 -7.551547e-14 
-6.143979e-14 4.599202e-02 2.140924e-02 -1.298373e-01 -4.795381e-01 -1.100956e+00 -2.040982e+00 -3.314463e+00 -4.832274e+00 -6.486711e+00 -8.069948e+00 -9.355993e+00 -1.017701e+01 -1.038517e+01 -9.653225e+00 -6.693372e+00 -5.717433e-13 6.693372e+00 9.653225e+00 1.038517e+01 1.017701e+01 9.355993e+00 8.069948e+00 6.486711e+00 4.832274e+00 3.314463e+00 2.040982e+00 1.100956e+00 4.795381e-01 1.298373e-01 -2.140924e-02 -4.599202e-02 
-1.041698e-13 1.602595e-01 1.721328e-01 -6.007158e-02 -6.490475e-01 -1.707800e+00 -3.325749e+00 -5.535404e+00 -8.173881e+00 -1.103894e+01 -1.379699e+01 -1.611807e+01 -1.785884e+01 -1.887237e+01 -1.836418e+01 -1.317178e+01 -9.632388e-13 1.317178e+01 1.836418e+01 1.887237e+01 1.785884e+01 1.611807e+01 1.379699e+01 1.103894e+01 8.173881e+00 5.535404e+00 3.325749e+00 1.707800e+00 6.490475e-01 6.007158e-02 -1.721328e-01 -1.602595e-01 
-2.038769e-13 4.181365e-01 5.804711e-01 3.674107e-01 -3.255111e-01 -1.585792e+00 -3.518801e+00 -6.187695e+00 -9.386586e+00 -1.284789e+01 -1.622270e+01 -1.911951e+01 -2.172026e+01 -2.410956e+01 -2.497170e+01 -1.841363e+01 -1.957993e-12 1.841363e+01 2.497170e+01 2.410956e+01 2.172026e+01 1.911951e+01 1.622270e+01 1.284789e+01 9.386586e+00 6.187695e+00 3.518801e+00 1.585792e+00 3.255111e-01 -3.674107e-01 -5.804711e-01 -4.181365e-01 
-3.613528e-13 8.910786e-01 1.359024e+00 1.259986e+00 5.355670e-01 -7.792954e-01 -2.757555e+00 -5.464827e+00 -8.719482e+00 -1.218637e+01 -1.556291e+01 -1.842409e+01 -2.152297e+01 -2.547298e+01 -2.847775e+01 -2.110623e+01 -3.200059e-12 2.110623e+01 2.847775e+01 2.547298e+01 2.152297e+01 1.842409e+01 1.556291e+01 1.218637e+01 8.719482e+00 5.464827e+00 2.757555e+00 7.792954e-01 -5.355670e-01 -1.259986e+00 -1.359024e+00 -8.910786e-01 
-5.392488e-13 1.650202e+00 2.630585e+00 2.747805e+00 2.001629e+00 6.344556e-01 -1.307114e+00 -3.856538e+00 -6.861163e+00 -1.001394e+01 -1.320876e+01 -1.571961e+01 -1.875880e+01 -2.333498e+01 -2.816625e+01 -2.034185e+01 -4.070602e-12 2.034185e+01 2.816625e+01 2.333498e+01 1.875880e+01 1.571961e+01 1.320876e+01 1.001394e+01 6.861163e+00 3.856538e+00 1.307114e+00 -6.344556e-01 -2.001629e+00 -2.747805e+00 -2.630585e+00 -1.650202e+00 
-7.169008e-13 2.713743e+00 4.441125e+00 4.899844e+00 4.121510e+00 2.622956e+00 6.071005e-01 -1.808143e+00 -4.548425e+00 -7.147988e+00 -1.011708e+01 -1.437678e+01 -1.732544e+01 -2.219473e+01 -2.668712e+01 -1.800717e+01 -4.010972e-12 1.800717e+01 2.668712e+01 2.219473e+01 1.732544e+01 1.437678e+01 1.011708e+01 7.147988e+00 4.548425e+00 1.808143e+00 -6.071005e-01 -2.622956e+00 -4.121510e+00 -4.899844e+00 -4.441125e+00 -2.713743e+00 
-8.433088e-13 4.033539e+00 6.724947e+00 7.646523e+00 6.844316e+00 5.130356e+00 2.881925e+00 4.532549e-01 -2.092871e+00 -4.707918e+00 -9.403042e+00 -2.690276e+01 -2.520086e+01 -2.871755e+01 -2.151470e+01 -6.606263e+00 -1.289905e-12 6.606263e+00 2.151470e+01 2.871755e+01 2.520086e+01 2.690276e+01 9.403042e+00 4.707918e+00 2.092871e+00 -4.532549e-01 -2.881925e+00 -5.130356e+00 -6.844316e+00 -7.646523e+00 -6.724947e+00 -4.033539e+00 
-9.506177e-13 5.506976e+00 9.316325e+00 1.077326e+01 9.968580e+00 8.007414e+00 5.357238e+00 2.658346e+00 -8.260310e-02 -5.269642e+00 -2.797953e+01 -4.626213e+01 -1.361072e+01 1.945505e+01 3.795046e+01 2.704973e+01 6.802534e-12 -2.704973e+01 -3.795046e+01 -1.945505e+01 1.361072e+01 4.626213e+01 2.797953e+01 5.269642e+00 8.260310e-02 -2.658346e+00 -5.357238e+00 -8.007414e+00 -9.968580e+00 -1.077326e+01 -9.316325e+00 -5.506976e+00 
-1.052530e-12 7.018478e+00 1.198792e+01 1.395252e+01 1.314693e+01 1.095979e+01 7.883720e+00 4.676975e+00 1.036966e-01 -8.092172e+00 -3.686719e+01 -6.648911e+00 2.172842e+01 2.062537e+01 -2.451444e+00 -1.672809e+01 1.083760e-12 1.672809e+01 2.451444e+00 -2.062537e+01 -2.172842e+01 6.648911e+00 3.686719e+01 8.092172e+00 -1.036966e-01 -4.676975e+00 -7.883720e+00 -1.095979e+01 -1.314693e+01 -1.395252e+01 -1.198792e+01 -7.018478e+00 
-1.202368e-12 8.493902e+00 1.458858e+01 1.692119e+01 1.614429e+01 1.365017e+01 9.969048e+00 8.125130e+00 7.573756e+00 -2.255612e+01 -3.037920e+01 8.224811e+00 -1.629723e+01 -3.401667e+01 -3.573035e+01 -2.091772e+01 -4.407624e-12 2.091772e+01 3.573035e+01 3.401667e+01 1.629723e+01 -8.224811e+00 3.037920e+01 2.255612e+01 -7.573756e+00 -8.125130e+00 -9.969048e+00 -1.365017e+01 -1.614429e+01 -1.692119e+01 -1.458858e+01 -8.493902e+00 
-1.295072e-12 9.848178e+00 1.692711e+01 1.956711e+01 1.885828e+01 1.682273e+01 1.374719e+01 1.291961e+01 -2.029760e+00 -6.580212e+01 -3.309971e+01 -1.778247e+01 -2.307672e+01 5.412470e+00 1.843409e+01 2.187109e+01 -4.246892e-12 -2.187109e+01 -1.843409e+01 -5.412470e+00 2.307672e+01 1.778247e+01 3.309971e+01 6.580212e+01 2.029760e+00 -1.291961e+01 -1.374719e+01 -1.682273e+01 -1.885828e+01 -1.956711e+01 -1.692711e+01 -9.848178e+00 
-1.355101e-12 1.089628e+01 1.878902e+01 2.189096e+01 2.199853e+01 2.029243e+01 1.355371e+01 1.950248e+01 -4.648103e+01 -7.444229e+01 2.219241e+00 -9.212607e-01 8.814041e+00 1.983838e+01 1.147580e+01 8.437355e+00 -2.428488e-12 -8.437355e+00 -1.147580e+01 -1.983838e+01 -8.814041e+00 9.212607e-01 -2.219241e+00 7.444229e+01 4.648103e+01 -1.950248e+01 -1.355371e+01 -2.029243e+01 -2.199853e+01 -2.189096e+01 -1.878902e+01 -1.089628e+01 
-1.425422e-12 1.120057e+01 1.947927e+01 2.339325e+01 2.520829e+01 2.690027e+01 3.644877e+01 2.681250e+01 -9.143887e+01 -3.449514e+01 3.020944e+01 3.302831e+00 6.150881e-01 1.567511e+00 2.881658e+00 2.985693e+00 -7.211180e-13 -2.985693e+00 -2.881658e+00 -1.567511e+00 -6.150881e-01 -3.302831e+00 -3.020944e+01 3.449514e+01 9.143887e+01 -2.681250e+01 -3.644877e+01 -2.690027e+01 -2.520829e+01 -2.339325e+01 -1.947927e+01 -1.120057e+01 
-1.645219e-12 9.893200e+00 1.741681e+01 2.200969e+01 2.547944e+01 3.395845e+01 5.707703e+01 -1.993886e+01 -8.700766e+01 1.558097e+01 1.901827e+01 -6.491796e+00 -6.684953e+00 -2.503101e+00 2.267924e-01 1.013755e+00 -4.376084e-14 -1.013755e+00 -2.267924e-01 2.503101e+00 6.684953e+00 6.491796e+00 -1.901827e+01 -1.558097e+01 8.700766e+01 1.993886e+01 -5.707703e+01 -3.395845e+01 -2.547944e+01 -2.200969e+01 -1.741681e+01 -9.893200e+00 
-1.890456e-12 6.130334e+00 1.091603e+01 1.448091e+01 1.841508e+01 2.839832e+01 4.444488e+01 -3.864752e+01 -3.346556e+01 1.990361e+01 -5.906679e+00 -1.310447e+01 -7.199073e+00 -3.008039e+00 -7.143538e-01 1.211469e-01 4.606846e-14 -1.211469e-01 7.143538e-01 3.008039e+00 7.199073e+00 1.310447e+01 5.906679e+00 -1.990361e+01 3.346556e+01 3.864752e+01 -4.444488e+01 -2.839832e+01 -1.841508e+01 -1.448091e+01 -1.091603e+01 -6.130334e+00 
-2.236394e-12 -1.650887e-12 -6.663473e-13 9.687504e-13 3.418573e-12 6.477269e-12 8.431372e-12 -1.032677e-11 -3.352880e-12 7.121063e-12 1.269615e-12 -9.227547e-13 -1.649628e-12 -7.706479e-13 -2.876725e-13 -2.092908e-14 9.112033e-14 9.530754e-14 6.033896e-14 7.439450e-13 4.204557e-12 1.360324e-11 1.586592e-11 -3.189967e-12 -2.553614e-11 -3.403547e-11 1.919797e-11 1.978594e-11 1.288766e-11 6.677591e-12 1.145880e-12 -1.875590e-12 
-2.289380e-12 -6.130334e+00 -1.091603e+01 -1.448091e+01 -1.841508e+01 -2.839832e+01 -4.444488e+01 3.864752e+01 3.346556e+01 -1.990361e+01 5.906679e+00 1.310447e+01 7.199073e+00 3.008039e+00 7.143538e-01 -1.211469e-01 -1.083388e-15 1.211469e-01 -7.143538e-01 -3.008039e+00 -7.199073e+00 -1.310447e+01 -5.906679e+00 1.990361e+01 -3.346556e+01 -3.864752e+01 4.444488e+01 2.839832e+01 1.841508e+01 1.448091e+01 1.091603e+01 6.130334e+00 
-2.155347e-12 -9.893200e+00 -1.741681e+01 -2.200969e+01 -2.547944e+01 -3.395845e+01 -5.707703e+01 1.993886e+01 8.700766e+01 -1.558097e+01 -1.901827e+01 6.491796e+00 6.684953e+00 2.503101e+00 -2.267924e-01 -1.013755e+00 -3.992684e-13 1.013755e+00 2.267924e-01 -2.503101e+00 -6.684953e+00 -6.491796e+00 1.901827e+01 1.558097e+01 -8.700766e+01 -1.993886e+01 5.707703e+01 3.395845e+01 2.547944e+01 2.200969e+01 1.741681e+01 9.893200e+00 
-2.174130e-12 -1.120057e+01 -1.947927e+01 -2.339325e+01 -2.520829e+01 -2.690027e+01 -3.644877e+01 -2.681250e+01 9.143887e+01 3.449514e+01 -3.020944e+01 -3.302831e+00 -6.150881e-01 -1.567511e+00 -2.881658e+00 -2.985693e+00 -2.477279e-12 2.985693e+00 2.881658e+00 1.567511e+00 6.150881e-01 3.302831e+00 3.020944e+01 -3.449514e+01 -9.143887e+01 2.681250e+01 3.644877e+01 2.690027e+01 2.520829e+01 2.339325e+01 1.947927e+01 1.120057e+01 
-2.312657e-12 -1.089628e+01 -1.878902e+01 -2.189096e+01 -2.199853e+01 -2.029243e+01 -1.355371e+01 -1.950248e+01 4.648103e+01 7.444229e+01 -2.219241e+00 9.212607e-01 -8.814041e+00 -1.983838e+01 -1.147580e+01 -8.437355e+00 -9.300582e-12 8.437355e+00 1.147580e+01 1.983838e+01 8.814041e+00 -9.212607e-01 2.219241e+00 -7.444229e+01 -4.648103e+01 1.950248e+01 1.355371e+01 2.029243e+01 2.199853e+01 2.189096e+01 1.878902e+01 1.089628e+01 
-2.272809e-12 -9.848178e+00 -1.692711e+01 -1.956711e+01 -1.885828e+01 -1.682273e+01 -1.374719e+01 -1.291961e+01 2.029760e+00 6.580212e+01 3.309971e+01 1.778247e+01 2.307672e+01 -5.412470e+00 -1.843409e+01 -2.187109e+01 -1.994119e-11 2.187109e+01 1.843409e+01 5.412470e+00 -2.307672e+01 -1.778247e+01 -3.309971e+01 -6.580212e+01 -2.029760e+00 1.291961e+01 1.374719e+01 1.682273e+01 1.885828e+01 1.956711e+01 1.692711e+01 9.848178e+00 
-2.122671e-12 -8.493902e+00 -1.458858e+01 -1.692119e+01 -1.614429e+01 -1.365017e+01 -9.969048e+00 -8.125130e+00 -7.573756e+00 2.255612e+01 3.037920e+01 -8.224811e+00 1.629723e+01 3.401667e+01 3.573035e+01 2.091772e+01 -1.334732e-11 -2.091772e+01 -3.573035e+01 -3.401667e+01 -1.629723e+01 8.224811e+00 -3.037920e+01 -2.255612e+01 7.573756e+00 8.125130e+00 9.969048e+00 1.365017e+01 1.614429e+01 1.692119e+01 1.458858e+01 8.493902e+00 
-1.882223e-12 -7.018478e+00 -1.198792e+01 -1.395252e+01 -1.314693e+01 -1.095979e+01 -7.883720e+00 -4.676975e+00 -1.036966e-01 8.092172e+00 3.686719e+01 6.648911e+00 -2.172842e+01 -2.062537e+01 2.451444e+00 1.672809e+01 9.690209e-12 -1.672809e+01 -2.451444e+00 2.062537e+01 2.172842e+01 -6.648911e+00 -3.686719e+01 -8.092172e+00 1.036966e-01 4.676975e+00 7.883720e+00 1.095979e+01 1.314693e+01 1.395252e+01 1.198792e+01 7.018478e+00 
-1.649730e-12 -5.506976e+00 -9.316325e+00 -1.077326e+01 -9.968580e+00 -8.007414e+00 -5.357238e+00 -2.658346e+00 8.260310e-02 5.269642e+00 2.797953e+01 4.626213e+01 1.361072e+01 -1.945505e+01 -3.795046e+01 -2.704973e+01 3.763914e-11 2.704973e+01 3.795046e+01 1.945505e+01 -1.361072e+01 -4.626213e+01 -2.797953e+01 -5.269642e+00 -8.260310e-02 2.658346e+00 5.357238e+00 8.007414e+00 9.968580e+00 1.077326e+01 9.316325e+00 5.506976e+00 
-1.415238e-12 -4.033539e+00 -6.724947e+00 -7.646523e+00 -6.844316e+00 -5.130356e+00 -2.881925e+00 -4.532549e-01 2.092871e+00 4.707918e+00 9.403042e+00 2.690276e+01 2.520086e+01 2.871755e+01 2.151470e+01 6.606263e+00 4.627016e-12 -6.606263e+00 -2.151470e+01 -2.871755e+01 -2.520086e+01 -2.690276e+01 -9.403042e+00 -4.707918e+00 -2.092871e+00 4.532549e-01 2.881925e+00 5.130356e+00 6.844316e+00 7.646523e+00 6.724947e+00 4.033539e+00 
-1.141727e-12 -2.713743e+00 -4.441125e+00 -4.899844e+00 -4.121510e+00 -2.622956e+00 -6.071005e-01 1.808143e+00 4.548425e+00 7.147988e+00 1.011708e+01 1.437678e+01 1.732544e+01 2.219473e+01 2.668712e+01 1.800717e+01 -1.758798e-11 -1.800717e+01 -2.668712e+01 -2.219473e+01 -1.732544e+01 -1.437678e+01 -1.011708e+01 -7.147988e+00 -4.548425e+00 -1.808143e+00 6.071005e-01 2.622956e+00 4.121510e+00 4.899844e+00 4.441125e+00 2.713743e+00 
-7.918479e-13 -1.650202e+00 -2.630585e+00 -2.747805e+00 -2.001629e+00 -6.344556e-01 1.307114e+00 3.856538e+00 6.861163e+00 1.001394e+01 1.320876e+01 1.571961e+01 1.875880e+01 2.333498e+01 2.816625e+01 2.034185e+01 -1.938903e-11 -2.034185e+01 -2.816625e+01 -2.333498e+01 -1.875880e+01 -1.571961e+01 -1.320876e+01 -1.001394e+01 -6.861163e+00 -3.856538e+00 -1.307114e+00 6.344556e-01 2.001629e+00 2.747805e+00 2.630585e+00 1.650202e+00 
-5.066183e-13 -8.910786e-01 -1.359024e+00 -1.259986e+00 -5.355670e-01 7.792954e-01 2.757555e+00 5.464827e+00 8.719482e+00 1.218637e+01 1.556291e+01 1.842409e+01 2.152297e+01 2.547298e+01 2.847775e+01 2.110623e+01 -1.585840e-11 -2.110623e+01 -2.847775e+01 -2.547298e+01 -2.152297e+01 -1.842409e+01 -1.556291e+01 -1.218637e+01 -8.719482e+00 -5.464827e+00 -2.757555e+00 -7.792954e-01 5.355670e-01 1.259986e+00 1.359024e+00 8.910786e-01 
-2.678333e-13 -4.181365e-01 -5.804711e-01 -3.674107e-01 3.255111e-01 1.585792e+00 3.518801e+00 6.187695e+00 9.386586e+00 1.284789e+01 1.622270e+01 1.911951e+01 2.172026e+01 2.410956e+01 2.497170e+01 1.841363e+01 -9.802674e-12 -1.841363e+01 -2.497170e+01 -2.410956e+01 -2.172026e+01 -1.911951e+01 -1.622270e+01 -1.284789e+01 -9.386586e+00 -6.187695e+00 -3.518801e+00 -1.585792e+00 -3.255111e-01 3.674107e-01 5.804711e-01 4.181365e-01 
-1.435759e-13 -1.602595e-01 -1.721328e-01 6.007158e-02 6.490475e-01 1.707800e+00 3.325749e+00 5.535404e+00 8.173881e+00 1.103894e+01 1.379699e+01 1.611807e+01 1.785884e+01 1.887237e+01 1.836418e+01 1.317178e+01 -4.430391e-12 -1.317178e+01 -1.836418e+01 -1.887237e+01 -1.785884e+01 -1.611807e+01 -1.379699e+01 -1.103894e+01 -8.173881e+00 -5.535404e+00 -3.325749e+00 -1.707800e+00 -6.490475e-01 -6.007158e-02 1.721328e-01 1.602595e-01 
-7.273718e-14 -4.599202e-02 -2.140924e-02 1.298373e-01 4.795381e-01 1.100956e+00 2.040982e+00 3.314463e+00 4.832274e+00 6.486711e+00 8.069948e+00 9.355993e+00 1.017701e+01 1.038517e+01 9.653225e+00 6.693372e+00 -1.499795e-12 -6.693372e+00 -9.653225e+00 -1.038517e+01 -1.017701e+01 -9.355993e+00 -8.069948e+00 -6.486711e+00 -4.832274e+00 -3.314463e+00 -2.040982e+00 -1.100956e+00 -4.795381e-01 -1.298373e-01 2.140924e-02 4.599202e-02 
