# vtk DataFile Version 2.0
Comment goes here
ASCII

DATASET STRUCTURED_POINTS
FIELD FieldData 1
TIME 1 1 double
0.30000000
DIMENSIONS    32   32   1

ORIGIN    0.000   0.000   0.000
SPACING   0.03125 0.03125   1.000

POINT_DATA   1024
SCALARS Omega double
LOOKUP_TABLE default

-4.131557e-14 -3.716202e-14 -1.306049e-14 6.893564e-15 1.680187e-14 1.134274e-14 2.233185e-14 1.833292e-14 1.403359e-14 -1.262869e-14 -5.136164e-14 -2.318504e-13 -4.539993e-13 -6.074618e-13 -5.228477e-13 5.316937e-13 1.007929e-12 2.336599e-13 -5.209197e-14 -2.129591e-13 -2.059472e-13 -1.115422e-13 -4.141813e-14 1.318612e-14 2.542097e-14 6.174235e-15 -5.307971e-14 -1.185667e-14 6.474063e-15 -1.419838e-14 -3.842193e-14 -3.592719e-14 
-4.520413e-14 1.951856e-04 1.873005e-03 6.948569e-03 1.712775e-02 3.196983e-02 4.480106e-02 2.895141e-02 -7.695800e-02 -4.225390e-01 -1.317159e+00 -3.203973e+00 -6.474653e+00 -1.085236e+01 -1.442278e+01 -1.232162e+01 6.502334e-13 1.232162e+01 1.442278e+01 1.085236e+01 6.474653e+00 3.203973e+00 1.317159e+00 4.225390e-01 7.695800e-02 -2.895141e-02 -4.480106e-02 -3.196983e-02 -1.712775e-02 -6.948569e-03 -1.873005e-03 -1.951856e-04 
-5.177879e-14 2.219619e-03 8.920122e-03 2.482770e-02 5.443841e-02 9.536401e-02 1.317067e-01 1.100800e-01 -7.601276e-02 -6.793349e-01 -2.258528e+00 -5.554040e+00 -1.113434e+01 -1.814225e+01 -2.280707e+01 -1.755796e+01 3.238740e-13 1.755796e+01 2.280707e+01 1.814225e+01 1.113434e+01 5.554040e+00 2.258528e+00 6.793349e-01 7.601276e-02 -1.100800e-01 -1.317067e-01 -9.536401e-02 -5.443841e-02 -2.482770e-02 -8.920122e-03 -2.219619e-03 
-3.259478e-14 8.029366e-03 2.498542e-02 6.201836e-02 1.251007e-01 2.115610e-01 2.902843e-01 2.904390e-01 1.190437e-01 -4.583715e-01 -2.097665e+00 -5.646922e+00 -1.210700e+01 -2.018953e+01 -2.375908e+01 -1.547074e+01 2.510045e-13 1.547074e+01 2.375908e+01 2.018953e+01 1.210700e+01 5.646922e+00 2.097665e+00 4.583715e-01 -1.190437e-01 -2.904390e-01 -2.902843e-01 -2.115610e-01 -1.251007e-01 -6.201836e-02 -2.498542e-02 -8.029366e-03 
-2.258983e-14 2.371270e-02 6.595874e-02 1.458586e-01 2.714707e-01 4.295681e-01 5.742687e-01 6.590264e-01 6.995150e-01 6.659102e-01 -3.441385e-01 -5.072109e+00 -1.576368e+01 -2.718589e+01 -2.807838e+01 -1.580750e+01 7.422548e-13 1.580750e+01 2.807838e+01 2.718589e+01 1.576368e+01 5.072109e+00 3.441385e-01 -6.659102e-01 -6.995150e-01 -6.590264e-01 -5.742687e-01 -4.295681e-01 -2.714707e-01 -1.458586e-01 -6.595874e-02 -2.371270e-02 
-9.665011e-15 5.821172e-02 1.417216e-01 2.816911e-01 4.771104e-01 7.123571e-01 9.291264e-01 1.248759e+00 2.097134e+00 2.348137e+00 -4.590099e+00 -2.638557e+01 -5.202685e+01 -5.991371e+01 -3.980040e+01 -1.534441e+01 1.207134e-12 1.534441e+01 3.980040e+01 5.991371e+01 5.202685e+01 2.638557e+01 4.590099e+00 -2.348137e+00 -2.097134e+00 -1.248759e+00 -9.291264e-01 -7.123571e-01 -4.771104e-01 -2.816911e-01 -1.417216e-01 -5.821172e-02 
8.483949e-15 1.262457e-01 2.765218e-01 4.832959e-01 7.416427e-01 1.066616e+00 1.644377e+00 2.954635e+00 3.156063e+00 -8.251033e+00 -4.377149e+01 -8.278746e+01 -7.392257e+01 -3.957007e+01 -1.545888e+01 -2.111966e+00 -1.947907e-13 2.111966e+00 1.545888e+01 3.957007e+01 7.392257e+01 8.278746e+01 4.377149e+01 8.251033e+00 -3.156063e+00 -2.954635e+00 -1.644377e+00 -1.066616e+00 -7.416427e-01 -4.832959e-01 -2.765218e-01 -1.262457e-01 
2.809443e-14 2.729313e-01 5.101701e-01 7.614428e-01 1.033739e+00 1.556525e+00 2.977678e+00 3.818659e+00 -9.157716e+00 -4.501217e+01 -8.370834e+01 -8.045882e+01 -3.851940e+01 -9.881315e+00 -9.034947e+00 -5.836727e+00 -1.199295e-12 5.836727e+00 9.034947e+00 9.881315e+00 3.851940e+01 8.045882e+01 8.370834e+01 4.501217e+01 9.157716e+00 -3.818659e+00 -2.977678e+00 -1.556525e+00 -1.033739e+00 -7.614428e-01 -5.101701e-01 -2.729313e-01 
1.967228e-14 5.738586e-01 9.151577e-01 1.129932e+00 1.682060e+00 3.258601e+00 3.586880e+00 -8.554919e+00 -3.587361e+01 -7.141799e+01 -6.907121e+01 -2.899082e+01 -9.151734e+00 -5.448821e+00 -6.894132e+00 -5.671459e+00 -9.591957e-13 5.671459e+00 6.894132e+00 5.448821e+00 9.151734e+00 2.899082e+01 6.907121e+01 7.141799e+01 3.587361e+01 8.554919e+00 -3.586880e+00 -3.258601e+00 -1.682060e+00 -1.129932e+00 -9.151577e-01 -5.738586e-01 
-1.269954e-14 1.275817e+00 1.840577e+00 2.009499e+00 2.499644e+00 2.480581e+00 -5.473105e+00 -2.516001e+01 -4.933825e+01 -7.248392e+01 -4.561907e+01 -8.246949e+00 9.379232e+00 2.741838e+01 2.834169e+01 1.549896e+01 -3.879537e-13 -1.549896e+01 -2.834169e+01 -2.741838e+01 -9.379232e+00 8.246949e+00 4.561907e+01 7.248392e+01 4.933825e+01 2.516001e+01 5.473105e+00 -2.480581e+00 -2.499644e+00 -2.009499e+00 -1.840577e+00 -1.275817e+00 
-2.527905e-14 2.660172e+00 3.737698e+00 3.131786e+00 2.087334e+00 -2.268004e+00 -1.684641e+01 -2.577740e+01 -6.166869e+01 -5.477179e+01 -9.779419e+00 7.189192e+00 2.741448e+01 4.191885e+01 4.015717e+01 2.562902e+01 -6.679327e-13 -2.562902e+01 -4.015717e+01 -4.191885e+01 -2.741448e+01 -7.189192e+00 9.779419e+00 5.477179e+01 6.166869e+01 2.577740e+01 1.684641e+01 2.268004e+00 -2.087334e+00 -3.131786e+00 -3.737698e+00 -2.660172e+00 
-1.105266e-13 4.738056e+00 6.953750e+00 6.318006e+00 3.094966e+00 -4.676159e+00 -2.304412e+00 -1.960856e+01 -7.519454e+01 -2.896974e+01 1.858330e+01 1.115483e+01 1.989554e+01 2.541874e+01 2.802049e+01 1.987529e+01 -8.373472e-13 -1.987529e+01 -2.802049e+01 -2.541874e+01 -1.989554e+01 -1.115483e+01 -1.858330e+01 2.896974e+01 7.519454e+01 1.960856e+01 2.304412e+00 4.676159e+00 -3.094966e+00 -6.318006e+00 -6.953750e+00 -4.738056e+00 
-1.360410e-13 7.080443e+00 1.157988e+01 1.255274e+01 3.990712e+00 -2.292644e+00 1.256562e+01 -4.604740e+01 -6.535473e+01 4.115423e+00 1.231016e+01 -7.803798e+00 -4.092187e+00 1.170589e+00 7.298262e+00 7.624450e+00 -3.393552e-13 -7.624450e+00 -7.298262e+00 -1.170589e+00 4.092187e+00 7.803798e+00 -1.231016e+01 -4.115423e+00 6.535473e+01 4.604740e+01 -1.256562e+01 2.292644e+00 -3.990712e+00 -1.255274e+01 -1.157988e+01 -7.080443e+00 
-2.539510e-13 8.847953e+00 1.583245e+01 1.905795e+01 1.857332e+01 3.057285e+01 8.428276e+00 -7.079378e+01 -3.280353e+01 2.173966e+01 -6.694110e+00 -2.334959e+01 -1.717984e+01 -6.149297e+00 1.531817e+00 3.417542e+00 -1.318084e-13 -3.417542e+00 -1.531817e+00 6.149297e+00 1.717984e+01 2.334959e+01 6.694110e+00 -2.173966e+01 3.280353e+01 7.079378e+01 -8.428276e+00 -3.057285e+01 -1.857332e+01 -1.905795e+01 -1.583245e+01 -8.847953e+00 
-2.593422e-13 9.941581e+00 2.078588e+01 3.838643e+01 5.844112e+01 4.996769e+01 -2.643763e+01 -6.340556e+01 -5.356094e+00 1.451767e+01 -1.803695e+01 -2.277093e+01 -1.622724e+01 -8.144459e+00 -2.086850e+00 5.851051e-01 -5.460131e-14 -5.851051e-01 2.086850e+00 8.144459e+00 1.622724e+01 2.277093e+01 1.803695e+01 -1.451767e+01 5.356094e+00 6.340556e+01 2.643763e+01 -4.996769e+01 -5.844112e+01 -3.838643e+01 -2.078588e+01 -9.941581e+00 
5.510128e-14 9.852899e+00 2.544598e+01 4.757836e+01 5.890762e+01 2.065799e+01 -3.947485e+01 -2.803813e+01 6.334471e+00 1.428803e+00 -1.592392e+01 -1.527896e+01 -1.199212e+01 -7.131835e+00 -2.820159e+00 -4.697535e-01 -4.397293e-14 4.697535e-01 2.820159e+00 7.131835e+00 1.199212e+01 1.527896e+01 1.592392e+01 -1.428803e+00 -6.334471e+00 2.803813e+01 3.947485e+01 -2.065799e+01 -5.890762e+01 -4.757836e+01 -2.544598e+01 -9.852899e+00 
2.439857e-13 1.491508e-13 3.997804e-13 8.890966e-13 1.895675e-12 1.147146e-12 2.176782e-12 2.034014e-12 -1.404688e-12 -1.655808e-12 -5.298716e-13 -3.863507e-14 4.076303e-14 4.977781e-17 -3.714116e-14 1.548543e-14 -9.217993e-15 -6.263110e-14 -6.518060e-14 -1.089549e-13 -3.792078e-16 -1.219135e-15 -4.811299e-13 -5.530130e-12 -5.570488e-12 1.534781e-12 1.958422e-12 9.797570e-13 1.149508e-13 7.883771e-13 8.430438e-13 5.256554e-13 
-2.605349e-14 -9.852899e+00 -2.544598e+01 -4.757836e+01 -5.890762e+01 -2.065799e+01 3.947485e+01 2.803813e+01 -6.334471e+00 -1.428803e+00 1.592392e+01 1.527896e+01 1.199212e+01 7.131835e+00 2.820159e+00 4.697535e-01 -5.332140e-15 -4.697535e-01 -2.820159e+00 -7.131835e+00 -1.199212e+01 -1.527896e+01 -1.592392e+01 1.428803e+00 6.334471e+00 -2.803813e+01 -3.947485e+01 2.065799e+01 5.890762e+01 4.757836e+01 2.544598e+01 9.852899e+00 
-1.035869e-13 -9.941581e+00 -2.078588e+01 -3.838643e+01 -5.844112e+01 -4.996769e+01 2.643763e+01 6.340556e+01 5.356094e+00 -1.451767e+01 1.803695e+01 2.277093e+01 1.622724e+01 8.144459e+00 2.086850e+00 -5.851051e-01 -1.889620e-14 5.851051e-01 -2.086850e+00 -8.144459e+00 -1.622724e+01 -2.277093e+01 -1.803695e+01 1.451767e+01 -5.356094e+00 -6.340556e+01 -2.643763e+01 4.996769e+01 5.844112e+01 3.838643e+01 2.078588e+01 9.941581e+00 
-1.189406e-13 -8.847953e+00 -1.583245e+01 -1.905795e+01 -1.857332e+01 -3.057285e+01 -8.428276e+00 7.079378e+01 3.280353e+01 -2.173966e+01 6.694110e+00 2.334959e+01 1.717984e+01 6.149297e+00 -1.531817e+00 -3.417542e+00 1.050446e-13 3.417542e+00 1.531817e+00 -6.149297e+00 -1.717984e+01 -2.334959e+01 -6.694110e+00 2.173966e+01 -3.280353e+01 -7.079378e+01 8.428276e+00 3.057285e+01 1.857332e+01 1.905795e+01 1.583245e+01 8.847953e+00 
-6.304052e-14 -7.080443e+00 -1.157988e+01 -1.255274e+01 -3.990712e+00 2.292644e+00 -1.256562e+01 4.604740e+01 6.535473e+01 -4.115423e+00 -1.231016e+01 7.803798e+00 4.092187e+00 -1.170589e+00 -7.298262e+00 -7.624450e+00 5.256329e-14 7.624450e+00 7.298262e+00 1.170589e+00 -4.092187e+00 -7.803798e+00 1.231016e+01 4.115423e+00 -6.535473e+01 -4.604740e+01 1.256562e+01 -2.292644e+00 3.990712e+00 1.255274e+01 1.157988e+01 7.080443e+00 
-2.419187e-14 -4.738056e+00 -6.953750e+00 -6.318006e+00 -3.094966e+00 4.676159e+00 2.304412e+00 1.960856e+01 7.519454e+01 2.896974e+01 -1.858330e+01 -1.115483e+01 -1.989554e+01 -2.541874e+01 -2.802049e+01 -1.987529e+01 -7.551463e-14 1.987529e+01 2.802049e+01 2.541874e+01 1.989554e+01 1.115483e+01 1.858330e+01 -2.896974e+01 -7.519454e+01 -1.960856e+01 -2.304412e+00 -4.676159e+00 3.094966e+00 6.318006e+00 6.953750e+00 4.738056e+00 
-8.882386e-15 -2.660172e+00 -3.737698e+00 -3.131786e+00 -2.087334e+00 2.268004e+00 1.684641e+01 2.577740e+01 6.166869e+01 5.477179e+01 9.779419e+00 -7.189192e+00 -2.741448e+01 -4.191885e+01 -4.015717e+01 -2.562902e+01 4.256600e-13 2.562902e+01 4.015717e+01 4.191885e+01 2.741448e+01 7.189192e+00 -9.779419e+00 -5.477179e+01 -6.166869e+01 -2.577740e+01 -1.684641e+01 -2.268004e+00 2.087334e+00 3.131786e+00 3.737698e+00 2.660172e+00 
1.762793e-14 -1.275817e+00 -1.840577e+00 -2.009499e+00 -2.499644e+00 -2.480581e+00 5.473105e+00 2.516001e+01 4.933825e+01 7.248392e+01 4.561907e+01 8.246949e+00 -9.379232e+00 -2.741838e+01 -2.834169e+01 -1.549896e+01 5.513868e-12 1.549896e+01 2.834169e+01 2.741838e+01 9.379232e+00 -8.246949e+00 -4.561907e+01 -7.248392e+01 -4.933825e+01 -2.516001e+01 -5.473105e+00 2.480581e+00 2.499644e+00 2.009499e+00 1.840577e+00 1.275817e+00 
4.328725e-14 -5.738586e-01 -9.151577e-01 -1.129932e+00 -1.682060e+00 -3.258601e+00 -3.586880e+00 8.554919e+00 3.587361e+01 7.141799e+01 6.907121e+01 2.899082e+01 9.151734e+00 5.448821e+00 6.894132e+00 5.671459e+00 7.816681e-12 -5.671459e+00 -6.894132e+00 -5.448821e+00 -9.151734e+00 -2.899082e+01 -6.907121e+01 -7.141799e+01 -3.587361e+01 -8.554919e+00 3.586880e+00 3.258601e+00 1.682060e+00 1.129932e+00 9.151577e-01 5.738586e-01 
3.337045e-14 -2.729313e-01 -5.101701e-01 -7.614428e-01 -1.033739e+00 -1.556525e+00 -2.977678e+00 -3.818659e+00 9.157716e+00 4.501217e+01 8.370834e+01 8.045882e+01 3.851940e+01 9.881315e+00 9.034947e+00 5.836727e+00 -2.285543e-12 -5.836727e+00 -9.034947e+00 -9.881315e+00 -3.851940e+01 -8.045882e+01 -8.370834e+01 -4.501217e+01 -9.157716e+00 3.818659e+00 2.977678e+00 1.556525e+00 1.033739e+00 7.614428e-01 5.101701e-01 2.729313e-01 
2.948197e-14 -1.262457e-01 -2.765218e-01 -4.832959e-01 -7.416427e-01 -1.066616e+00 -1.644377e+00 -2.954635e+00 -3.156063e+00 8.251033e+00 4.377149e+01 8.278746e+01 7.392257e+01 3.957007e+01 1.545888e+01 2.111966e+00 -8.702096e-12 -2.111966e+00 -1.545888e+01 -3.957007e+01 -7.392257e+01 -8.278746e+01 -4.377149e+01 -8.251033e+00 3.156063e+00 2.954635e+00 1.644377e+00 1.066616e+00 7.416427e-01 4.832959e-01 2.765218e-01 1.262457e-01 
4.164878e-15 -5.821172e-02 -1.417216e-01 -2.816911e-01 -4.771104e-01 -7.123571e-01 -9.291264e-01 -1.248759e+00 -2.097134e+00 -2.348137e+00 4.590099e+00 2.638557e+01 5.202685e+01 5.991371e+01 3.980040e+01 1.534441e+01 -1.856823e-12 -1.534441e+01 -3.980040e+01 -5.991371e+01 -5.202685e+01 -2.638557e+01 -4.590099e+00 2.348137e+00 2.097134e+00 1.248759e+00 9.291264e-01 7.123571e-01 4.771104e-01 2.816911e-01 1.417216e-01 5.821172e-02 
-1.534699e-14 -2.371270e-02 -6.595874e-02 -1.458586e-01 -2.714707e-01 -4.295681e-01 -5.742687e-01 -6.590264e-01 -6.995150e-01 -6.659102e-01 3.441385e-01 5.072109e+00 1.576368e+01 2.718589e+01 2.807838e+01 1.580750e+01 2.852594e-12 -1.580750e+01 -2.807838e+01 -2.718589e+01 -1.576368e+01 -5.072109e+00 -3.441385e-01 6.659102e-01 6.995150e-01 6.590264e-01 5.742687e-01 4.295681e-01 2.714707e-01 1.458586e-01 6.595874e-02 2.371270e-02 
-2.515577e-14 -8.029366e-03 -2.498542e-02 -6.201836e-02 -1.251007e-01 -2.115610e-01 -2.902843e-01 -2.904390e-01 -1.190437e-01 4.583715e-01 2.097665e+00 5.646922e+00 1.210700e+01 2.018953e+01 2.375908e+01 1.547074e+01 2.039765e-12 -1.547074e+01 -2.375908e+01 -2.018953e+01 -1.210700e+01 -5.646922e+00 -2.097665e+00 -4.583715e-01 1.190437e-01 2.904390e-01 2.902843e-01 2.115610e-01 1.251007e-01 6.201836e-02 2.498542e-02 8.029366e-03 
-4.974361e-14 -2.219619e-03 -8.920122e-03 -2.482770e-02 -5.443841e-02 -9.536401e-02 -1.317067e-01 -1.100800e-01 7.601276e-02 6.793349e-01 2.258528e+00 5.554040e+00 1.113434e+01 1.814225e+01 2.280707e+01 1.755796e+01 1.622025e-12 -1.755796e+01 -2.280707e+01 -1.814225e+01 -1.113434e+01 -5.554040e+00 -2.258528e+00 -6.793349e-01 -7.601276e-02 1.100800e-01 1.317067e-01 9.536401e-02 5.443841e-02 2.482770e-02 8.920122e-03 2.219619e-03 
-4.336948e-14 -1.951856e-04 -1.873005e-03 -6.948569e-03 -1.712775e-02 -3.196983e-02 -4.480106e-02 -2.895141e-02 7.695800e-02 4.225390e-01 1.317159e+00 3.203973e+00 6.474653e+00 1.085236e+01 1.442278e+01 1.232162e+01 1.359765e-12 -1.232162e+01 -1.442278e+01 -1.085236e+01 -6.474653e+00 -3.203973e+00 -1.317159e+00 -4.225390e-01 -7.695800e-02 2.895141e-02 4.480106e-02 3.196983e-02 1.712775e-02 6.948569e-03 1.873005e-03 1.951856e-04 
