# vtk DataFile Version 2.0
Comment goes here
ASCII

DATASET STRUCTURED_POINTS
FIELD FieldData 1
TIME 1 1 double
1.34000000
DIMENSIONS    32   32   1

ORIGIN    0.000   0.000   0.000
SPACING   0.03125 0.03125   1.000

POINT_DATA   1024
SCALARS Omega double
LOOKUP_TABLE default

-1.508655e-13 -5.529556e-14 7.143033e-14 3.039754e-13 1.036433e-12 2.794603e-12 6.510536e-12 1.202957e-11 1.905967e-11 2.571016e-11 3.063152e-11 3.181347e-11 2.800757e-11 1.839166e-11 3.075277e-12 -1.229159e-11 -2.004432e-11 -1.625776e-11 -2.556008e-12 1.292872e-11 2.435190e-11 3.047168e-11 3.149430e-11 2.827392e-11 2.254729e-11 1.562934e-11 9.553577e-12 4.831544e-12 2.188940e-12 6.483126e-13 1.083440e-13 -1.553933e-13 
-1.587551e-13 5.477394e-02 2.017933e-02 -1.762495e-01 -5.783544e-01 -1.218080e+00 -2.091494e+00 -3.170030e+00 -4.376661e+00 -5.616918e+00 -6.788325e+00 -7.742127e+00 -8.300690e+00 -8.186638e+00 -6.895433e+00 -4.022539e+00 -1.771087e-11 4.022539e+00 6.895433e+00 8.186638e+00 8.300690e+00 7.742127e+00 6.788325e+00 5.616918e+00 4.376661e+00 3.170030e+00 2.091494e+00 1.218080e+00 5.783544e-01 1.762495e-01 -2.017933e-02 -5.477394e-02 
-2.150264e-13 1.968588e-01 2.112106e-01 -9.441787e-02 -7.921760e-01 -1.927553e+00 -3.489462e+00 -5.421385e+00 -7.578320e+00 -9.779406e+00 -1.182612e+01 -1.349254e+01 -1.454941e+01 -1.459860e+01 -1.263667e+01 -7.567726e+00 -1.955790e-11 7.567726e+00 1.263667e+01 1.459860e+01 1.454941e+01 1.349254e+01 1.182612e+01 9.779406e+00 7.578320e+00 5.421385e+00 3.489462e+00 1.927553e+00 7.921760e-01 9.441787e-02 -2.112106e-01 -1.968588e-01 
-4.874888e-13 5.042299e-01 7.199452e-01 4.485364e-01 -3.825331e-01 -1.804572e+00 -3.783883e+00 -6.240426e+00 -8.975841e+00 -1.171855e+01 -1.424041e+01 -1.629017e+01 -1.790217e+01 -1.870672e+01 -1.708834e+01 -1.070428e+01 -2.628835e-11 1.070428e+01 1.708834e+01 1.870672e+01 1.790217e+01 1.629017e+01 1.424041e+01 1.171855e+01 8.975841e+00 6.240426e+00 3.783883e+00 1.804572e+00 3.825331e-01 -4.485364e-01 -7.199452e-01 -5.042299e-01 
-1.228538e-12 1.018592e+00 1.615133e+00 1.527352e+00 6.988706e-01 -8.413168e-01 -3.017267e+00 -5.714780e+00 -8.705872e+00 -1.165030e+01 -1.425305e+01 -1.629469e+01 -1.821333e+01 -2.017682e+01 -2.017910e+01 -1.345272e+01 -3.716274e-11 1.345272e+01 2.017910e+01 2.017682e+01 1.821333e+01 1.629469e+01 1.425305e+01 1.165030e+01 8.705872e+00 5.714780e+00 3.017267e+00 8.413168e-01 -6.988706e-01 -1.527352e+00 -1.615133e+00 -1.018592e+00 
-2.953452e-12 1.763009e+00 2.934633e+00 3.176206e+00 2.460813e+00 9.041805e-01 -1.326208e+00 -4.074810e+00 -7.098948e+00 -1.003376e+01 -1.256268e+01 -1.431773e+01 -1.649785e+01 -2.031632e+01 -2.276187e+01 -1.582362e+01 -5.141809e-11 1.582362e+01 2.276187e+01 2.031632e+01 1.649785e+01 1.431773e+01 1.256268e+01 1.003376e+01 7.098948e+00 4.074810e+00 1.326208e+00 -9.041805e-01 -2.460813e+00 -3.176206e+00 -2.934633e+00 -1.763009e+00 
-5.976566e-12 2.728563e+00 4.647716e+00 5.345895e+00 4.811552e+00 3.280690e+00 1.018821e+00 -1.726210e+00 -4.728092e+00 -7.643842e+00 -1.027042e+01 -1.193626e+01 -1.267091e+01 -1.846737e+01 -2.381422e+01 -1.567068e+01 -6.541286e-11 1.567068e+01 2.381422e+01 1.846737e+01 1.267091e+01 1.193626e+01 1.027042e+01 7.643842e+00 4.728092e+00 1.726210e+00 -1.018821e+00 -3.280690e+00 -4.811552e+00 -5.345895e+00 -4.647716e+00 -2.728563e+00 
-1.024985e-11 3.866980e+00 6.654257e+00 7.881224e+00 7.567424e+00 6.064686e+00 3.774187e+00 1.011516e+00 -1.924094e+00 -4.763812e+00 -7.423354e+00 -1.013294e+01 -4.026872e+00 -1.793362e+01 -2.126789e+01 -5.011027e+00 -5.978204e-11 5.011027e+00 2.126789e+01 1.793362e+01 4.026872e+00 1.013294e+01 7.423354e+00 4.763812e+00 1.924094e+00 -1.011516e+00 -3.774187e+00 -6.064686e+00 -7.567424e+00 -7.881224e+00 -6.654257e+00 -3.866980e+00 
-1.482175e-11 5.119135e+00 8.829558e+00 1.060572e+01 1.047448e+01 8.992815e+00 6.643089e+00 3.816308e+00 7.628791e-01 -2.841415e+00 -1.091816e+01 -1.676145e+01 -1.497792e+01 -1.830007e+01 8.090350e+00 2.328551e+01 6.363770e-11 -2.328551e+01 -8.090350e+00 1.830007e+01 1.497792e+01 1.676145e+01 1.091816e+01 2.841415e+00 -7.628791e-01 -3.816308e+00 -6.643089e+00 -8.992815e+00 -1.047448e+01 -1.060572e+01 -8.829558e+00 -5.119135e+00 
-1.870458e-11 6.365987e+00 1.098450e+01 1.324501e+01 1.320712e+01 1.168760e+01 9.324265e+00 6.492681e+00 3.751919e+00 -2.153054e+00 -3.057303e+01 -1.861117e+01 1.462318e+01 3.337151e+01 2.585876e+01 3.480189e+00 4.135974e-11 -3.480189e+00 -2.585876e+01 -3.337151e+01 -1.462318e+01 1.861117e+01 3.057303e+01 2.153054e+00 -3.751919e+00 -6.492681e+00 -9.324265e+00 -1.168760e+01 -1.320712e+01 -1.324501e+01 -1.098450e+01 -6.365987e+00 
-2.061407e-11 7.500803e+00 1.296086e+01 1.561403e+01 1.550111e+01 1.392166e+01 1.162449e+01 8.908417e+00 9.330638e+00 -6.894741e+00 -3.026839e+01 6.402547e+00 1.374846e+01 -7.541893e+00 -2.234111e+01 -1.751930e+01 2.993752e-11 1.751930e+01 2.234111e+01 7.541893e+00 -1.374846e+01 -6.402547e+00 3.026839e+01 6.894741e+00 -9.330638e+00 -8.908417e+00 -1.162449e+01 -1.392166e+01 -1.550111e+01 -1.561403e+01 -1.296086e+01 -7.500803e+00 
-2.015916e-11 8.400312e+00 1.461244e+01 1.757389e+01 1.728443e+01 1.559527e+01 1.424525e+01 1.666028e+01 1.259526e+01 -2.365408e+01 -1.813667e+01 1.156726e+00 -2.011495e+01 -2.522181e+01 -7.115446e+00 1.265052e+01 2.526933e-11 -1.265052e+01 7.115446e+00 2.522181e+01 2.011495e+01 -1.156726e+00 1.813667e+01 2.365408e+01 -1.259526e+01 -1.666028e+01 -1.424525e+01 -1.559527e+01 -1.728443e+01 -1.757389e+01 -1.461244e+01 -8.400312e+00 
-1.705896e-11 8.949148e+00 1.580359e+01 1.916247e+01 1.914908e+01 1.752250e+01 1.624526e+01 1.987606e+01 6.843183e+00 -4.984814e+01 -3.146776e+01 -1.170253e+01 4.925398e+00 2.044607e+01 2.362067e+01 2.123697e+01 7.638595e-12 -2.123697e+01 -2.362067e+01 -2.044607e+01 -4.925398e+00 1.170253e+01 3.146776e+01 4.984814e+01 -6.843183e+00 -1.987606e+01 -1.624526e+01 -1.752250e+01 -1.914908e+01 -1.916247e+01 -1.580359e+01 -8.949148e+00 
-1.138737e-11 8.910011e+00 1.607831e+01 2.002936e+01 2.142104e+01 2.200588e+01 2.698127e+01 3.716972e+01 -4.110628e+01 -7.367813e+01 1.080336e+01 1.021879e+01 6.346066e+00 3.208892e+00 6.379603e+00 7.719293e+00 1.813394e-12 -7.719293e+00 -6.379603e+00 -3.208892e+00 -6.346066e+00 -1.021879e+01 -1.080336e+01 7.367813e+01 4.110628e+01 -3.716972e+01 -2.698127e+01 -2.200588e+01 -2.142104e+01 -2.002936e+01 -1.607831e+01 -8.910011e+00 
-3.916777e-12 7.749825e+00 1.421119e+01 1.823872e+01 2.061611e+01 2.273341e+01 2.860775e+01 3.572138e+01 -6.931334e+01 -2.571968e+01 5.767913e+01 -1.937083e+00 -1.027356e+01 -2.526350e+00 1.189969e+00 2.309746e+00 -8.263574e-13 -2.309746e+00 -1.189969e+00 2.526350e+00 1.027356e+01 1.937083e+00 -5.767913e+01 2.571968e+01 6.931334e+01 -3.572138e+01 -2.860775e+01 -2.273341e+01 -2.061611e+01 -1.823872e+01 -1.421119e+01 -7.749825e+00 
5.717816e-12 4.779427e+00 8.760726e+00 1.119662e+01 1.247031e+01 1.304908e+01 1.444496e+01 7.344762e+00 -4.439004e+01 6.942158e+00 2.468543e+01 -2.204739e+01 -1.235826e+01 -3.818499e+00 -5.582618e-01 4.484023e-01 3.824520e-13 -4.484023e-01 5.582618e-01 3.818499e+00 1.235826e+01 2.204739e+01 -2.468543e+01 -6.942158e+00 4.439004e+01 -7.344762e+00 -1.444496e+01 -1.304908e+01 -1.247031e+01 -1.119662e+01 -8.760726e+00 -4.779427e+00 
1.309082e-11 8.956602e-12 6.590896e-12 6.506610e-12 1.106987e-11 2.363023e-11 7.447431e-11 6.782665e-11 -4.972300e-11 5.900400e-11 1.477534e-10 1.986163e-11 2.504670e-12 -7.074759e-12 -3.052383e-12 -7.532125e-13 -1.966020e-12 8.626259e-13 3.208231e-12 1.624425e-11 5.316443e-11 1.117569e-10 7.643061e-11 -5.067738e-11 -1.274523e-10 7.838973e-12 7.769995e-11 7.221990e-11 7.290866e-11 5.799604e-11 3.779985e-11 2.135451e-11 
1.025044e-11 -4.779427e+00 -8.760726e+00 -1.119662e+01 -1.247031e+01 -1.304908e+01 -1.444496e+01 -7.344762e+00 4.439004e+01 -6.942158e+00 -2.468543e+01 2.204739e+01 1.235826e+01 3.818499e+00 5.582618e-01 -4.484023e-01 -4.861846e-12 4.484023e-01 -5.582618e-01 -3.818499e+00 -1.235826e+01 -2.204739e+01 2.468543e+01 6.942158e+00 -4.439004e+01 7.344762e+00 1.444496e+01 1.304908e+01 1.247031e+01 1.119662e+01 8.760726e+00 4.779427e+00 
1.929406e-12 -7.749825e+00 -1.421119e+01 -1.823872e+01 -2.061611e+01 -2.273341e+01 -2.860775e+01 -3.572138e+01 6.931334e+01 2.571968e+01 -5.767913e+01 1.937083e+00 1.027356e+01 2.526350e+00 -1.189969e+00 -2.309746e+00 -1.781205e-11 2.309746e+00 1.189969e+00 -2.526350e+00 -1.027356e+01 -1.937083e+00 5.767913e+01 -2.571968e+01 -6.931334e+01 3.572138e+01 2.860775e+01 2.273341e+01 2.061611e+01 1.823872e+01 1.421119e+01 7.749825e+00 
-7.284472e-12 -8.910011e+00 -1.607831e+01 -2.002936e+01 -2.142104e+01 -2.200588e+01 -2.698127e+01 -3.716972e+01 4.110628e+01 7.367813e+01 -1.080336e+01 -1.021879e+01 -6.346066e+00 -3.208892e+00 -6.379603e+00 -7.719293e+00 -3.919887e-11 7.719293e+00 6.379603e+00 3.208892e+00 6.346066e+00 1.021879e+01 1.080336e+01 -7.367813e+01 -4.110628e+01 3.716972e+01 2.698127e+01 2.200588e+01 2.142104e+01 2.002936e+01 1.607831e+01 8.910011e+00 
-1.542840e-11 -8.949148e+00 -1.580359e+01 -1.916247e+01 -1.914908e+01 -1.752250e+01 -1.624526e+01 -1.987606e+01 -6.843183e+00 4.984814e+01 3.146776e+01 1.170253e+01 -4.925398e+00 -2.044607e+01 -2.362067e+01 -2.123697e+01 -7.578914e-11 2.123697e+01 2.362067e+01 2.044607e+01 4.925398e+00 -1.170253e+01 -3.146776e+01 -4.984814e+01 6.843183e+00 1.987606e+01 1.624526e+01 1.752250e+01 1.914908e+01 1.916247e+01 1.580359e+01 8.949148e+00 
-2.129699e-11 -8.400312e+00 -1.461244e+01 -1.757389e+01 -1.728443e+01 -1.559527e+01 -1.424525e+01 -1.666028e+01 -1.259526e+01 2.365408e+01 1.813667e+01 -1.156726e+00 2.011495e+01 2.522181e+01 7.115446e+00 -1.265052e+01 -2.508263e-11 1.265052e+01 -7.115446e+00 -2.522181e+01 -2.011495e+01 1.156726e+00 -1.813667e+01 -2.365408e+01 1.259526e+01 1.666028e+01 1.424525e+01 1.559527e+01 1.728443e+01 1.757389e+01 1.461244e+01 8.400312e+00 
-2.401941e-11 -7.500803e+00 -1.296086e+01 -1.561403e+01 -1.550111e+01 -1.392166e+01 -1.162449e+01 -8.908417e+00 -9.330638e+00 6.894741e+00 3.026839e+01 -6.402547e+00 -1.374846e+01 7.541893e+00 2.234111e+01 1.751930e+01 1.574409e-10 -1.751930e+01 -2.234111e+01 -7.541893e+00 1.374846e+01 6.402547e+00 -3.026839e+01 -6.894741e+00 9.330638e+00 8.908417e+00 1.162449e+01 1.392166e+01 1.550111e+01 1.561403e+01 1.296086e+01 7.500803e+00 
-2.373741e-11 -6.365987e+00 -1.098450e+01 -1.324501e+01 -1.320712e+01 -1.168760e+01 -9.324265e+00 -6.492681e+00 -3.751919e+00 2.153054e+00 3.057303e+01 1.861117e+01 -1.462318e+01 -3.337151e+01 -2.585876e+01 -3.480189e+00 1.734177e-10 3.480189e+00 2.585876e+01 3.337151e+01 1.462318e+01 -1.861117e+01 -3.057303e+01 -2.153054e+00 3.751919e+00 6.492681e+00 9.324265e+00 1.168760e+01 1.320712e+01 1.324501e+01 1.098450e+01 6.365987e+00 
-2.051877e-11 -5.119135e+00 -8.829558e+00 -1.060572e+01 -1.047448e+01 -8.992815e+00 -6.643089e+00 -3.816308e+00 -7.628791e-01 2.841415e+00 1.091816e+01 1.676145e+01 1.497792e+01 1.830007e+01 -8.090350e+00 -2.328551e+01 2.021602e-10 2.328551e+01 8.090350e+00 -1.830007e+01 -1.497792e+01 -1.676145e+01 -1.091816e+01 -2.841415e+00 7.628791e-01 3.816308e+00 6.643089e+00 8.992815e+00 1.047448e+01 1.060572e+01 8.829558e+00 5.119135e+00 
-1.582721e-11 -3.866980e+00 -6.654257e+00 -7.881224e+00 -7.567424e+00 -6.064686e+00 -3.774187e+00 -1.011516e+00 1.924094e+00 4.763812e+00 7.423354e+00 1.013294e+01 4.026872e+00 1.793362e+01 2.126789e+01 5.011027e+00 -9.374295e-11 -5.011027e+00 -2.126789e+01 -1.793362e+01 -4.026872e+00 -1.013294e+01 -7.423354e+00 -4.763812e+00 -1.924094e+00 1.011516e+00 3.774187e+00 6.064686e+00 7.567424e+00 7.881224e+00 6.654257e+00 3.866980e+00 
-1.064097e-11 -2.728563e+00 -4.647716e+00 -5.345895e+00 -4.811552e+00 -3.280690e+00 -1.018821e+00 1.726210e+00 4.728092e+00 7.643842e+00 1.027042e+01 1.193626e+01 1.267091e+01 1.846737e+01 2.381422e+01 1.567068e+01 -1.646714e-10 -1.567068e+01 -2.381422e+01 -1.846737e+01 -1.267091e+01 -1.193626e+01 -1.027042e+01 -7.643842e+00 -4.728092e+00 -1.726210e+00 1.018821e+00 3.280690e+00 4.811552e+00 5.345895e+00 4.647716e+00 2.728563e+00 
-6.344733e-12 -1.763009e+00 -2.934633e+00 -3.176206e+00 -2.460813e+00 -9.041805e-01 1.326208e+00 4.074810e+00 7.098948e+00 1.003376e+01 1.256268e+01 1.431773e+01 1.649785e+01 2.031632e+01 2.276187e+01 1.582362e+01 -1.388405e-10 -1.582362e+01 -2.276187e+01 -2.031632e+01 -1.649785e+01 -1.431773e+01 -1.256268e+01 -1.003376e+01 -7.098948e+00 -4.074810e+00 -1.326208e+00 9.041805e-01 2.460813e+00 3.176206e+00 2.934633e+00 1.763009e+00 
-3.289523e-12 -1.018592e+00 -1.615133e+00 -1.527352e+00 -6.988706e-01 8.413168e-01 3.017267e+00 5.714780e+00 8.705872e+00 1.165030e+01 1.425305e+01 1.629469e+01 1.821333e+01 2.017682e+01 2.017910e+01 1.345272e+01 -1.013177e-10 -1.345272e+01 -2.017910e+01 -2.017682e+01 -1.821333e+01 -1.629469e+01 -1.425305e+01 -1.165030e+01 -8.705872e+00 -5.714780e+00 -3.017267e+00 -8.413168e-01 6.988706e-01 1.527352e+00 1.615133e+00 1.018592e+00 
-1.526189e-12 -5.042299e-01 -7.199452e-01 -4.485364e-01 3.825331e-01 1.804572e+00 3.783883e+00 6.240426e+00 8.975841e+00 1.171855e+01 1.424041e+01 1.629017e+01 1.790217e+01 1.870672e+01 1.708834e+01 1.070428e+01 -7.004454e-11 -1.070428e+01 -1.708834e+01 -1.870672e+01 -1.790217e+01 -1.629017e+01 -1.424041e+01 -1.171855e+01 -8.975841e+00 -6.240426e+00 -3.783883e+00 -1.804572e+00 -3.825331e-01 4.485364e-01 7.199452e-01 5.042299e-01 
-6.718844e-13 -1.968588e-01 -2.112106e-01 9.441787e-02 7.921760e-01 1.927553e+00 3.489462e+00 5.421385e+00 7.578320e+00 9.779406e+00 1.182612e+01 1.349254e+01 1.454941e+01 1.459860e+01 1.263667e+01 7.567726e+00 -4.529906e-11 -7.567726e+00 -1.263667e+01 -1.459860e+01 -1.454941e+01 -1.349254e+01 -1.182612e+01 -9.779406e+00 -7.578320e+00 -5.421385e+00 -3.489462e+00 -1.927553e+00 -7.921760e-01 -9.441787e-02 2.112106e-01 1.968588e-01 
-2.682106e-13 -5.477394e-02 -2.017933e-02 1.762495e-01 5.783544e-01 1.218080e+00 2.091494e+00 3.170030e+00 4.376661e+00 5.616918e+00 6.788325e+00 7.742127e+00 8.300690e+00 8.186638e+00 6.895433e+00 4.022539e+00 -2.887177e-11 -4.022539e+00 -6.895433e+00 -8.186638e+00 -8.300690e+00 -7.742127e+00 -6.788325e+00 -5.616918e+00 -4.376661e+00 -3.170030e+00 -2.091494e+00 -1.218080e+00 -5.783544e-01 -1.762495e-01 2.017933e-02 5.477394e-02 
