# vtk DataFile Version 2.0
Comment goes here
ASCII

DATASET STRUCTURED_POINTS
FIELD FieldData 1
TIME 1 1 double
0.32000000
DIMENSIONS    32   32   1

ORIGIN    0.000   0.000   0.000
SPACING   0.03125 0.03125   1.000

POINT_DATA   1024
SCALARS Omega double
LOOKUP_TABLE default

-2.528285e-14 -1.756449e-14 -1.444681e-14 -3.432373e-15 2.704642e-15 -1.805852e-15 1.612433e-14 2.504113e-15 -3.254197e-14 -6.019300e-14 -2.011709e-13 -4.260317e-13 -6.035727e-13 -6.465523e-13 -3.781519e-13 7.258198e-13 1.114277e-12 2.573492e-13 -2.948528e-14 -2.109695e-13 -2.703010e-13 -1.995486e-13 -1.048435e-13 -3.322139e-14 -1.757493e-14 4.234508e-15 -7.476064e-15 1.028708e-15 1.748215e-14 7.894702e-15 -1.187185e-14 -2.123681e-14 
-2.698219e-14 9.879008e-04 3.804532e-03 1.050653e-02 2.184923e-02 3.313668e-02 2.694538e-02 -5.435330e-02 -3.377754e-01 -1.094820e+00 -2.709804e+00 -5.498604e+00 -9.312284e+00 -1.301384e+01 -1.419533e+01 -9.879333e+00 8.184825e-13 9.879333e+00 1.419533e+01 1.301384e+01 9.312284e+00 5.498604e+00 2.709804e+00 1.094820e+00 3.377754e-01 5.435330e-02 -2.694538e-02 -3.313668e-02 -2.184923e-02 -1.050653e-02 -3.804532e-03 -9.879008e-04 
-3.362653e-14 4.112874e-03 1.321539e-02 3.228463e-02 6.337683e-02 9.561925e-02 9.592246e-02 -4.104227e-02 -5.316291e-01 -1.837135e+00 -4.595012e+00 -9.259106e+00 -1.562882e+01 -2.189462e+01 -2.308783e+01 -1.476404e+01 1.085248e-12 1.476404e+01 2.308783e+01 2.189462e+01 1.562882e+01 9.259106e+00 4.595012e+00 1.837135e+00 5.316291e-01 4.104227e-02 -9.592246e-02 -9.561925e-02 -6.337683e-02 -3.228463e-02 -1.321539e-02 -4.112874e-03 
-3.078053e-14 1.133083e-02 3.201417e-02 7.239530e-02 1.339444e-01 2.024909e-01 2.300093e-01 9.810077e-02 -4.191041e-01 -1.828124e+00 -4.951629e+00 -1.102145e+01 -2.150179e+01 -3.229456e+01 -3.333744e+01 -2.127226e+01 3.254827e-12 2.127226e+01 3.333744e+01 3.229456e+01 2.150179e+01 1.102145e+01 4.951629e+00 1.828124e+00 4.191041e-01 -9.810077e-02 -2.300093e-01 -2.024909e-01 -1.339444e-01 -7.239530e-02 -3.201417e-02 -1.133083e-02 
-2.173148e-14 2.793952e-02 7.308710e-02 1.535623e-01 2.697185e-01 4.007163e-01 4.998618e-01 4.795229e-01 1.798909e-01 -1.076396e+00 -5.657510e+00 -1.881025e+01 -4.102764e+01 -4.873423e+01 -2.841013e+01 -8.192715e+00 3.310841e-12 8.192715e+00 2.841013e+01 4.873423e+01 4.102764e+01 1.881025e+01 5.657510e+00 1.076396e+00 -1.798909e-01 -4.795229e-01 -4.998618e-01 -4.007163e-01 -2.697185e-01 -1.535623e-01 -7.308710e-02 -2.793952e-02 
-2.781105e-14 6.257607e-02 1.466942e-01 2.801933e-01 4.552301e-01 6.577725e-01 8.559525e-01 1.073833e+00 9.543754e-01 -2.538758e+00 -1.639248e+01 -3.729277e+01 -2.832350e+01 2.335505e+01 5.055708e+01 2.524507e+01 -3.473652e-12 -2.524507e+01 -5.055708e+01 -2.335505e+01 2.832350e+01 3.729277e+01 1.639248e+01 2.538758e+00 -9.543754e-01 -1.073833e+00 -8.559525e-01 -6.577725e-01 -4.552301e-01 -2.801933e-01 -1.466942e-01 -6.257607e-02 
-8.240884e-15 1.234382e-01 2.625719e-01 4.565421e-01 6.999008e-01 1.030282e+00 1.507553e+00 1.828981e+00 -6.734109e-01 -1.189558e+01 -2.843355e+01 -1.749190e+01 3.198387e+01 4.271812e+01 4.301588e+00 -1.648082e+01 -6.754060e-12 1.648082e+01 -4.301588e+00 -4.271812e+01 -3.198387e+01 1.749190e+01 2.843355e+01 1.189558e+01 6.734109e-01 -1.828981e+00 -1.507553e+00 -1.030282e+00 -6.999008e-01 -4.565421e-01 -2.625719e-01 -1.234382e-01 
1.337183e-14 2.534942e-01 4.679150e-01 7.071084e-01 9.843506e-01 1.487547e+00 2.232881e+00 1.082130e+00 -8.412655e+00 -1.605562e+01 -1.544136e+01 9.825645e+00 1.388359e+01 -3.826279e+01 -6.214681e+01 -3.329919e+01 -2.561110e-12 3.329919e+01 6.214681e+01 3.826279e+01 -1.388359e+01 -9.825645e+00 1.544136e+01 1.605562e+01 8.412655e+00 -1.082130e+00 -2.232881e+00 -1.487547e+00 -9.843506e-01 -7.071084e-01 -4.679150e-01 -2.534942e-01 
1.101997e-14 5.139055e-01 8.170241e-01 1.067513e+00 1.542689e+00 2.458113e+00 2.025687e+00 -4.874863e+00 -1.207357e+01 -6.337134e+00 -7.134247e+00 -7.739198e+00 -2.512250e+01 -2.256361e+01 6.837156e+00 1.348144e+01 -4.303193e-13 -1.348144e+01 -6.837156e+00 2.256361e+01 2.512250e+01 7.739198e+00 7.134247e+00 6.337134e+00 1.207357e+01 4.874863e+00 -2.025687e+00 -2.458113e+00 -1.542689e+00 -1.067513e+00 -8.170241e-01 -5.139055e-01 
-2.266344e-14 1.131173e+00 1.633730e+00 1.812141e+00 2.141556e+00 2.129360e+00 -2.253937e+00 -1.372126e+01 -4.924032e+00 -1.645015e+01 -1.751926e+01 -8.130584e+00 -9.694265e+00 1.889827e+01 3.428646e+01 2.248511e+01 -2.753649e-13 -2.248511e+01 -3.428646e+01 -1.889827e+01 9.694265e+00 8.130584e+00 1.751926e+01 1.645015e+01 4.924032e+00 1.372126e+01 2.253937e+00 -2.129360e+00 -2.141556e+00 -1.812141e+00 -1.633730e+00 -1.131173e+00 
-2.541442e-14 2.357189e+00 3.338162e+00 2.992673e+00 2.036072e+00 -4.163298e-01 -9.783277e+00 -1.186032e+01 -8.602189e-01 -2.269289e+01 -7.054273e+00 1.725398e+00 -1.247387e+00 2.474380e+01 3.211868e+01 2.252198e+01 -5.211108e-13 -2.252198e+01 -3.211868e+01 -2.474380e+01 1.247387e+00 -1.725398e+00 7.054273e+00 2.269289e+01 8.602189e-01 1.186032e+01 9.783277e+00 4.163298e-01 -2.036072e+00 -2.992673e+00 -3.338162e+00 -2.357189e+00 
-1.170205e-13 4.188333e+00 6.319358e+00 5.777088e+00 3.505641e+00 -1.600524e+00 -7.882797e+00 2.142942e+00 -2.129386e+01 -1.228156e+01 1.181328e+01 -1.050803e+01 -5.397988e+00 1.229589e+01 1.901665e+01 1.555056e+01 -5.622648e-13 -1.555056e+01 -1.901665e+01 -1.229589e+01 5.397988e+00 1.050803e+01 -1.181328e+01 1.228156e+01 2.129386e+01 -2.142942e+00 7.882797e+00 1.600524e+00 -3.505641e+00 -5.777088e+00 -6.319358e+00 -4.188333e+00 
-1.607579e-13 6.301735e+00 1.056706e+01 1.164704e+01 6.581818e+00 -2.597747e+00 1.967724e-01 3.392838e+00 -3.789914e+01 -3.925374e-01 1.663874e+01 -2.110116e+01 -1.355783e+01 -3.622309e+00 4.623124e+00 6.429571e+00 -2.904407e-13 -6.429571e+00 -4.623124e+00 3.622309e+00 1.355783e+01 2.110116e+01 -1.663874e+01 3.925374e-01 3.789914e+01 -3.392838e+00 -1.967724e-01 2.597747e+00 -6.581818e+00 -1.164704e+01 -1.056706e+01 -6.301735e+00 
-2.704437e-13 8.288916e+00 1.548880e+01 1.973787e+01 1.569674e+01 1.263026e+01 1.431114e+01 -9.281923e+00 -2.364520e+01 1.712510e+01 6.255981e+00 -3.093867e+01 -1.819583e+01 -8.572380e+00 -6.878606e-01 2.032795e+00 -4.680040e-14 -2.032795e+00 6.878606e-01 8.572380e+00 1.819583e+01 3.093867e+01 -6.255981e+00 -1.712510e+01 2.364520e+01 9.281923e+00 -1.431114e+01 -1.263026e+01 -1.569674e+01 -1.973787e+01 -1.548880e+01 -8.288916e+00 
-3.006815e-13 1.066458e+01 2.235706e+01 3.421285e+01 4.053924e+01 3.722637e+01 9.097907e+00 -3.575192e+01 -2.152695e+01 2.036976e+01 5.296687e+00 -2.498888e+01 -1.709793e+01 -9.765962e+00 -3.532380e+00 -3.628385e-01 -4.515822e-14 3.628385e-01 3.532380e+00 9.765962e+00 1.709793e+01 2.498888e+01 -5.296687e+00 -2.036976e+01 2.152695e+01 3.575192e+01 -9.097907e+00 -3.722637e+01 -4.053924e+01 -3.421285e+01 -2.235706e+01 -1.066458e+01 
7.293612e-14 1.180877e+01 2.626949e+01 3.910135e+01 4.154137e+01 2.617881e+01 -9.538453e+00 -2.924455e+01 -5.681019e+00 1.459089e+01 1.882824e+00 -1.316288e+01 -1.160178e+01 -7.562576e+00 -3.506692e+00 -9.540413e-01 -2.987041e-14 9.540413e-01 3.506692e+00 7.562576e+00 1.160178e+01 1.316288e+01 -1.882824e+00 -1.459089e+01 5.681019e+00 2.924455e+01 9.538453e+00 -2.617881e+01 -4.154137e+01 -3.910135e+01 -2.626949e+01 -1.180877e+01 
2.651412e-13 1.398387e-13 2.190585e-13 4.910821e-13 1.350119e-12 8.185426e-13 4.745353e-13 4.860656e-12 5.180867e-12 -3.522532e-13 -1.421988e-12 1.432639e-14 -1.173833e-13 -5.028096e-14 -3.897033e-14 2.335572e-14 7.267755e-16 -2.885452e-14 -5.841364e-14 -3.931944e-14 2.205518e-13 8.622814e-13 1.941841e-12 5.112573e-12 4.136233e-12 7.850235e-13 4.815069e-13 1.215262e-12 1.748159e-13 3.108302e-13 5.452528e-13 5.003187e-13 
-1.175042e-13 -1.180877e+01 -2.626949e+01 -3.910135e+01 -4.154137e+01 -2.617881e+01 9.538453e+00 2.924455e+01 5.681019e+00 -1.459089e+01 -1.882824e+00 1.316288e+01 1.160178e+01 7.562576e+00 3.506692e+00 9.540413e-01 9.787696e-15 -9.540413e-01 -3.506692e+00 -7.562576e+00 -1.160178e+01 -1.316288e+01 1.882824e+00 1.459089e+01 -5.681019e+00 -2.924455e+01 -9.538453e+00 2.617881e+01 4.154137e+01 3.910135e+01 2.626949e+01 1.180877e+01 
-1.767446e-13 -1.066458e+01 -2.235706e+01 -3.421285e+01 -4.053924e+01 -3.722637e+01 -9.097907e+00 3.575192e+01 2.152695e+01 -2.036976e+01 -5.296687e+00 2.498888e+01 1.709793e+01 9.765962e+00 3.532380e+00 3.628385e-01 -4.116406e-14 -3.628385e-01 -3.532380e+00 -9.765962e+00 -1.709793e+01 -2.498888e+01 5.296687e+00 2.036976e+01 -2.152695e+01 -3.575192e+01 9.097907e+00 3.722637e+01 4.053924e+01 3.421285e+01 2.235706e+01 1.066458e+01 
-1.249768e-13 -8.288916e+00 -1.548880e+01 -1.973787e+01 -1.569674e+01 -1.263026e+01 -1.431114e+01 9.281923e+00 2.364520e+01 -1.712510e+01 -6.255981e+00 3.093867e+01 1.819583e+01 8.572380e+00 6.878606e-01 -2.032795e+00 1.233482e-13 2.032795e+00 -6.878606e-01 -8.572380e+00 -1.819583e+01 -3.093867e+01 6.255981e+00 1.712510e+01 -2.364520e+01 -9.281923e+00 1.431114e+01 1.263026e+01 1.569674e+01 1.973787e+01 1.548880e+01 8.288916e+00 
-6.933722e-14 -6.301735e+00 -1.056706e+01 -1.164704e+01 -6.581818e+00 2.597747e+00 -1.967724e-01 -3.392838e+00 3.789914e+01 3.925374e-01 -1.663874e+01 2.110116e+01 1.355783e+01 3.622309e+00 -4.623124e+00 -6.429571e+00 1.487128e-14 6.429571e+00 4.623124e+00 -3.622309e+00 -1.355783e+01 -2.110116e+01 1.663874e+01 -3.925374e-01 -3.789914e+01 3.392838e+00 1.967724e-01 -2.597747e+00 6.581818e+00 1.164704e+01 1.056706e+01 6.301735e+00 
-4.609064e-14 -4.188333e+00 -6.319358e+00 -5.777088e+00 -3.505641e+00 1.600524e+00 7.882797e+00 -2.142942e+00 2.129386e+01 1.228156e+01 -1.181328e+01 1.050803e+01 5.397988e+00 -1.229589e+01 -1.901665e+01 -1.555056e+01 7.531680e-14 1.555056e+01 1.901665e+01 1.229589e+01 -5.397988e+00 -1.050803e+01 1.181328e+01 -1.228156e+01 -2.129386e+01 2.142942e+00 -7.882797e+00 -1.600524e+00 3.505641e+00 5.777088e+00 6.319358e+00 4.188333e+00 
3.846108e-15 -2.357189e+00 -3.338162e+00 -2.992673e+00 -2.036072e+00 4.163298e-01 9.783277e+00 1.186032e+01 8.602189e-01 2.269289e+01 7.054273e+00 -1.725398e+00 1.247387e+00 -2.474380e+01 -3.211868e+01 -2.252198e+01 2.791285e-13 2.252198e+01 3.211868e+01 2.474380e+01 -1.247387e+00 1.725398e+00 -7.054273e+00 -2.269289e+01 -8.602189e-01 -1.186032e+01 -9.783277e+00 -4.163298e-01 2.036072e+00 2.992673e+00 3.338162e+00 2.357189e+00 
8.291858e-15 -1.131173e+00 -1.633730e+00 -1.812141e+00 -2.141556e+00 -2.129360e+00 2.253937e+00 1.372126e+01 4.924032e+00 1.645015e+01 1.751926e+01 8.130584e+00 9.694265e+00 -1.889827e+01 -3.428646e+01 -2.248511e+01 1.945783e-12 2.248511e+01 3.428646e+01 1.889827e+01 -9.694265e+00 -8.130584e+00 -1.751926e+01 -1.645015e+01 -4.924032e+00 -1.372126e+01 -2.253937e+00 2.129360e+00 2.141556e+00 1.812141e+00 1.633730e+00 1.131173e+00 
4.282002e-14 -5.139055e-01 -8.170241e-01 -1.067513e+00 -1.542689e+00 -2.458113e+00 -2.025687e+00 4.874863e+00 1.207357e+01 6.337134e+00 7.134247e+00 7.739198e+00 2.512250e+01 2.256361e+01 -6.837156e+00 -1.348144e+01 4.852342e-12 1.348144e+01 6.837156e+00 -2.256361e+01 -2.512250e+01 -7.739198e+00 -7.134247e+00 -6.337134e+00 -1.207357e+01 -4.874863e+00 2.025687e+00 2.458113e+00 1.542689e+00 1.067513e+00 8.170241e-01 5.139055e-01 
4.048989e-14 -2.534942e-01 -4.679150e-01 -7.071084e-01 -9.843506e-01 -1.487547e+00 -2.232881e+00 -1.082130e+00 8.412655e+00 1.605562e+01 1.544136e+01 -9.825645e+00 -1.388359e+01 3.826279e+01 6.214681e+01 3.329919e+01 6.518008e-12 -3.329919e+01 -6.214681e+01 -3.826279e+01 1.388359e+01 9.825645e+00 -1.544136e+01 -1.605562e+01 -8.412655e+00 1.082130e+00 2.232881e+00 1.487547e+00 9.843506e-01 7.071084e-01 4.679150e-01 2.534942e-01 
3.992188e-14 -1.234382e-01 -2.625719e-01 -4.565421e-01 -6.999008e-01 -1.030282e+00 -1.507553e+00 -1.828981e+00 6.734109e-01 1.189558e+01 2.843355e+01 1.749190e+01 -3.198387e+01 -4.271812e+01 -4.301588e+00 1.648082e+01 5.265877e-13 -1.648082e+01 4.301588e+00 4.271812e+01 3.198387e+01 -1.749190e+01 -2.843355e+01 -1.189558e+01 -6.734109e-01 1.828981e+00 1.507553e+00 1.030282e+00 6.999008e-01 4.565421e-01 2.625719e-01 1.234382e-01 
1.030377e-14 -6.257607e-02 -1.466942e-01 -2.801933e-01 -4.552301e-01 -6.577725e-01 -8.559525e-01 -1.073833e+00 -9.543754e-01 2.538758e+00 1.639248e+01 3.729277e+01 2.832350e+01 -2.335505e+01 -5.055708e+01 -2.524507e+01 -4.156965e-12 2.524507e+01 5.055708e+01 2.335505e+01 -2.832350e+01 -3.729277e+01 -1.639248e+01 -2.538758e+00 9.543754e-01 1.073833e+00 8.559525e-01 6.577725e-01 4.552301e-01 2.801933e-01 1.466942e-01 6.257607e-02 
2.087562e-15 -2.793952e-02 -7.308710e-02 -1.535623e-01 -2.697185e-01 -4.007163e-01 -4.998618e-01 -4.795229e-01 -1.798909e-01 1.076396e+00 5.657510e+00 1.881025e+01 4.102764e+01 4.873423e+01 2.841013e+01 8.192715e+00 9.422528e-13 -8.192715e+00 -2.841013e+01 -4.873423e+01 -4.102764e+01 -1.881025e+01 -5.657510e+00 -1.076396e+00 1.798909e-01 4.795229e-01 4.998618e-01 4.007163e-01 2.697185e-01 1.535623e-01 7.308710e-02 2.793952e-02 
-6.544548e-15 -1.133083e-02 -3.201417e-02 -7.239530e-02 -1.339444e-01 -2.024909e-01 -2.300093e-01 -9.810077e-02 4.191041e-01 1.828124e+00 4.951629e+00 1.102145e+01 2.150179e+01 3.229456e+01 3.333744e+01 2.127226e+01 3.892800e-12 -2.127226e+01 -3.333744e+01 -3.229456e+01 -2.150179e+01 -1.102145e+01 -4.951629e+00 -1.828124e+00 -4.191041e-01 9.810077e-02 2.300093e-01 2.024909e-01 1.339444e-01 7.239530e-02 3.201417e-02 1.133083e-02 
-2.369402e-14 -4.112874e-03 -1.321539e-02 -3.228463e-02 -6.337683e-02 -9.561925e-02 -9.592246e-02 4.104227e-02 5.316291e-01 1.837135e+00 4.595012e+00 9.259106e+00 1.562882e+01 2.189462e+01 2.308783e+01 1.476404e+01 2.243722e-12 -1.476404e+01 -2.308783e+01 -2.189462e+01 -1.562882e+01 -9.259106e+00 -4.595012e+00 -1.837135e+00 -5.316291e-01 -4.104227e-02 9.592246e-02 9.561925e-02 6.337683e-02 3.228463e-02 1.321539e-02 4.112874e-03 
-1.693488e-14 -9.879008e-04 -3.804532e-03 -1.050653e-02 -2.184923e-02 -3.313668e-02 -2.694538e-02 5.435330e-02 3.377754e-01 1.094820e+00 2.709804e+00 5.498604e+00 9.312284e+00 1.301384e+01 1.419533e+01 9.879333e+00 1.584093e-12 -9.879333e+00 -1.419533e+01 -1.301384e+01 -9.312284e+00 -5.498604e+00 -2.709804e+00 -1.094820e+00 -3.377754e-01 -5.435330e-02 2.694538e-02 3.313668e-02 2.184923e-02 1.050653e-02 3.804532e-03 9.879008e-04 
