# vtk DataFile Version 2.0
Comment goes here
ASCII

DATASET STRUCTURED_POINTS
FIELD FieldData 1
TIME 1 1 double
0.12000000
DIMENSIONS    32   32   1

ORIGIN    0.000   0.000   0.000
SPACING   0.03125 0.03125   1.000

POINT_DATA   1024
SCALARS Omega double
LOOKUP_TABLE default

-2.100714e-14 -4.325707e-14 -5.566171e-14 -6.170113e-14 -4.167777e-14 -2.997399e-14 -1.682460e-14 2.235305e-15 5.682949e-15 -1.349519e-15 -4.745741e-15 9.936026e-15 4.037194e-14 1.424589e-14 1.782697e-14 3.548979e-14 8.881132e-15 4.299679e-15 4.387728e-14 3.717236e-14 1.575458e-14 1.573071e-14 5.198507e-14 -3.262591e-14 -4.990727e-14 -2.535925e-15 -7.092938e-14 -5.061638e-14 -5.188774e-14 -5.147487e-14 -5.011609e-14 -3.564514e-14 
-3.843693e-14 -1.384280e-03 -2.293091e-03 -4.621006e-03 -5.757994e-03 -9.174989e-03 -9.510951e-03 -3.930093e-03 -1.014877e-02 -2.677970e-02 -4.947547e-02 -2.841425e-02 7.270117e-02 -9.600065e-03 -9.816347e-01 -2.146828e+00 5.534620e-14 2.146828e+00 9.816347e-01 9.600065e-03 -7.270117e-02 2.841425e-02 4.947547e-02 2.677970e-02 1.014877e-02 3.930093e-03 9.510951e-03 9.174989e-03 5.757994e-03 4.621006e-03 2.293091e-03 1.384280e-03 
-5.512478e-14 -3.102615e-03 -5.479230e-03 -8.914423e-03 -1.066747e-02 -1.472144e-02 -8.316170e-03 1.550396e-02 -9.567991e-04 -3.613074e-02 -3.588456e-02 5.953675e-02 4.474716e-02 -1.276404e+00 -4.786303e+00 -6.424882e+00 1.222281e-13 6.424882e+00 4.786303e+00 1.276404e+00 -4.474716e-02 -5.953675e-02 3.588456e-02 3.613074e-02 9.567991e-04 -1.550396e-02 8.316170e-03 1.472144e-02 1.066747e-02 8.914423e-03 5.479230e-03 3.102615e-03 
-7.878008e-14 -3.996941e-03 -6.369724e-03 -1.334842e-02 -1.573753e-02 -2.295043e-02 1.146900e-02 9.950077e-02 1.336364e-01 2.581037e-01 5.933552e-01 1.058870e+00 7.982221e-01 -2.384399e+00 -7.891190e+00 -8.264811e+00 1.166720e-13 8.264811e+00 7.891190e+00 2.384399e+00 -7.982221e-01 -1.058870e+00 -5.933552e-01 -2.581037e-01 -1.336364e-01 -9.950077e-02 -1.146900e-02 2.295043e-02 1.573753e-02 1.334842e-02 6.369724e-03 3.996941e-03 
-6.418052e-14 -7.255656e-03 -1.351909e-02 -2.084637e-02 -1.939754e-02 9.672486e-03 1.627860e-01 5.086931e-01 9.371899e-01 1.805807e+00 3.114117e+00 3.964307e+00 2.681075e+00 -1.656743e+00 -5.838274e+00 -4.459713e+00 5.681694e-14 4.459713e+00 5.838274e+00 1.656743e+00 -2.681075e+00 -3.964307e+00 -3.114117e+00 -1.805807e+00 -9.371899e-01 -5.086931e-01 -1.627860e-01 -9.672486e-03 1.939754e-02 2.084637e-02 1.351909e-02 7.255656e-03 
-2.586900e-14 -6.767018e-03 -8.135642e-03 -6.673224e-03 4.240740e-02 1.898383e-01 6.870711e-01 1.758642e+00 3.716369e+00 6.413879e+00 7.147009e+00 4.074971e+00 -8.879544e-01 -4.488886e+00 -4.568947e+00 -1.368970e+00 2.764490e-13 1.368970e+00 4.568947e+00 4.488886e+00 8.879544e-01 -4.074971e+00 -7.147009e+00 -6.413879e+00 -3.716369e+00 -1.758642e+00 -6.870711e-01 -1.898383e-01 -4.240740e-02 6.673224e-03 8.135642e-03 6.767018e-03 
2.398420e-14 -1.136466e-02 -2.192039e-02 -9.924010e-03 1.108669e-01 6.337268e-01 2.317912e+00 6.400751e+00 1.090062e+01 7.128586e+00 -7.116479e+00 -2.088372e+01 -2.391824e+01 -1.909081e+01 -1.492955e+01 -7.805973e+00 1.031346e-12 7.805973e+00 1.492955e+01 1.909081e+01 2.391824e+01 2.088372e+01 7.116479e+00 -7.128586e+00 -1.090062e+01 -6.400751e+00 -2.317912e+00 -6.337268e-01 -1.108669e-01 9.924010e-03 2.192039e-02 1.136466e-02 
4.599219e-14 -9.659196e-03 1.237385e-02 1.863496e-01 8.556267e-01 2.660060e+00 7.310275e+00 1.113329e+01 -2.734337e+00 -4.614905e+01 -8.382272e+01 -8.330620e+01 -5.901098e+01 -4.028508e+01 -3.272228e+01 -2.121632e+01 9.361034e-13 2.121632e+01 3.272228e+01 4.028508e+01 5.901098e+01 8.330620e+01 8.382272e+01 4.614905e+01 2.734337e+00 -1.113329e+01 -7.310275e+00 -2.660060e+00 -8.556267e-01 -1.863496e-01 -1.237385e-02 9.659196e-03 
4.464959e-14 7.094813e-03 5.465321e-02 5.362102e-01 2.430325e+00 7.475160e+00 8.469379e+00 -1.874656e+01 -9.099297e+01 -1.408311e+02 -1.342955e+02 -1.010983e+02 -8.172192e+01 -7.335800e+01 -5.022331e+01 -2.519130e+01 -1.552830e-12 2.519130e+01 5.022331e+01 7.335800e+01 8.172192e+01 1.010983e+02 1.342955e+02 1.408311e+02 9.099297e+01 1.874656e+01 -8.469379e+00 -7.475160e+00 -2.430325e+00 -5.362102e-01 -5.465321e-02 -7.094813e-03 
7.405437e-14 4.564462e-02 2.851742e-01 1.666130e+00 4.751291e+00 2.970349e+00 -2.034703e+01 -9.127682e+01 -1.524910e+02 -1.373463e+02 -9.527527e+01 -6.309618e+01 -4.967380e+01 -4.654619e+01 -2.456174e+01 -6.299623e+00 -2.475168e-12 6.299623e+00 2.456174e+01 4.654619e+01 4.967380e+01 6.309618e+01 9.527527e+01 1.373463e+02 1.524910e+02 9.127682e+01 2.034703e+01 -2.970349e+00 -4.751291e+00 -1.666130e+00 -2.851742e-01 -4.564462e-02 
7.321272e-14 2.420458e-01 7.025814e-01 2.794889e+00 2.513039e+00 -1.171583e+01 -4.770437e+01 -1.396840e+02 -1.340105e+02 -7.351482e+01 -1.027815e+01 3.377086e+01 4.961740e+01 4.799381e+01 3.741294e+01 2.029519e+01 -1.118328e-12 -2.029519e+01 -3.741294e+01 -4.799381e+01 -4.961740e+01 -3.377086e+01 1.027815e+01 7.351482e+01 1.340105e+02 1.396840e+02 4.770437e+01 1.171583e+01 -2.513039e+00 -2.794889e+00 -7.025814e-01 -2.420458e-01 
1.362658e-13 8.647222e-01 1.912566e+00 2.548228e+00 -8.132754e+00 -7.952362e+00 -8.926897e+01 -1.365113e+02 -4.907717e+01 2.673133e+01 8.172973e+01 9.495411e+01 7.597201e+01 5.687781e+01 3.668320e+01 1.803785e+01 -5.066440e-13 -1.803785e+01 -3.668320e+01 -5.687781e+01 -7.597201e+01 -9.495411e+01 -8.172973e+01 -2.673133e+01 4.907717e+01 1.365113e+02 8.926897e+01 7.952362e+00 8.132754e+00 -2.548228e+00 -1.912566e+00 -8.647222e-01 
8.477880e-14 3.144972e+00 6.596618e+00 6.236027e+00 1.079418e+01 -1.971564e+00 -1.340511e+02 -7.576495e+01 4.363378e+01 6.968495e+01 5.022425e+01 1.794927e+01 1.646744e+01 1.846478e+01 1.092537e+01 5.308384e+00 -1.754256e-13 -5.308384e+00 -1.092537e+01 -1.846478e+01 -1.646744e+01 -1.794927e+01 -5.022425e+01 -6.968495e+01 -4.363378e+01 7.576495e+01 1.340511e+02 1.971564e+00 -1.079418e+01 -6.236027e+00 -6.596618e+00 -3.144972e+00 
5.003409e-14 9.401721e+00 1.609038e+01 2.208315e+01 4.913887e+01 -4.705332e+01 -1.073766e+02 8.253950e+00 4.596795e+01 1.418729e+00 -2.561355e+01 -2.817062e+01 -8.682870e+00 2.474666e+00 2.404206e+00 1.441160e+00 -1.264574e-13 -1.441160e+00 -2.404206e+00 -2.474666e+00 8.682870e+00 2.817062e+01 2.561355e+01 -1.418729e+00 -4.596795e+01 -8.253950e+00 1.073766e+02 4.705332e+01 -4.913887e+01 -2.208315e+01 -1.609038e+01 -9.401721e+00 
-2.479096e-13 1.400213e+01 4.058802e+01 6.406052e+01 2.993703e+01 -7.383257e+01 -3.103013e+01 2.195145e+01 3.260285e+00 -1.564839e+01 -2.695914e+01 -2.867766e+01 -1.721906e+01 -5.373990e+00 -8.720648e-01 4.859951e-02 -1.020178e-13 -4.859951e-02 8.720648e-01 5.373990e+00 1.721906e+01 2.867766e+01 2.695914e+01 1.564839e+01 -3.260285e+00 -2.195145e+01 3.103013e+01 7.383257e+01 -2.993703e+01 -6.406052e+01 -4.058802e+01 -1.400213e+01 
-2.887300e-13 1.945328e+01 5.975427e+01 6.227697e+01 -1.988042e+01 -3.538255e+01 4.621981e+00 -4.656666e+00 -1.764796e+01 -1.200235e+01 -1.449075e+01 -1.842584e+01 -1.447451e+01 -6.716357e+00 -1.846353e+00 -2.936440e-01 -8.036512e-14 2.936440e-01 1.846353e+00 6.716357e+00 1.447451e+01 1.842584e+01 1.449075e+01 1.200235e+01 1.764796e+01 4.656666e+00 -4.621981e+00 3.538255e+01 1.988042e+01 -6.227697e+01 -5.975427e+01 -1.945328e+01 
5.909906e-13 8.288667e-13 -1.171932e-13 -1.267896e-13 2.762637e-12 1.067189e-11 7.449757e-12 -4.165893e-12 -5.900255e-12 -1.753570e-12 -4.474330e-13 -4.561381e-13 -3.161574e-13 -1.863419e-13 -4.637592e-14 -7.576604e-14 -5.270684e-14 -8.534492e-14 -1.909266e-14 -9.428488e-14 -3.289649e-14 -1.199836e-13 -2.491338e-13 -1.290856e-12 -4.381598e-12 -3.676867e-12 3.569002e-12 6.230574e-12 1.587741e-12 5.979769e-13 1.009562e-13 3.378867e-13 
-4.339202e-15 -1.945328e+01 -5.975427e+01 -6.227697e+01 1.988042e+01 3.538255e+01 -4.621981e+00 4.656666e+00 1.764796e+01 1.200235e+01 1.449075e+01 1.842584e+01 1.447451e+01 6.716357e+00 1.846353e+00 2.936440e-01 -2.045578e-14 -2.936440e-01 -1.846353e+00 -6.716357e+00 -1.447451e+01 -1.842584e+01 -1.449075e+01 -1.200235e+01 -1.764796e+01 -4.656666e+00 4.621981e+00 -3.538255e+01 -1.988042e+01 6.227697e+01 5.975427e+01 1.945328e+01 
-1.661019e-13 -1.400213e+01 -4.058802e+01 -6.406052e+01 -2.993703e+01 7.383257e+01 3.103013e+01 -2.195145e+01 -3.260285e+00 1.564839e+01 2.695914e+01 2.867766e+01 1.721906e+01 5.373990e+00 8.720648e-01 -4.859951e-02 5.148406e-15 4.859951e-02 -8.720648e-01 -5.373990e+00 -1.721906e+01 -2.867766e+01 -2.695914e+01 -1.564839e+01 3.260285e+00 2.195145e+01 -3.103013e+01 -7.383257e+01 2.993703e+01 6.406052e+01 4.058802e+01 1.400213e+01 
-9.925075e-14 -9.401721e+00 -1.609038e+01 -2.208315e+01 -4.913887e+01 4.705332e+01 1.073766e+02 -8.253950e+00 -4.596795e+01 -1.418729e+00 2.561355e+01 2.817062e+01 8.682870e+00 -2.474666e+00 -2.404206e+00 -1.441160e+00 -4.309522e-14 1.441160e+00 2.404206e+00 2.474666e+00 -8.682870e+00 -2.817062e+01 -2.561355e+01 1.418729e+00 4.596795e+01 8.253950e+00 -1.073766e+02 -4.705332e+01 4.913887e+01 2.208315e+01 1.609038e+01 9.401721e+00 
3.461513e-14 -3.144972e+00 -6.596618e+00 -6.236027e+00 -1.079418e+01 1.971564e+00 1.340511e+02 7.576495e+01 -4.363378e+01 -6.968495e+01 -5.022425e+01 -1.794927e+01 -1.646744e+01 -1.846478e+01 -1.092537e+01 -5.308384e+00 -3.322082e-13 5.308384e+00 1.092537e+01 1.846478e+01 1.646744e+01 1.794927e+01 5.022425e+01 6.968495e+01 4.363378e+01 -7.576495e+01 -1.340511e+02 -1.971564e+00 1.079418e+01 6.236027e+00 6.596618e+00 3.144972e+00 
1.021750e-13 -8.647222e-01 -1.912566e+00 -2.548228e+00 8.132754e+00 7.952362e+00 8.926897e+01 1.365113e+02 4.907717e+01 -2.673133e+01 -8.172973e+01 -9.495411e+01 -7.597201e+01 -5.687781e+01 -3.668320e+01 -1.803785e+01 -1.385707e-12 1.803785e+01 3.668320e+01 5.687781e+01 7.597201e+01 9.495411e+01 8.172973e+01 2.673133e+01 -4.907717e+01 -1.365113e+02 -8.926897e+01 -7.952362e+00 -8.132754e+00 2.548228e+00 1.912566e+00 8.647222e-01 
-1.038800e-14 -2.420458e-01 -7.025814e-01 -2.794889e+00 -2.513039e+00 1.171583e+01 4.770437e+01 1.396840e+02 1.340105e+02 7.351482e+01 1.027815e+01 -3.377086e+01 -4.961740e+01 -4.799381e+01 -3.741294e+01 -2.029519e+01 -4.239435e-12 2.029519e+01 3.741294e+01 4.799381e+01 4.961740e+01 3.377086e+01 -1.027815e+01 -7.351482e+01 -1.340105e+02 -1.396840e+02 -4.770437e+01 -1.171583e+01 2.513039e+00 2.794889e+00 7.025814e-01 2.420458e-01 
7.885538e-14 -4.564462e-02 -2.851742e-01 -1.666130e+00 -4.751291e+00 -2.970349e+00 2.034703e+01 9.127682e+01 1.524910e+02 1.373463e+02 9.527527e+01 6.309618e+01 4.967380e+01 4.654619e+01 2.456174e+01 6.299623e+00 -4.332494e-12 -6.299623e+00 -2.456174e+01 -4.654619e+01 -4.967380e+01 -6.309618e+01 -9.527527e+01 -1.373463e+02 -1.524910e+02 -9.127682e+01 -2.034703e+01 2.970349e+00 4.751291e+00 1.666130e+00 2.851742e-01 4.564462e-02 
-1.056859e-15 -7.094813e-03 -5.465321e-02 -5.362102e-01 -2.430325e+00 -7.475160e+00 -8.469379e+00 1.874656e+01 9.099297e+01 1.408311e+02 1.342955e+02 1.010983e+02 8.172192e+01 7.335800e+01 5.022331e+01 2.519130e+01 1.419843e-12 -2.519130e+01 -5.022331e+01 -7.335800e+01 -8.172192e+01 -1.010983e+02 -1.342955e+02 -1.408311e+02 -9.099297e+01 -1.874656e+01 8.469379e+00 7.475160e+00 2.430325e+00 5.362102e-01 5.465321e-02 7.094813e-03 
2.614473e-14 9.659196e-03 -1.237385e-02 -1.863496e-01 -8.556267e-01 -2.660060e+00 -7.310275e+00 -1.113329e+01 2.734337e+00 4.614905e+01 8.382272e+01 8.330620e+01 5.901098e+01 4.028508e+01 3.272228e+01 2.121632e+01 6.249162e-12 -2.121632e+01 -3.272228e+01 -4.028508e+01 -5.901098e+01 -8.330620e+01 -8.382272e+01 -4.614905e+01 -2.734337e+00 1.113329e+01 7.310275e+00 2.660060e+00 8.556267e-01 1.863496e-01 1.237385e-02 -9.659196e-03 
1.371034e-14 1.136466e-02 2.192039e-02 9.924010e-03 -1.108669e-01 -6.337268e-01 -2.317912e+00 -6.400751e+00 -1.090062e+01 -7.128586e+00 7.116479e+00 2.088372e+01 2.391824e+01 1.909081e+01 1.492955e+01 7.805973e+00 4.630815e-12 -7.805973e+00 -1.492955e+01 -1.909081e+01 -2.391824e+01 -2.088372e+01 -7.116479e+00 7.128586e+00 1.090062e+01 6.400751e+00 2.317912e+00 6.337268e-01 1.108669e-01 -9.924010e-03 -2.192039e-02 -1.136466e-02 
-1.172567e-14 6.767018e-03 8.135642e-03 6.673224e-03 -4.240740e-02 -1.898383e-01 -6.870711e-01 -1.758642e+00 -3.716369e+00 -6.413879e+00 -7.147009e+00 -4.074971e+00 8.879544e-01 4.488886e+00 4.568947e+00 1.368970e+00 1.726365e-12 -1.368970e+00 -4.568947e+00 -4.488886e+00 -8.879544e-01 4.074971e+00 7.147009e+00 6.413879e+00 3.716369e+00 1.758642e+00 6.870711e-01 1.898383e-01 4.240740e-02 -6.673224e-03 -8.135642e-03 -6.767018e-03 
-5.070636e-14 7.255656e-03 1.351909e-02 2.084637e-02 1.939754e-02 -9.672486e-03 -1.627860e-01 -5.086931e-01 -9.371899e-01 -1.805807e+00 -3.114117e+00 -3.964307e+00 -2.681075e+00 1.656743e+00 5.838274e+00 4.459713e+00 7.410368e-13 -4.459713e+00 -5.838274e+00 -1.656743e+00 2.681075e+00 3.964307e+00 3.114117e+00 1.805807e+00 9.371899e-01 5.086931e-01 1.627860e-01 9.672486e-03 -1.939754e-02 -2.084637e-02 -1.351909e-02 -7.255656e-03 
-8.259162e-14 3.996941e-03 6.369724e-03 1.334842e-02 1.573753e-02 2.295043e-02 -1.146900e-02 -9.950077e-02 -1.336364e-01 -2.581037e-01 -5.933552e-01 -1.058870e+00 -7.982221e-01 2.384399e+00 7.891190e+00 8.264811e+00 3.394619e-13 -8.264811e+00 -7.891190e+00 -2.384399e+00 7.982221e-01 1.058870e+00 5.933552e-01 2.581037e-01 1.336364e-01 9.950077e-02 1.146900e-02 -2.295043e-02 -1.573753e-02 -1.334842e-02 -6.369724e-03 -3.996941e-03 
-7.018989e-14 3.102615e-03 5.479230e-03 8.914423e-03 1.066747e-02 1.472144e-02 8.316170e-03 -1.550396e-02 9.567991e-04 3.613074e-02 3.588456e-02 -5.953675e-02 -4.474716e-02 1.276404e+00 4.786303e+00 6.424882e+00 5.938529e-14 -6.424882e+00 -4.786303e+00 -1.276404e+00 4.474716e-02 5.953675e-02 -3.588456e-02 -3.613074e-02 -9.567991e-04 1.550396e-02 -8.316170e-03 -1.472144e-02 -1.066747e-02 -8.914423e-03 -5.479230e-03 -3.102615e-03 
-4.988769e-14 1.384280e-03 2.293091e-03 4.621006e-03 5.757994e-03 9.174989e-03 9.510951e-03 3.930093e-03 1.014877e-02 2.677970e-02 4.947547e-02 2.841425e-02 -7.270117e-02 9.600065e-03 9.816347e-01 2.146828e+00 -1.152373e-14 -2.146828e+00 -9.816347e-01 -9.600065e-03 7.270117e-02 -2.841425e-02 -4.947547e-02 -2.677970e-02 -1.014877e-02 -3.930093e-03 -9.510951e-03 -9.174989e-03 -5.757994e-03 -4.621006e-03 -2.293091e-03 -1.384280e-03 
