# vtk DataFile Version 2.0
Comment goes here
ASCII

DATASET STRUCTURED_POINTS
FIELD FieldData 1
TIME 1 1 double
0.48000000
DIMENSIONS    32   32   1

ORIGIN    0.000   0.000   0.000
SPACING   0.03125 0.03125   1.000

POINT_DATA   1024
SCALARS Omega double
LOOKUP_TABLE default

-1.454042e-14 -2.453390e-14 -4.159125e-14 -1.344990e-14 -2.647038e-14 -1.093295e-14 -3.434536e-14 -5.153441e-14 -1.993591e-13 -3.952621e-13 -6.244601e-13 -7.879715e-13 -8.519780e-13 -6.651770e-13 -1.787050e-13 7.617889e-13 1.375310e-12 8.431528e-13 7.282086e-14 -4.862709e-13 -5.982911e-13 -5.795626e-13 -4.109361e-13 -2.742701e-13 -1.180984e-13 -7.855077e-14 -5.422304e-14 -5.769878e-14 -5.620191e-14 -5.271640e-14 -2.911183e-14 -2.682407e-14 
-1.844766e-14 1.011324e-02 2.075422e-02 3.003810e-02 2.819665e-02 -1.939972e-02 -1.954393e-01 -6.648359e-01 -1.641663e+00 -3.303843e+00 -5.673288e+00 -8.584158e+00 -1.163583e+01 -1.390818e+01 -1.360018e+01 -8.764878e+00 8.424812e-13 8.764878e+00 1.360018e+01 1.390818e+01 1.163583e+01 8.584158e+00 5.673288e+00 3.303843e+00 1.641663e+00 6.648359e-01 1.954393e-01 1.939972e-02 -2.819665e-02 -3.003810e-02 -2.075422e-02 -1.011324e-02 
-1.330958e-14 2.517083e-02 5.077341e-02 7.416821e-02 8.089142e-02 1.579894e-02 -2.515995e-01 -9.924812e-01 -2.570881e+00 -5.303493e+00 -9.236611e+00 -1.402495e+01 -1.903135e+01 -2.267062e+01 -2.148853e+01 -1.300681e+01 5.661048e-13 1.300681e+01 2.148853e+01 2.267062e+01 1.903135e+01 1.402495e+01 9.236611e+00 5.303493e+00 2.570881e+00 9.924812e-01 2.515995e-01 -1.579894e-02 -8.089142e-02 -7.416821e-02 -5.077341e-02 -2.517083e-02 
-1.393520e-14 5.156150e-02 9.956457e-02 1.417080e-01 1.638522e-01 1.085597e-01 -1.663046e-01 -9.558601e-01 -2.670100e+00 -5.682215e+00 -1.007568e+01 -1.564312e+01 -2.222666e+01 -2.748832e+01 -2.524836e+01 -1.491566e+01 1.393772e-12 1.491566e+01 2.524836e+01 2.748832e+01 2.222666e+01 1.564312e+01 1.007568e+01 5.682215e+00 2.670100e+00 9.558601e-01 1.663046e-01 -1.085597e-01 -1.638522e-01 -1.417080e-01 -9.956457e-02 -5.156150e-02 
-5.403801e-15 1.009144e-01 1.849306e-01 2.519851e-01 2.975860e-01 2.767261e-01 7.119986e-02 -5.832071e-01 -2.051328e+00 -4.761021e+00 -9.300971e+00 -1.735118e+01 -3.009540e+01 -4.126365e+01 -3.892780e+01 -2.324592e+01 3.308896e-12 2.324592e+01 3.892780e+01 4.126365e+01 3.009540e+01 1.735118e+01 9.300971e+00 4.761021e+00 2.051328e+00 5.832071e-01 -7.119986e-02 -2.767261e-01 -2.975860e-01 -2.519851e-01 -1.849306e-01 -1.009144e-01 
3.046884e-15 2.023983e-01 3.451510e-01 4.314757e-01 4.780306e-01 4.701902e-01 3.156729e-01 -1.626601e-01 -1.304442e+00 -4.253235e+00 -1.272933e+01 -3.288991e+01 -4.691734e+01 -2.466940e+01 1.820282e+01 2.822225e+01 -9.357375e-13 -2.822225e+01 -1.820282e+01 2.466940e+01 4.691734e+01 3.288991e+01 1.272933e+01 4.253235e+00 1.304442e+00 1.626601e-01 -3.156729e-01 -4.701902e-01 -4.780306e-01 -4.314757e-01 -3.451510e-01 -2.023983e-01 
7.206593e-15 4.028823e-01 6.413109e-01 7.295141e-01 7.460167e-01 7.500171e-01 7.231931e-01 4.321912e-01 -1.238446e+00 -8.647466e+00 -2.572526e+01 -3.611247e+01 7.442205e+00 6.158168e+01 5.292969e+01 2.088613e+01 -4.918412e-12 -2.088613e+01 -5.292969e+01 -6.158168e+01 -7.442205e+00 3.611247e+01 2.572526e+01 8.647466e+00 1.238446e+00 -4.321912e-01 -7.231931e-01 -7.500171e-01 -7.460167e-01 -7.295141e-01 -6.413109e-01 -4.028823e-01 
-1.310067e-14 8.161525e-01 1.228709e+00 1.266989e+00 1.133337e+00 1.039302e+00 1.007550e+00 1.980440e-01 -5.553462e+00 -1.531269e+01 -2.452484e+01 7.176385e+00 5.019175e+01 1.877027e+01 -3.926928e+01 -3.671291e+01 -6.824402e-13 3.671291e+01 3.926928e+01 -1.877027e+01 -5.019175e+01 -7.176385e+00 2.452484e+01 1.531269e+01 5.553462e+00 -1.980440e-01 -1.007550e+00 -1.039302e+00 -1.133337e+00 -1.266989e+00 -1.228709e+00 -8.161525e-01 
-4.748093e-14 1.578339e+00 2.309392e+00 2.236462e+00 1.859469e+00 1.660520e+00 1.082373e+00 -2.747589e+00 -9.747698e+00 -7.401420e+00 -8.112879e+00 1.352991e+01 3.555528e+00 -4.576358e+01 -4.381526e+01 -1.295850e+01 1.148290e-12 1.295850e+01 4.381526e+01 4.576358e+01 -3.555528e+00 -1.352991e+01 8.112879e+00 7.401420e+00 9.747698e+00 2.747589e+00 -1.082373e+00 -1.660520e+00 -1.859469e+00 -2.236462e+00 -2.309392e+00 -1.578339e+00 
-1.148855e-13 2.859307e+00 4.207297e+00 3.972468e+00 2.984695e+00 2.051484e+00 -1.295899e-01 -7.164973e+00 9.725569e-01 -4.984512e+00 -1.125987e+01 -6.661127e+00 -1.455760e+01 -1.690333e+00 1.563870e+01 1.582114e+01 -5.020795e-13 -1.582114e+01 -1.563870e+01 1.690333e+00 1.455760e+01 6.661127e+00 1.125987e+01 4.984512e+00 -9.725569e-01 7.164973e+00 1.295899e-01 -2.051484e+00 -2.984695e+00 -3.972468e+00 -4.207297e+00 -2.859307e+00 
-2.470160e-13 4.669550e+00 7.112620e+00 6.909512e+00 4.916841e+00 2.236613e+00 -3.521965e+00 -3.124140e+00 9.123028e+00 -2.204327e+01 -8.199164e+00 3.407095e+00 -6.256684e+00 2.100400e+01 3.269794e+01 2.412951e+01 -8.823529e-13 -2.412951e+01 -3.269794e+01 -2.100400e+01 6.256684e+00 -3.407095e+00 8.199164e+00 2.204327e+01 -9.123028e+00 3.124140e+00 3.521965e+00 -2.236613e+00 -4.916841e+00 -6.909512e+00 -7.112620e+00 -4.669550e+00 
-3.548447e-13 6.746381e+00 1.085834e+01 1.125767e+01 8.828541e+00 3.744422e+00 -2.024968e+00 1.525363e+01 -1.237814e+01 -3.516614e+01 4.344637e+00 1.978842e-01 -1.351283e+00 1.389415e+01 1.865895e+01 1.460022e+01 -3.593505e-13 -1.460022e+01 -1.865895e+01 -1.389415e+01 1.351283e+00 -1.978842e-01 -4.344637e+00 3.516614e+01 1.237814e+01 -1.525363e+01 2.024968e+00 -3.744422e+00 -8.828541e+00 -1.125767e+01 -1.085834e+01 -6.746381e+00 
-4.344627e-13 8.690521e+00 1.486241e+01 1.726224e+01 1.427951e+01 6.098205e+00 8.463922e+00 1.785064e+01 -4.416897e+01 -1.988951e+01 1.826761e+01 -1.402416e+01 -1.149081e+01 -3.570714e+00 3.467230e+00 5.288813e+00 -1.362795e-13 -5.288813e+00 -3.467230e+00 3.570714e+00 1.149081e+01 1.402416e+01 -1.826761e+01 1.988951e+01 4.416897e+01 -1.785064e+01 -8.463922e+00 -6.098205e+00 -1.427951e+01 -1.726224e+01 -1.486241e+01 -8.690521e+00 
-4.517606e-13 1.013460e+01 1.855447e+01 2.393813e+01 2.254239e+01 2.048062e+01 2.865529e+01 -1.390176e+00 -4.526731e+01 5.705970e+00 1.460995e+01 -2.322298e+01 -1.496729e+01 -6.129140e+00 3.147654e-03 1.873544e+00 -1.015703e-13 -1.873544e+00 -3.147654e-03 6.129140e+00 1.496729e+01 2.322298e+01 -1.460995e+01 -5.705970e+00 4.526731e+01 1.390176e+00 -2.865529e+01 -2.048062e+01 -2.254239e+01 -2.393813e+01 -1.855447e+01 -1.013460e+01 
-2.945500e-13 1.095737e+01 2.180319e+01 3.214587e+01 4.014899e+01 4.267343e+01 2.530156e+01 -3.101216e+01 -3.057309e+01 1.388981e+01 3.587004e+00 -2.151615e+01 -1.466012e+01 -7.950096e+00 -2.631417e+00 -8.779071e-02 -2.529427e-14 8.779071e-02 2.631417e+00 7.950096e+00 1.466012e+01 2.151615e+01 -3.587004e+00 -1.388981e+01 3.057309e+01 3.101216e+01 -2.530156e+01 -4.267343e+01 -4.014899e+01 -3.214587e+01 -2.180319e+01 -1.095737e+01 
6.200844e-13 9.616405e+00 2.086914e+01 3.278800e+01 3.970594e+01 3.261943e+01 1.054125e+00 -2.943759e+01 -9.051108e+00 1.026503e+01 -3.517179e+00 -1.410623e+01 -1.072033e+01 -6.492864e+00 -2.749962e+00 -6.067042e-01 -4.252853e-14 6.067042e-01 2.749962e+00 6.492864e+00 1.072033e+01 1.410623e+01 3.517179e+00 -1.026503e+01 9.051108e+00 2.943759e+01 -1.054125e+00 -3.261943e+01 -3.970594e+01 -3.278800e+01 -2.086914e+01 -9.616405e+00 
1.204054e-12 1.601921e-12 2.003279e-12 2.076254e-12 1.982450e-12 7.166565e-13 -4.116578e-13 -1.980376e-13 -6.859499e-12 -7.822960e-12 -6.845514e-13 1.319908e-12 5.800860e-13 1.200718e-13 -4.660927e-14 -4.088824e-14 -3.841787e-14 -3.797052e-14 4.096080e-15 2.025368e-13 8.153562e-13 3.152717e-12 5.518326e-12 -7.562611e-14 -6.607848e-12 -2.445366e-12 1.975976e-12 4.493910e-13 3.511689e-13 1.252908e-12 1.497665e-12 1.228617e-12 
-4.091158e-14 -9.616405e+00 -2.086914e+01 -3.278800e+01 -3.970594e+01 -3.261943e+01 -1.054125e+00 2.943759e+01 9.051108e+00 -1.026503e+01 3.517179e+00 1.410623e+01 1.072033e+01 6.492864e+00 2.749962e+00 6.067042e-01 -2.148591e-14 -6.067042e-01 -2.749962e+00 -6.492864e+00 -1.072033e+01 -1.410623e+01 -3.517179e+00 1.026503e+01 -9.051108e+00 -2.943759e+01 1.054125e+00 3.261943e+01 3.970594e+01 3.278800e+01 2.086914e+01 9.616405e+00 
-6.366751e-13 -1.095737e+01 -2.180319e+01 -3.214587e+01 -4.014899e+01 -4.267343e+01 -2.530156e+01 3.101216e+01 3.057309e+01 -1.388981e+01 -3.587004e+00 2.151615e+01 1.466012e+01 7.950096e+00 2.631417e+00 8.779071e-02 -2.986764e-14 -8.779071e-02 -2.631417e+00 -7.950096e+00 -1.466012e+01 -2.151615e+01 3.587004e+00 1.388981e+01 -3.057309e+01 -3.101216e+01 2.530156e+01 4.267343e+01 4.014899e+01 3.214587e+01 2.180319e+01 1.095737e+01 
-6.392585e-13 -1.013460e+01 -1.855447e+01 -2.393813e+01 -2.254239e+01 -2.048062e+01 -2.865529e+01 1.390176e+00 4.526731e+01 -5.705970e+00 -1.460995e+01 2.322298e+01 1.496729e+01 6.129140e+00 -3.147654e-03 -1.873544e+00 1.132323e-13 1.873544e+00 3.147654e-03 -6.129140e+00 -1.496729e+01 -2.322298e+01 1.460995e+01 5.705970e+00 -4.526731e+01 -1.390176e+00 2.865529e+01 2.048062e+01 2.254239e+01 2.393813e+01 1.855447e+01 1.013460e+01 
-5.778106e-13 -8.690521e+00 -1.486241e+01 -1.726224e+01 -1.427951e+01 -6.098205e+00 -8.463922e+00 -1.785064e+01 4.416897e+01 1.988951e+01 -1.826761e+01 1.402416e+01 1.149081e+01 3.570714e+00 -3.467230e+00 -5.288813e+00 2.836192e-13 5.288813e+00 3.467230e+00 -3.570714e+00 -1.149081e+01 -1.402416e+01 1.826761e+01 -1.988951e+01 -4.416897e+01 1.785064e+01 8.463922e+00 6.098205e+00 1.427951e+01 1.726224e+01 1.486241e+01 8.690521e+00 
-4.542446e-13 -6.746381e+00 -1.085834e+01 -1.125767e+01 -8.828541e+00 -3.744422e+00 2.024968e+00 -1.525363e+01 1.237814e+01 3.516614e+01 -4.344637e+00 -1.978842e-01 1.351283e+00 -1.389415e+01 -1.865895e+01 -1.460022e+01 6.511507e-13 1.460022e+01 1.865895e+01 1.389415e+01 -1.351283e+00 1.978842e-01 4.344637e+00 -3.516614e+01 -1.237814e+01 1.525363e+01 -2.024968e+00 3.744422e+00 8.828541e+00 1.125767e+01 1.085834e+01 6.746381e+00 
-2.518535e-13 -4.669550e+00 -7.112620e+00 -6.909512e+00 -4.916841e+00 -2.236613e+00 3.521965e+00 3.124140e+00 -9.123028e+00 2.204327e+01 8.199164e+00 -3.407095e+00 6.256684e+00 -2.100400e+01 -3.269794e+01 -2.412951e+01 8.261016e-13 2.412951e+01 3.269794e+01 2.100400e+01 -6.256684e+00 3.407095e+00 -8.199164e+00 -2.204327e+01 9.123028e+00 -3.124140e+00 -3.521965e+00 2.236613e+00 4.916841e+00 6.909512e+00 7.112620e+00 4.669550e+00 
-1.204593e-13 -2.859307e+00 -4.207297e+00 -3.972468e+00 -2.984695e+00 -2.051484e+00 1.295899e-01 7.164973e+00 -9.725569e-01 4.984512e+00 1.125987e+01 6.661127e+00 1.455760e+01 1.690333e+00 -1.563870e+01 -1.582114e+01 1.296196e-12 1.582114e+01 1.563870e+01 -1.690333e+00 -1.455760e+01 -6.661127e+00 -1.125987e+01 -4.984512e+00 9.725569e-01 -7.164973e+00 -1.295899e-01 2.051484e+00 2.984695e+00 3.972468e+00 4.207297e+00 2.859307e+00 
-2.357178e-14 -1.578339e+00 -2.309392e+00 -2.236462e+00 -1.859469e+00 -1.660520e+00 -1.082373e+00 2.747589e+00 9.747698e+00 7.401420e+00 8.112879e+00 -1.352991e+01 -3.555528e+00 4.576358e+01 4.381526e+01 1.295850e+01 3.577279e-12 -1.295850e+01 -4.381526e+01 -4.576358e+01 3.555528e+00 1.352991e+01 -8.112879e+00 -7.401420e+00 -9.747698e+00 -2.747589e+00 1.082373e+00 1.660520e+00 1.859469e+00 2.236462e+00 2.309392e+00 1.578339e+00 
-7.523430e-15 -8.161525e-01 -1.228709e+00 -1.266989e+00 -1.133337e+00 -1.039302e+00 -1.007550e+00 -1.980440e-01 5.553462e+00 1.531269e+01 2.452484e+01 -7.176385e+00 -5.019175e+01 -1.877027e+01 3.926928e+01 3.671291e+01 4.504860e-12 -3.671291e+01 -3.926928e+01 1.877027e+01 5.019175e+01 7.176385e+00 -2.452484e+01 -1.531269e+01 -5.553462e+00 1.980440e-01 1.007550e+00 1.039302e+00 1.133337e+00 1.266989e+00 1.228709e+00 8.161525e-01 
2.379251e-14 -4.028823e-01 -6.413109e-01 -7.295141e-01 -7.460167e-01 -7.500171e-01 -7.231931e-01 -4.321912e-01 1.238446e+00 8.647466e+00 2.572526e+01 3.611247e+01 -7.442205e+00 -6.158168e+01 -5.292969e+01 -2.088613e+01 2.393164e-12 2.088613e+01 5.292969e+01 6.158168e+01 7.442205e+00 -3.611247e+01 -2.572526e+01 -8.647466e+00 -1.238446e+00 4.321912e-01 7.231931e-01 7.500171e-01 7.460167e-01 7.295141e-01 6.413109e-01 4.028823e-01 
2.269157e-15 -2.023983e-01 -3.451510e-01 -4.314757e-01 -4.780306e-01 -4.701902e-01 -3.156729e-01 1.626601e-01 1.304442e+00 4.253235e+00 1.272933e+01 3.288991e+01 4.691734e+01 2.466940e+01 -1.820282e+01 -2.822225e+01 5.271832e-13 2.822225e+01 1.820282e+01 -2.466940e+01 -4.691734e+01 -3.288991e+01 -1.272933e+01 -4.253235e+00 -1.304442e+00 -1.626601e-01 3.156729e-01 4.701902e-01 4.780306e-01 4.314757e-01 3.451510e-01 2.023983e-01 
-2.555499e-15 -1.009144e-01 -1.849306e-01 -2.519851e-01 -2.975860e-01 -2.767261e-01 -7.119986e-02 5.832071e-01 2.051328e+00 4.761021e+00 9.300971e+00 1.735118e+01 3.009540e+01 4.126365e+01 3.892780e+01 2.324592e+01 9.775838e-13 -2.324592e+01 -3.892780e+01 -4.126365e+01 -3.009540e+01 -1.735118e+01 -9.300971e+00 -4.761021e+00 -2.051328e+00 -5.832071e-01 7.119986e-02 2.767261e-01 2.975860e-01 2.519851e-01 1.849306e-01 1.009144e-01 
-1.902729e-14 -5.156150e-02 -9.956457e-02 -1.417080e-01 -1.638522e-01 -1.085597e-01 1.663046e-01 9.558601e-01 2.670100e+00 5.682215e+00 1.007568e+01 1.564312e+01 2.222666e+01 2.748832e+01 2.524836e+01 1.491566e+01 1.468484e-12 -1.491566e+01 -2.524836e+01 -2.748832e+01 -2.222666e+01 -1.564312e+01 -1.007568e+01 -5.682215e+00 -2.670100e+00 -9.558601e-01 -1.663046e-01 1.085597e-01 1.638522e-01 1.417080e-01 9.956457e-02 5.156150e-02 
-4.233980e-14 -2.517083e-02 -5.077341e-02 -7.416821e-02 -8.089142e-02 -1.579894e-02 2.515995e-01 9.924812e-01 2.570881e+00 5.303493e+00 9.236611e+00 1.402495e+01 1.903135e+01 2.267062e+01 2.148853e+01 1.300681e+01 1.385959e-12 -1.300681e+01 -2.148853e+01 -2.267062e+01 -1.903135e+01 -1.402495e+01 -9.236611e+00 -5.303493e+00 -2.570881e+00 -9.924812e-01 -2.515995e-01 1.579894e-02 8.089142e-02 7.416821e-02 5.077341e-02 2.517083e-02 
-2.457229e-14 -1.011324e-02 -2.075422e-02 -3.003810e-02 -2.819665e-02 1.939972e-02 1.954393e-01 6.648359e-01 1.641663e+00 3.303843e+00 5.673288e+00 8.584158e+00 1.163583e+01 1.390818e+01 1.360018e+01 8.764878e+00 1.528533e-12 -8.764878e+00 -1.360018e+01 -1.390818e+01 -1.163583e+01 -8.584158e+00 -5.673288e+00 -3.303843e+00 -1.641663e+00 -6.648359e-01 -1.954393e-01 -1.939972e-02 2.819665e-02 3.003810e-02 2.075422e-02 1.011324e-02 
