# vtk DataFile Version 2.0
Comment goes here
ASCII

DATASET STRUCTURED_POINTS
FIELD FieldData 1
TIME 1 1 double
0.60000000
DIMENSIONS    32   32   1

ORIGIN    0.000   0.000   0.000
SPACING   0.03125 0.03125   1.000

POINT_DATA   1024
SCALARS P double
LOOKUP_TABLE default

-1.426724e+01 -1.419033e+01 -1.421942e+01 -1.411163e+01 -1.407957e+01 -1.395532e+01 -1.385495e+01 -1.372478e+01 -1.355156e+01 -1.342812e+01 -1.315005e+01 -1.299859e+01 -1.248001e+01 -1.213108e+01 -1.121482e+01 -1.064228e+01 -9.971009e+00 -1.064228e+01 -1.121482e+01 -1.213108e+01 -1.248001e+01 -1.299859e+01 -1.315005e+01 -1.342812e+01 -1.355156e+01 -1.372478e+01 -1.385495e+01 -1.395532e+01 -1.407957e+01 -1.411163e+01 -1.421942e+01 -1.419033e+01 
-1.429245e+01 -1.422719e+01 -1.424759e+01 -1.415530e+01 -1.411730e+01 -1.401124e+01 -1.390779e+01 -1.378996e+01 -1.361253e+01 -1.347762e+01 -1.318390e+01 -1.298901e+01 -1.244958e+01 -1.206051e+01 -1.111374e+01 -1.053616e+01 -9.874189e+00 -1.053616e+01 -1.111374e+01 -1.206051e+01 -1.244958e+01 -1.298901e+01 -1.318390e+01 -1.347762e+01 -1.361253e+01 -1.378996e+01 -1.390779e+01 -1.401124e+01 -1.411730e+01 -1.415530e+01 -1.424759e+01 -1.422719e+01 
-1.433143e+01 -1.424782e+01 -1.429002e+01 -1.418587e+01 -1.417396e+01 -1.406704e+01 -1.399685e+01 -1.388942e+01 -1.375130e+01 -1.363426e+01 -1.338114e+01 -1.323525e+01 -1.276185e+01 -1.252099e+01 -1.178660e+01 -1.138365e+01 -1.083495e+01 -1.138365e+01 -1.178660e+01 -1.252099e+01 -1.276185e+01 -1.323525e+01 -1.338114e+01 -1.363426e+01 -1.375130e+01 -1.388942e+01 -1.399685e+01 -1.406704e+01 -1.417396e+01 -1.418587e+01 -1.429002e+01 -1.424782e+01 
-1.441147e+01 -1.433221e+01 -1.437911e+01 -1.429499e+01 -1.429580e+01 -1.422863e+01 -1.418265e+01 -1.411734e+01 -1.400818e+01 -1.388332e+01 -1.362343e+01 -1.338578e+01 -1.289399e+01 -1.257893e+01 -1.176918e+01 -1.138436e+01 -1.083798e+01 -1.138436e+01 -1.176918e+01 -1.257893e+01 -1.289399e+01 -1.338578e+01 -1.362343e+01 -1.388332e+01 -1.400818e+01 -1.411734e+01 -1.418265e+01 -1.422863e+01 -1.429580e+01 -1.429499e+01 -1.437911e+01 -1.433221e+01 
-1.450041e+01 -1.439513e+01 -1.447786e+01 -1.438445e+01 -1.442824e+01 -1.437321e+01 -1.437780e+01 -1.432763e+01 -1.425977e+01 -1.409387e+01 -1.380699e+01 -1.345477e+01 -1.284421e+01 -1.262639e+01 -1.212513e+01 -1.201565e+01 -1.154729e+01 -1.201565e+01 -1.212513e+01 -1.262639e+01 -1.284421e+01 -1.345477e+01 -1.380699e+01 -1.409387e+01 -1.425977e+01 -1.432763e+01 -1.437780e+01 -1.437321e+01 -1.442824e+01 -1.438445e+01 -1.447786e+01 -1.439513e+01 
-1.460682e+01 -1.449478e+01 -1.459904e+01 -1.453008e+01 -1.460162e+01 -1.461770e+01 -1.466519e+01 -1.471159e+01 -1.471788e+01 -1.456127e+01 -1.427361e+01 -1.371006e+01 -1.312305e+01 -1.246530e+01 -1.136004e+01 -1.091430e+01 -1.023046e+01 -1.091430e+01 -1.136004e+01 -1.246530e+01 -1.312305e+01 -1.371006e+01 -1.427361e+01 -1.456127e+01 -1.471788e+01 -1.471159e+01 -1.466519e+01 -1.461770e+01 -1.460162e+01 -1.453008e+01 -1.459904e+01 -1.449478e+01 
-1.471983e+01 -1.457129e+01 -1.473184e+01 -1.465850e+01 -1.479211e+01 -1.484779e+01 -1.497009e+01 -1.507768e+01 -1.518456e+01 -1.495607e+01 -1.464144e+01 -1.357976e+01 -1.228606e+01 -1.175995e+01 -1.164852e+01 -1.168957e+01 -1.093516e+01 -1.168957e+01 -1.164852e+01 -1.175995e+01 -1.228606e+01 -1.357976e+01 -1.464144e+01 -1.495607e+01 -1.518456e+01 -1.507768e+01 -1.497009e+01 -1.484779e+01 -1.479211e+01 -1.465850e+01 -1.473184e+01 -1.457129e+01 
-1.482688e+01 -1.464823e+01 -1.485929e+01 -1.480746e+01 -1.498188e+01 -1.516304e+01 -1.533661e+01 -1.570872e+01 -1.607621e+01 -1.606629e+01 -1.596866e+01 -1.478452e+01 -1.446775e+01 -1.253802e+01 -9.260957e+00 -7.047390e+00 -5.064791e+00 -7.047390e+00 -9.260957e+00 -1.253802e+01 -1.446775e+01 -1.478452e+01 -1.596866e+01 -1.606629e+01 -1.607621e+01 -1.570872e+01 -1.533661e+01 -1.516304e+01 -1.498188e+01 -1.480746e+01 -1.485929e+01 -1.464823e+01 
-1.495039e+01 -1.471472e+01 -1.501687e+01 -1.496268e+01 -1.522232e+01 -1.550737e+01 -1.578973e+01 -1.649122e+01 -1.732474e+01 -1.738719e+01 -1.747920e+01 -1.214217e+01 -9.607996e-01 1.045690e+01 2.121790e+01 2.691971e+01 2.873377e+01 2.691971e+01 2.121790e+01 1.045690e+01 -9.607996e-01 -1.214217e+01 -1.747920e+01 -1.738719e+01 -1.732474e+01 -1.649122e+01 -1.578973e+01 -1.550737e+01 -1.522232e+01 -1.496268e+01 -1.501687e+01 -1.471472e+01 
-1.507180e+01 -1.475014e+01 -1.515997e+01 -1.508147e+01 -1.539426e+01 -1.585948e+01 -1.610851e+01 -1.755632e+01 -1.869793e+01 -1.809420e+01 -9.733213e+00 1.236596e+01 3.363040e+01 4.317765e+01 4.893484e+01 5.053046e+01 5.012507e+01 5.053046e+01 4.893484e+01 4.317765e+01 3.363040e+01 1.236596e+01 -9.733213e+00 -1.809420e+01 -1.869793e+01 -1.755632e+01 -1.610851e+01 -1.585948e+01 -1.539426e+01 -1.508147e+01 -1.515997e+01 -1.475014e+01 
-1.521737e+01 -1.478801e+01 -1.534752e+01 -1.522649e+01 -1.565006e+01 -1.626908e+01 -1.644413e+01 -1.884740e+01 -1.834839e+01 -7.033057e+00 1.842989e+01 4.067411e+01 4.950602e+01 4.974838e+01 4.952216e+01 4.944021e+01 4.920399e+01 4.944021e+01 4.952216e+01 4.974838e+01 4.950602e+01 4.067411e+01 1.842989e+01 -7.033057e+00 -1.834839e+01 -1.884740e+01 -1.644413e+01 -1.626908e+01 -1.565006e+01 -1.522649e+01 -1.534752e+01 -1.478801e+01 
-1.538903e+01 -1.476154e+01 -1.555719e+01 -1.525637e+01 -1.584001e+01 -1.646516e+01 -1.630114e+01 -2.026007e+01 -1.137925e+01 1.760865e+01 4.400142e+01 4.868176e+01 4.921713e+01 4.904738e+01 4.949071e+01 4.994137e+01 5.001233e+01 4.994137e+01 4.949071e+01 4.904738e+01 4.921713e+01 4.868176e+01 4.400142e+01 1.760865e+01 -1.137925e+01 -2.026007e+01 -1.630114e+01 -1.646516e+01 -1.584001e+01 -1.525637e+01 -1.555719e+01 -1.476154e+01 
-1.550309e+01 -1.466372e+01 -1.571130e+01 -1.517220e+01 -1.597142e+01 -1.641217e+01 -1.661041e+01 -1.958684e+01 3.633231e+00 3.821398e+01 4.940820e+01 4.912292e+01 4.978941e+01 4.967662e+01 4.968038e+01 4.977154e+01 4.966806e+01 4.977154e+01 4.968038e+01 4.967662e+01 4.978941e+01 4.912292e+01 4.940820e+01 3.821398e+01 3.633231e+00 -1.958684e+01 -1.661041e+01 -1.641217e+01 -1.597142e+01 -1.517220e+01 -1.571130e+01 -1.466372e+01 
-1.556854e+01 -1.438330e+01 -1.586675e+01 -1.467354e+01 -1.633121e+01 -1.516161e+01 -1.757956e+01 -1.201391e+01 2.128230e+01 4.737729e+01 4.879804e+01 4.959875e+01 4.953019e+01 4.993038e+01 4.983137e+01 5.019008e+01 4.996447e+01 5.019008e+01 4.983137e+01 4.993038e+01 4.953019e+01 4.959875e+01 4.879804e+01 4.737729e+01 2.128230e+01 -1.201391e+01 -1.757956e+01 -1.516161e+01 -1.633121e+01 -1.467354e+01 -1.586675e+01 -1.438330e+01 
-1.540900e+01 -1.392898e+01 -1.577047e+01 -1.394410e+01 -1.628305e+01 -1.293215e+01 -1.565454e+01 -2.982774e+00 3.646441e+01 5.079580e+01 4.925720e+01 5.033086e+01 4.984039e+01 5.033852e+01 4.997113e+01 5.024266e+01 4.994454e+01 5.024266e+01 4.997113e+01 5.033852e+01 4.984039e+01 5.033086e+01 4.925720e+01 5.079580e+01 3.646441e+01 -2.982774e+00 -1.565454e+01 -1.293215e+01 -1.628305e+01 -1.394410e+01 -1.577047e+01 -1.392898e+01 
-1.509365e+01 -1.351270e+01 -1.531414e+01 -1.331743e+01 -1.490688e+01 -1.128723e+01 -1.167170e+01 4.010589e+00 4.503073e+01 5.215953e+01 4.966343e+01 5.084956e+01 4.992107e+01 5.063761e+01 5.010862e+01 5.054875e+01 5.012227e+01 5.054875e+01 5.010862e+01 5.063761e+01 4.992107e+01 5.084956e+01 4.966343e+01 5.215953e+01 4.503073e+01 4.010589e+00 -1.167170e+01 -1.128723e+01 -1.490688e+01 -1.331743e+01 -1.531414e+01 -1.351270e+01 
-1.481838e+01 -1.320667e+01 -1.490673e+01 -1.285468e+01 -1.376471e+01 -1.018015e+01 -9.792138e+00 7.404941e+00 4.698657e+01 5.230493e+01 4.984085e+01 5.098483e+01 5.007705e+01 5.071107e+01 5.014965e+01 5.049011e+01 5.009739e+01 5.049011e+01 5.014965e+01 5.071107e+01 5.007705e+01 5.098483e+01 4.984085e+01 5.230493e+01 4.698657e+01 7.404941e+00 -9.792138e+00 -1.018015e+01 -1.376471e+01 -1.285468e+01 -1.490673e+01 -1.320667e+01 
-1.509365e+01 -1.351270e+01 -1.531414e+01 -1.331743e+01 -1.490688e+01 -1.128723e+01 -1.167170e+01 4.010589e+00 4.503073e+01 5.215953e+01 4.966343e+01 5.084956e+01 4.992107e+01 5.063761e+01 5.010862e+01 5.054875e+01 5.012227e+01 5.054875e+01 5.010862e+01 5.063761e+01 4.992107e+01 5.084956e+01 4.966343e+01 5.215953e+01 4.503073e+01 4.010589e+00 -1.167170e+01 -1.128723e+01 -1.490688e+01 -1.331743e+01 -1.531414e+01 -1.351270e+01 
-1.540900e+01 -1.392898e+01 -1.577047e+01 -1.394410e+01 -1.628305e+01 -1.293215e+01 -1.565454e+01 -2.982774e+00 3.646441e+01 5.079580e+01 4.925720e+01 5.033086e+01 4.984039e+01 5.033852e+01 4.997113e+01 5.024266e+01 4.994454e+01 5.024266e+01 4.997113e+01 5.033852e+01 4.984039e+01 5.033086e+01 4.925720e+01 5.079580e+01 3.646441e+01 -2.982774e+00 -1.565454e+01 -1.293215e+01 -1.628305e+01 -1.394410e+01 -1.577047e+01 -1.392898e+01 
-1.556854e+01 -1.438330e+01 -1.586675e+01 -1.467354e+01 -1.633121e+01 -1.516161e+01 -1.757956e+01 -1.201391e+01 2.128230e+01 4.737729e+01 4.879804e+01 4.959875e+01 4.953019e+01 4.993038e+01 4.983137e+01 5.019008e+01 4.996447e+01 5.019008e+01 4.983137e+01 4.993038e+01 4.953019e+01 4.959875e+01 4.879804e+01 4.737729e+01 2.128230e+01 -1.201391e+01 -1.757956e+01 -1.516161e+01 -1.633121e+01 -1.467354e+01 -1.586675e+01 -1.438330e+01 
-1.550309e+01 -1.466372e+01 -1.571130e+01 -1.517220e+01 -1.597142e+01 -1.641217e+01 -1.661041e+01 -1.958684e+01 3.633231e+00 3.821398e+01 4.940820e+01 4.912292e+01 4.978941e+01 4.967662e+01 4.968038e+01 4.977154e+01 4.966806e+01 4.977154e+01 4.968038e+01 4.967662e+01 4.978941e+01 4.912292e+01 4.940820e+01 3.821398e+01 3.633231e+00 -1.958684e+01 -1.661041e+01 -1.641217e+01 -1.597142e+01 -1.517220e+01 -1.571130e+01 -1.466372e+01 
-1.538903e+01 -1.476154e+01 -1.555719e+01 -1.525637e+01 -1.584001e+01 -1.646516e+01 -1.630114e+01 -2.026007e+01 -1.137925e+01 1.760865e+01 4.400142e+01 4.868176e+01 4.921713e+01 4.904738e+01 4.949071e+01 4.994137e+01 5.001233e+01 4.994137e+01 4.949071e+01 4.904738e+01 4.921713e+01 4.868176e+01 4.400142e+01 1.760865e+01 -1.137925e+01 -2.026007e+01 -1.630114e+01 -1.646516e+01 -1.584001e+01 -1.525637e+01 -1.555719e+01 -1.476154e+01 
-1.521737e+01 -1.478801e+01 -1.534752e+01 -1.522649e+01 -1.565006e+01 -1.626908e+01 -1.644413e+01 -1.884740e+01 -1.834839e+01 -7.033057e+00 1.842989e+01 4.067411e+01 4.950602e+01 4.974838e+01 4.952216e+01 4.944021e+01 4.920399e+01 4.944021e+01 4.952216e+01 4.974838e+01 4.950602e+01 4.067411e+01 1.842989e+01 -7.033057e+00 -1.834839e+01 -1.884740e+01 -1.644413e+01 -1.626908e+01 -1.565006e+01 -1.522649e+01 -1.534752e+01 -1.478801e+01 
-1.507180e+01 -1.475014e+01 -1.515997e+01 -1.508147e+01 -1.539426e+01 -1.585948e+01 -1.610851e+01 -1.755632e+01 -1.869793e+01 -1.809420e+01 -9.733213e+00 1.236596e+01 3.363040e+01 4.317765e+01 4.893484e+01 5.053046e+01 5.012507e+01 5.053046e+01 4.893484e+01 4.317765e+01 3.363040e+01 1.236596e+01 -9.733213e+00 -1.809420e+01 -1.869793e+01 -1.755632e+01 -1.610851e+01 -1.585948e+01 -1.539426e+01 -1.508147e+01 -1.515997e+01 -1.475014e+01 
-1.495039e+01 -1.471472e+01 -1.501687e+01 -1.496268e+01 -1.522232e+01 -1.550737e+01 -1.578973e+01 -1.649122e+01 -1.732474e+01 -1.738719e+01 -1.747920e+01 -1.214217e+01 -9.607996e-01 1.045690e+01 2.121790e+01 2.691971e+01 2.873377e+01 2.691971e+01 2.121790e+01 1.045690e+01 -9.607996e-01 -1.214217e+01 -1.747920e+01 -1.738719e+01 -1.732474e+01 -1.649122e+01 -1.578973e+01 -1.550737e+01 -1.522232e+01 -1.496268e+01 -1.501687e+01 -1.471472e+01 
-1.482688e+01 -1.464823e+01 -1.485929e+01 -1.480746e+01 -1.498188e+01 -1.516304e+01 -1.533661e+01 -1.570872e+01 -1.607621e+01 -1.606629e+01 -1.596866e+01 -1.478452e+01 -1.446775e+01 -1.253802e+01 -9.260957e+00 -7.047390e+00 -5.064791e+00 -7.047390e+00 -9.260957e+00 -1.253802e+01 -1.446775e+01 -1.478452e+01 -1.596866e+01 -1.606629e+01 -1.607621e+01 -1.570872e+01 -1.533661e+01 -1.516304e+01 -1.498188e+01 -1.480746e+01 -1.485929e+01 -1.464823e+01 
-1.471983e+01 -1.457129e+01 -1.473184e+01 -1.465850e+01 -1.479211e+01 -1.484779e+01 -1.497009e+01 -1.507768e+01 -1.518456e+01 -1.495607e+01 -1.464144e+01 -1.357976e+01 -1.228606e+01 -1.175995e+01 -1.164852e+01 -1.168957e+01 -1.093516e+01 -1.168957e+01 -1.164852e+01 -1.175995e+01 -1.228606e+01 -1.357976e+01 -1.464144e+01 -1.495607e+01 -1.518456e+01 -1.507768e+01 -1.497009e+01 -1.484779e+01 -1.479211e+01 -1.465850e+01 -1.473184e+01 -1.457129e+01 
-1.460682e+01 -1.449478e+01 -1.459904e+01 -1.453008e+01 -1.460162e+01 -1.461770e+01 -1.466519e+01 -1.471159e+01 -1.471788e+01 -1.456127e+01 -1.427361e+01 -1.371006e+01 -1.312305e+01 -1.246530e+01 -1.136004e+01 -1.091430e+01 -1.023046e+01 -1.091430e+01 -1.136004e+01 -1.246530e+01 -1.312305e+01 -1.371006e+01 -1.427361e+01 -1.456127e+01 -1.471788e+01 -1.471159e+01 -1.466519e+01 -1.461770e+01 -1.460162e+01 -1.453008e+01 -1.459904e+01 -1.449478e+01 
-1.450041e+01 -1.439513e+01 -1.447786e+01 -1.438445e+01 -1.442824e+01 -1.437321e+01 -1.437780e+01 -1.432763e+01 -1.425977e+01 -1.409387e+01 -1.380699e+01 -1.345477e+01 -1.284421e+01 -1.262639e+01 -1.212513e+01 -1.201565e+01 -1.154729e+01 -1.201565e+01 -1.212513e+01 -1.262639e+01 -1.284421e+01 -1.345477e+01 -1.380699e+01 -1.409387e+01 -1.425977e+01 -1.432763e+01 -1.437780e+01 -1.437321e+01 -1.442824e+01 -1.438445e+01 -1.447786e+01 -1.439513e+01 
-1.441147e+01 -1.433221e+01 -1.437911e+01 -1.429499e+01 -1.429580e+01 -1.422863e+01 -1.418265e+01 -1.411734e+01 -1.400818e+01 -1.388332e+01 -1.362343e+01 -1.338578e+01 -1.289399e+01 -1.257893e+01 -1.176918e+01 -1.138436e+01 -1.083798e+01 -1.138436e+01 -1.176918e+01 -1.257893e+01 -1.289399e+01 -1.338578e+01 -1.362343e+01 -1.388332e+01 -1.400818e+01 -1.411734e+01 -1.418265e+01 -1.422863e+01 -1.429580e+01 -1.429499e+01 -1.437911e+01 -1.433221e+01 
-1.433143e+01 -1.424782e+01 -1.429002e+01 -1.418587e+01 -1.417396e+01 -1.406704e+01 -1.399685e+01 -1.388942e+01 -1.375130e+01 -1.363426e+01 -1.338114e+01 -1.323525e+01 -1.276185e+01 -1.252099e+01 -1.178660e+01 -1.138365e+01 -1.083495e+01 -1.138365e+01 -1.178660e+01 -1.252099e+01 -1.276185e+01 -1.323525e+01 -1.338114e+01 -1.363426e+01 -1.375130e+01 -1.388942e+01 -1.399685e+01 -1.406704e+01 -1.417396e+01 -1.418587e+01 -1.429002e+01 -1.424782e+01 
-1.429245e+01 -1.422719e+01 -1.424759e+01 -1.415530e+01 -1.411730e+01 -1.401124e+01 -1.390779e+01 -1.378996e+01 -1.361253e+01 -1.347762e+01 -1.318390e+01 -1.298901e+01 -1.244958e+01 -1.206051e+01 -1.111374e+01 -1.053616e+01 -9.874189e+00 -1.053616e+01 -1.111374e+01 -1.206051e+01 -1.244958e+01 -1.298901e+01 -1.318390e+01 -1.347762e+01 -1.361253e+01 -1.378996e+01 -1.390779e+01 -1.401124e+01 -1.411730e+01 -1.415530e+01 -1.424759e+01 -1.422719e+01 
