# vtk DataFile Version 2.0
Comment goes here
ASCII

DATASET STRUCTURED_POINTS
FIELD FieldData 1
TIME 1 1 double
1.10000000
DIMENSIONS    32   32   1

ORIGIN    0.000   0.000   0.000
SPACING   0.03125 0.03125   1.000

POINT_DATA   1024
SCALARS P double
LOOKUP_TABLE default

-1.003648e+01 -1.000691e+01 -1.011243e+01 -1.017041e+01 -1.034441e+01 -1.051466e+01 -1.078248e+01 -1.110908e+01 -1.150015e+01 -1.196011e+01 -1.238585e+01 -1.279141e+01 -1.300005e+01 -1.309535e+01 -1.285893e+01 -1.267769e+01 -1.242666e+01 -1.267769e+01 -1.285893e+01 -1.309535e+01 -1.300005e+01 -1.279141e+01 -1.238585e+01 -1.196011e+01 -1.150015e+01 -1.110908e+01 -1.078248e+01 -1.051466e+01 -1.034441e+01 -1.017041e+01 -1.011243e+01 -1.000691e+01 
-9.964998e+00 -9.921132e+00 -1.004318e+01 -1.008965e+01 -1.028454e+01 -1.044872e+01 -1.074319e+01 -1.107096e+01 -1.149092e+01 -1.196095e+01 -1.241083e+01 -1.283942e+01 -1.306259e+01 -1.317208e+01 -1.294627e+01 -1.266347e+01 -1.246018e+01 -1.266347e+01 -1.294627e+01 -1.317208e+01 -1.306259e+01 -1.283942e+01 -1.241083e+01 -1.196095e+01 -1.149092e+01 -1.107096e+01 -1.074319e+01 -1.044872e+01 -1.028454e+01 -1.008965e+01 -1.004318e+01 -9.921132e+00 
-9.960936e+00 -9.926392e+00 -1.004029e+01 -1.009997e+01 -1.028843e+01 -1.047523e+01 -1.076841e+01 -1.113245e+01 -1.156342e+01 -1.208008e+01 -1.256992e+01 -1.304913e+01 -1.336236e+01 -1.355461e+01 -1.341765e+01 -1.334839e+01 -1.310010e+01 -1.334839e+01 -1.341765e+01 -1.355461e+01 -1.336236e+01 -1.304913e+01 -1.256992e+01 -1.208008e+01 -1.156342e+01 -1.113245e+01 -1.076841e+01 -1.047523e+01 -1.028843e+01 -1.009997e+01 -1.004029e+01 -9.926392e+00 
-9.811445e+00 -9.757796e+00 -9.895563e+00 -9.943243e+00 -1.016340e+01 -1.035223e+01 -1.068983e+01 -1.107556e+01 -1.156588e+01 -1.212899e+01 -1.269393e+01 -1.326449e+01 -1.364202e+01 -1.397078e+01 -1.381652e+01 -1.354490e+01 -1.334515e+01 -1.354490e+01 -1.381652e+01 -1.397078e+01 -1.364202e+01 -1.326449e+01 -1.269393e+01 -1.212899e+01 -1.156588e+01 -1.107556e+01 -1.068983e+01 -1.035223e+01 -1.016340e+01 -9.943243e+00 -9.895563e+00 -9.757796e+00 
-9.739575e+00 -9.689752e+00 -9.830848e+00 -9.891277e+00 -1.011378e+01 -1.032459e+01 -1.065521e+01 -1.107494e+01 -1.155099e+01 -1.216145e+01 -1.274944e+01 -1.335653e+01 -1.389168e+01 -1.418670e+01 -1.420278e+01 -1.443067e+01 -1.414636e+01 -1.443067e+01 -1.420278e+01 -1.418670e+01 -1.389168e+01 -1.335653e+01 -1.274944e+01 -1.216145e+01 -1.155099e+01 -1.107494e+01 -1.065521e+01 -1.032459e+01 -1.011378e+01 -9.891277e+00 -9.830848e+00 -9.689752e+00 
-9.529533e+00 -9.455631e+00 -9.626700e+00 -9.667728e+00 -9.918748e+00 -1.011277e+01 -1.047174e+01 -1.088652e+01 -1.141478e+01 -1.206153e+01 -1.278424e+01 -1.354483e+01 -1.422193e+01 -1.492747e+01 -1.447149e+01 -1.382713e+01 -1.357455e+01 -1.382713e+01 -1.447149e+01 -1.492747e+01 -1.422193e+01 -1.354483e+01 -1.278424e+01 -1.206153e+01 -1.141478e+01 -1.088652e+01 -1.047174e+01 -1.011277e+01 -9.918748e+00 -9.667728e+00 -9.626700e+00 -9.455631e+00 
-9.425292e+00 -9.347912e+00 -9.537474e+00 -9.583925e+00 -9.840146e+00 -1.003257e+01 -1.035448e+01 -1.077300e+01 -1.120624e+01 -1.190466e+01 -1.252867e+01 -1.336473e+01 -1.433471e+01 -1.436591e+01 -1.443922e+01 -1.536746e+01 -1.502135e+01 -1.536746e+01 -1.443922e+01 -1.436591e+01 -1.433471e+01 -1.336473e+01 -1.252867e+01 -1.190466e+01 -1.120624e+01 -1.077300e+01 -1.035448e+01 -1.003257e+01 -9.840146e+00 -9.583925e+00 -9.537474e+00 -9.347912e+00 
-9.212063e+00 -9.103994e+00 -9.324810e+00 -9.331623e+00 -9.589751e+00 -9.714987e+00 -1.000443e+01 -1.035300e+01 -1.078784e+01 -1.148732e+01 -1.241691e+01 -1.343338e+01 -1.537963e+01 -1.724069e+01 -1.396298e+01 -1.073328e+01 -1.052268e+01 -1.073328e+01 -1.396298e+01 -1.724069e+01 -1.537963e+01 -1.343338e+01 -1.241691e+01 -1.148732e+01 -1.078784e+01 -1.035300e+01 -1.000443e+01 -9.714987e+00 -9.589751e+00 -9.331623e+00 -9.324810e+00 -9.103994e+00 
-9.117401e+00 -8.994636e+00 -9.250667e+00 -9.242725e+00 -9.510490e+00 -9.585947e+00 -9.820436e+00 -1.011941e+01 -1.036861e+01 -1.116817e+01 -1.149015e+01 -1.329811e+01 -1.137902e+01 -7.224838e-01 1.584347e+01 2.637750e+01 2.733001e+01 2.637750e+01 1.584347e+01 -7.224838e-01 -1.137902e+01 -1.329811e+01 -1.149015e+01 -1.116817e+01 -1.036861e+01 -1.011941e+01 -9.820436e+00 -9.585947e+00 -9.510490e+00 -9.242725e+00 -9.250667e+00 -8.994636e+00 
-8.946655e+00 -8.782481e+00 -9.071677e+00 -8.993295e+00 -9.222007e+00 -9.154248e+00 -9.229939e+00 -9.338674e+00 -9.299789e+00 -9.984474e+00 -1.019600e+01 -4.506190e+00 1.288909e+01 3.213449e+01 4.577036e+01 5.146587e+01 5.190247e+01 5.146587e+01 4.577036e+01 3.213449e+01 1.288909e+01 -4.506190e+00 -1.019600e+01 -9.984474e+00 -9.299789e+00 -9.338674e+00 -9.229939e+00 -9.154248e+00 -9.222007e+00 -8.993295e+00 -9.071677e+00 -8.782481e+00 
-8.822448e+00 -8.629587e+00 -8.972839e+00 -8.848240e+00 -9.112982e+00 -8.921910e+00 -9.018197e+00 -8.945519e+00 -8.973810e+00 -9.508283e+00 -5.755287e+00 1.425398e+01 3.992473e+01 4.851856e+01 4.892023e+01 4.894098e+01 4.888397e+01 4.894098e+01 4.892023e+01 4.851856e+01 3.992473e+01 1.425398e+01 -5.755287e+00 -9.508283e+00 -8.973810e+00 -8.945519e+00 -9.018197e+00 -8.921910e+00 -9.112982e+00 -8.848240e+00 -8.972839e+00 -8.629587e+00 
-8.646533e+00 -8.396546e+00 -8.806531e+00 -8.591482e+00 -8.844330e+00 -8.446573e+00 -8.317040e+00 -7.864601e+00 -6.980065e+00 -7.116068e+00 8.254233e+00 3.413557e+01 4.724461e+01 4.777172e+01 4.821847e+01 4.915590e+01 4.905437e+01 4.915590e+01 4.821847e+01 4.777172e+01 4.724461e+01 3.413557e+01 8.254233e+00 -7.116068e+00 -6.980065e+00 -7.864601e+00 -8.317040e+00 -8.446573e+00 -8.844330e+00 -8.591482e+00 -8.806531e+00 -8.396546e+00 
-8.340979e+00 -8.060782e+00 -8.547239e+00 -8.271672e+00 -8.615229e+00 -7.974967e+00 -8.093685e+00 -6.945156e+00 -7.454927e+00 -1.566525e+00 2.489112e+01 4.465323e+01 4.692433e+01 4.739696e+01 4.754364e+01 4.791870e+01 4.770812e+01 4.791870e+01 4.754364e+01 4.739696e+01 4.692433e+01 4.465323e+01 2.489112e+01 -1.566525e+00 -7.454927e+00 -6.945156e+00 -8.093685e+00 -7.974967e+00 -8.615229e+00 -8.271672e+00 -8.547239e+00 -8.060782e+00 
-8.024433e+00 -7.677161e+00 -8.299731e+00 -7.942894e+00 -8.473091e+00 -7.574497e+00 -7.980607e+00 -6.183921e+00 -7.639043e+00 4.324929e+00 3.532668e+01 4.691236e+01 4.641974e+01 4.741125e+01 4.726202e+01 4.802582e+01 4.766600e+01 4.802582e+01 4.726202e+01 4.741125e+01 4.641974e+01 4.691236e+01 3.532668e+01 4.324929e+00 -7.639043e+00 -6.183921e+00 -7.980607e+00 -7.574497e+00 -8.473091e+00 -7.942894e+00 -8.299731e+00 -7.677161e+00 
-7.437439e+00 -7.101251e+00 -7.780252e+00 -7.479866e+00 -8.044773e+00 -7.149111e+00 -7.222113e+00 -5.482977e+00 -5.267488e+00 1.092522e+01 4.074047e+01 4.632340e+01 4.563655e+01 4.698708e+01 4.664816e+01 4.737381e+01 4.693754e+01 4.737381e+01 4.664816e+01 4.698708e+01 4.563655e+01 4.632340e+01 4.074047e+01 1.092522e+01 -5.267488e+00 -5.482977e+00 -7.222113e+00 -7.149111e+00 -8.044773e+00 -7.479866e+00 -7.780252e+00 -7.101251e+00 
-7.046611e+00 -6.669004e+00 -7.412910e+00 -7.107466e+00 -7.677613e+00 -6.799231e+00 -6.483190e+00 -4.933824e+00 -3.524539e+00 1.645781e+01 4.411585e+01 4.591518e+01 4.579455e+01 4.694545e+01 4.670261e+01 4.749258e+01 4.703097e+01 4.749258e+01 4.670261e+01 4.694545e+01 4.579455e+01 4.591518e+01 4.411585e+01 1.645781e+01 -3.524539e+00 -4.933824e+00 -6.483190e+00 -6.799231e+00 -7.677613e+00 -7.107466e+00 -7.412910e+00 -6.669004e+00 
-6.658599e+00 -6.313862e+00 -7.016849e+00 -6.754780e+00 -7.206021e+00 -6.317898e+00 -5.541016e+00 -3.802895e+00 -1.613678e+00 1.918813e+01 4.527714e+01 4.605277e+01 4.579630e+01 4.682019e+01 4.645549e+01 4.719438e+01 4.669867e+01 4.719438e+01 4.645549e+01 4.682019e+01 4.579630e+01 4.605277e+01 4.527714e+01 1.918813e+01 -1.613678e+00 -3.802895e+00 -5.541016e+00 -6.317898e+00 -7.206021e+00 -6.754780e+00 -7.016849e+00 -6.313862e+00 
-7.046611e+00 -6.669004e+00 -7.412910e+00 -7.107466e+00 -7.677613e+00 -6.799231e+00 -6.483190e+00 -4.933824e+00 -3.524539e+00 1.645781e+01 4.411585e+01 4.591518e+01 4.579455e+01 4.694545e+01 4.670261e+01 4.749258e+01 4.703097e+01 4.749258e+01 4.670261e+01 4.694545e+01 4.579455e+01 4.591518e+01 4.411585e+01 1.645781e+01 -3.524539e+00 -4.933824e+00 -6.483190e+00 -6.799231e+00 -7.677613e+00 -7.107466e+00 -7.412910e+00 -6.669004e+00 
-7.437439e+00 -7.101251e+00 -7.780252e+00 -7.479866e+00 -8.044773e+00 -7.149111e+00 -7.222113e+00 -5.482977e+00 -5.267488e+00 1.092522e+01 4.074047e+01 4.632340e+01 4.563655e+01 4.698708e+01 4.664816e+01 4.737381e+01 4.693754e+01 4.737381e+01 4.664816e+01 4.698708e+01 4.563655e+01 4.632340e+01 4.074047e+01 1.092522e+01 -5.267488e+00 -5.482977e+00 -7.222113e+00 -7.149111e+00 -8.044773e+00 -7.479866e+00 -7.780252e+00 -7.101251e+00 
-8.024433e+00 -7.677161e+00 -8.299731e+00 -7.942894e+00 -8.473091e+00 -7.574497e+00 -7.980607e+00 -6.183921e+00 -7.639043e+00 4.324929e+00 3.532668e+01 4.691236e+01 4.641974e+01 4.741125e+01 4.726202e+01 4.802582e+01 4.766600e+01 4.802582e+01 4.726202e+01 4.741125e+01 4.641974e+01 4.691236e+01 3.532668e+01 4.324929e+00 -7.639043e+00 -6.183921e+00 -7.980607e+00 -7.574497e+00 -8.473091e+00 -7.942894e+00 -8.299731e+00 -7.677161e+00 
-8.340979e+00 -8.060782e+00 -8.547239e+00 -8.271672e+00 -8.615229e+00 -7.974967e+00 -8.093685e+00 -6.945156e+00 -7.454927e+00 -1.566525e+00 2.489112e+01 4.465323e+01 4.692433e+01 4.739696e+01 4.754364e+01 4.791870e+01 4.770812e+01 4.791870e+01 4.754364e+01 4.739696e+01 4.692433e+01 4.465323e+01 2.489112e+01 -1.566525e+00 -7.454927e+00 -6.945156e+00 -8.093685e+00 -7.974967e+00 -8.615229e+00 -8.271672e+00 -8.547239e+00 -8.060782e+00 
-8.646533e+00 -8.396546e+00 -8.806531e+00 -8.591482e+00 -8.844330e+00 -8.446573e+00 -8.317040e+00 -7.864601e+00 -6.980065e+00 -7.116068e+00 8.254233e+00 3.413557e+01 4.724461e+01 4.777172e+01 4.821847e+01 4.915590e+01 4.905437e+01 4.915590e+01 4.821847e+01 4.777172e+01 4.724461e+01 3.413557e+01 8.254233e+00 -7.116068e+00 -6.980065e+00 -7.864601e+00 -8.317040e+00 -8.446573e+00 -8.844330e+00 -8.591482e+00 -8.806531e+00 -8.396546e+00 
-8.822448e+00 -8.629587e+00 -8.972839e+00 -8.848240e+00 -9.112982e+00 -8.921910e+00 -9.018197e+00 -8.945519e+00 -8.973810e+00 -9.508283e+00 -5.755287e+00 1.425398e+01 3.992473e+01 4.851856e+01 4.892023e+01 4.894098e+01 4.888397e+01 4.894098e+01 4.892023e+01 4.851856e+01 3.992473e+01 1.425398e+01 -5.755287e+00 -9.508283e+00 -8.973810e+00 -8.945519e+00 -9.018197e+00 -8.921910e+00 -9.112982e+00 -8.848240e+00 -8.972839e+00 -8.629587e+00 
-8.946655e+00 -8.782481e+00 -9.071677e+00 -8.993295e+00 -9.222007e+00 -9.154248e+00 -9.229939e+00 -9.338674e+00 -9.299789e+00 -9.984474e+00 -1.019600e+01 -4.506190e+00 1.288909e+01 3.213449e+01 4.577036e+01 5.146587e+01 5.190247e+01 5.146587e+01 4.577036e+01 3.213449e+01 1.288909e+01 -4.506190e+00 -1.019600e+01 -9.984474e+00 -9.299789e+00 -9.338674e+00 -9.229939e+00 -9.154248e+00 -9.222007e+00 -8.993295e+00 -9.071677e+00 -8.782481e+00 
-9.117401e+00 -8.994636e+00 -9.250667e+00 -9.242725e+00 -9.510490e+00 -9.585947e+00 -9.820436e+00 -1.011941e+01 -1.036861e+01 -1.116817e+01 -1.149015e+01 -1.329811e+01 -1.137902e+01 -7.224838e-01 1.584347e+01 2.637750e+01 2.733001e+01 2.637750e+01 1.584347e+01 -7.224838e-01 -1.137902e+01 -1.329811e+01 -1.149015e+01 -1.116817e+01 -1.036861e+01 -1.011941e+01 -9.820436e+00 -9.585947e+00 -9.510490e+00 -9.242725e+00 -9.250667e+00 -8.994636e+00 
-9.212063e+00 -9.103994e+00 -9.324810e+00 -9.331623e+00 -9.589751e+00 -9.714987e+00 -1.000443e+01 -1.035300e+01 -1.078784e+01 -1.148732e+01 -1.241691e+01 -1.343338e+01 -1.537963e+01 -1.724069e+01 -1.396298e+01 -1.073328e+01 -1.052268e+01 -1.073328e+01 -1.396298e+01 -1.724069e+01 -1.537963e+01 -1.343338e+01 -1.241691e+01 -1.148732e+01 -1.078784e+01 -1.035300e+01 -1.000443e+01 -9.714987e+00 -9.589751e+00 -9.331623e+00 -9.324810e+00 -9.103994e+00 
-9.425292e+00 -9.347912e+00 -9.537474e+00 -9.583925e+00 -9.840146e+00 -1.003257e+01 -1.035448e+01 -1.077300e+01 -1.120624e+01 -1.190466e+01 -1.252867e+01 -1.336473e+01 -1.433471e+01 -1.436591e+01 -1.443922e+01 -1.536746e+01 -1.502135e+01 -1.536746e+01 -1.443922e+01 -1.436591e+01 -1.433471e+01 -1.336473e+01 -1.252867e+01 -1.190466e+01 -1.120624e+01 -1.077300e+01 -1.035448e+01 -1.003257e+01 -9.840146e+00 -9.583925e+00 -9.537474e+00 -9.347912e+00 
-9.529533e+00 -9.455631e+00 -9.626700e+00 -9.667728e+00 -9.918748e+00 -1.011277e+01 -1.047174e+01 -1.088652e+01 -1.141478e+01 -1.206153e+01 -1.278424e+01 -1.354483e+01 -1.422193e+01 -1.492747e+01 -1.447149e+01 -1.382713e+01 -1.357455e+01 -1.382713e+01 -1.447149e+01 -1.492747e+01 -1.422193e+01 -1.354483e+01 -1.278424e+01 -1.206153e+01 -1.141478e+01 -1.088652e+01 -1.047174e+01 -1.011277e+01 -9.918748e+00 -9.667728e+00 -9.626700e+00 -9.455631e+00 
-9.739575e+00 -9.689752e+00 -9.830848e+00 -9.891277e+00 -1.011378e+01 -1.032459e+01 -1.065521e+01 -1.107494e+01 -1.155099e+01 -1.216145e+01 -1.274944e+01 -1.335653e+01 -1.389168e+01 -1.418670e+01 -1.420278e+01 -1.443067e+01 -1.414636e+01 -1.443067e+01 -1.420278e+01 -1.418670e+01 -1.389168e+01 -1.335653e+01 -1.274944e+01 -1.216145e+01 -1.155099e+01 -1.107494e+01 -1.065521e+01 -1.032459e+01 -1.011378e+01 -9.891277e+00 -9.830848e+00 -9.689752e+00 
-9.811445e+00 -9.757796e+00 -9.895563e+00 -9.943243e+00 -1.016340e+01 -1.035223e+01 -1.068983e+01 -1.107556e+01 -1.156588e+01 -1.212899e+01 -1.269393e+01 -1.326449e+01 -1.364202e+01 -1.397078e+01 -1.381652e+01 -1.354490e+01 -1.334515e+01 -1.354490e+01 -1.381652e+01 -1.397078e+01 -1.364202e+01 -1.326449e+01 -1.269393e+01 -1.212899e+01 -1.156588e+01 -1.107556e+01 -1.068983e+01 -1.035223e+01 -1.016340e+01 -9.943243e+00 -9.895563e+00 -9.757796e+00 
-9.960936e+00 -9.926392e+00 -1.004029e+01 -1.009997e+01 -1.028843e+01 -1.047523e+01 -1.076841e+01 -1.113245e+01 -1.156342e+01 -1.208008e+01 -1.256992e+01 -1.304913e+01 -1.336236e+01 -1.355461e+01 -1.341765e+01 -1.334839e+01 -1.310010e+01 -1.334839e+01 -1.341765e+01 -1.355461e+01 -1.336236e+01 -1.304913e+01 -1.256992e+01 -1.208008e+01 -1.156342e+01 -1.113245e+01 -1.076841e+01 -1.047523e+01 -1.028843e+01 -1.009997e+01 -1.004029e+01 -9.926392e+00 
-9.964998e+00 -9.921132e+00 -1.004318e+01 -1.008965e+01 -1.028454e+01 -1.044872e+01 -1.074319e+01 -1.107096e+01 -1.149092e+01 -1.196095e+01 -1.241083e+01 -1.283942e+01 -1.306259e+01 -1.317208e+01 -1.294627e+01 -1.266347e+01 -1.246018e+01 -1.266347e+01 -1.294627e+01 -1.317208e+01 -1.306259e+01 -1.283942e+01 -1.241083e+01 -1.196095e+01 -1.149092e+01 -1.107096e+01 -1.074319e+01 -1.044872e+01 -1.028454e+01 -1.008965e+01 -1.004318e+01 -9.921132e+00 
