# vtk DataFile Version 2.0
Comment goes here
ASCII

DATASET STRUCTURED_POINTS
FIELD FieldData 1
TIME 1 1 double
1.20000000
DIMENSIONS    32   32   1

ORIGIN    0.000   0.000   0.000
SPACING   0.03125 0.03125   1.000

POINT_DATA   1024
SCALARS P double
LOOKUP_TABLE default

-9.304189e+00 -9.183122e+00 -9.265413e+00 -9.108038e+00 -9.153980e+00 -8.986488e+00 -9.023793e+00 -8.910970e+00 -8.959231e+00 -8.929821e+00 -8.903847e+00 -8.860525e+00 -8.573185e+00 -8.355407e+00 -7.744917e+00 -7.442708e+00 -7.044629e+00 -7.442708e+00 -7.744917e+00 -8.355407e+00 -8.573185e+00 -8.860525e+00 -8.903847e+00 -8.929821e+00 -8.959231e+00 -8.910970e+00 -9.023793e+00 -8.986488e+00 -9.153980e+00 -9.108038e+00 -9.265413e+00 -9.183122e+00 
-9.267998e+00 -9.167273e+00 -9.227547e+00 -9.090491e+00 -9.113798e+00 -8.969271e+00 -8.986963e+00 -8.899928e+00 -8.937216e+00 -8.931299e+00 -8.909817e+00 -8.880774e+00 -8.620658e+00 -8.415684e+00 -7.860918e+00 -7.572297e+00 -7.200712e+00 -7.572297e+00 -7.860918e+00 -8.415684e+00 -8.620658e+00 -8.880774e+00 -8.909817e+00 -8.931299e+00 -8.937216e+00 -8.899928e+00 -8.986963e+00 -8.969271e+00 -9.113798e+00 -9.090491e+00 -9.227547e+00 -9.167273e+00 
-9.343462e+00 -9.222435e+00 -9.309871e+00 -9.155872e+00 -9.217482e+00 -9.057056e+00 -9.123959e+00 -9.019290e+00 -9.105557e+00 -9.083657e+00 -9.094253e+00 -9.075517e+00 -8.829529e+00 -8.687820e+00 -8.127152e+00 -7.858134e+00 -7.465402e+00 -7.858134e+00 -8.127152e+00 -8.687820e+00 -8.829529e+00 -9.075517e+00 -9.094253e+00 -9.083657e+00 -9.105557e+00 -9.019290e+00 -9.123959e+00 -9.057056e+00 -9.217482e+00 -9.155872e+00 -9.309871e+00 -9.222435e+00 
-9.351383e+00 -9.249966e+00 -9.322334e+00 -9.192227e+00 -9.243661e+00 -9.110002e+00 -9.170707e+00 -9.088816e+00 -9.170177e+00 -9.157266e+00 -9.170762e+00 -9.150270e+00 -8.939809e+00 -8.839293e+00 -8.408126e+00 -8.221218e+00 -7.867207e+00 -8.221218e+00 -8.408126e+00 -8.839293e+00 -8.939809e+00 -9.150270e+00 -9.170762e+00 -9.157266e+00 -9.170177e+00 -9.088816e+00 -9.170707e+00 -9.110002e+00 -9.243661e+00 -9.192227e+00 -9.322334e+00 -9.249966e+00 
-9.459539e+00 -9.342155e+00 -9.445954e+00 -9.305824e+00 -9.406253e+00 -9.253952e+00 -9.377543e+00 -9.253170e+00 -9.394739e+00 -9.315973e+00 -9.361182e+00 -9.306074e+00 -9.090237e+00 -9.072245e+00 -8.529215e+00 -8.299422e+00 -7.881493e+00 -8.299422e+00 -8.529215e+00 -9.072245e+00 -9.090237e+00 -9.306074e+00 -9.361182e+00 -9.315973e+00 -9.394739e+00 -9.253170e+00 -9.377543e+00 -9.253952e+00 -9.406253e+00 -9.305824e+00 -9.445954e+00 -9.342155e+00 
-9.525750e+00 -9.427684e+00 -9.527356e+00 -9.416446e+00 -9.513819e+00 -9.383217e+00 -9.486861e+00 -9.357915e+00 -9.446476e+00 -9.317997e+00 -9.291034e+00 -9.116800e+00 -8.855932e+00 -8.775872e+00 -8.442315e+00 -8.418349e+00 -7.998298e+00 -8.418349e+00 -8.442315e+00 -8.775872e+00 -8.855932e+00 -9.116800e+00 -9.291034e+00 -9.317997e+00 -9.446476e+00 -9.357915e+00 -9.486861e+00 -9.383217e+00 -9.513819e+00 -9.416446e+00 -9.527356e+00 -9.427684e+00 
-9.678889e+00 -9.576089e+00 -9.707359e+00 -9.599286e+00 -9.746234e+00 -9.588873e+00 -9.758512e+00 -9.542956e+00 -9.715373e+00 -9.435316e+00 -9.486364e+00 -9.185992e+00 -8.995710e+00 -9.022374e+00 -8.048855e+00 -7.577699e+00 -6.944370e+00 -7.577699e+00 -8.048855e+00 -9.022374e+00 -8.995710e+00 -9.185992e+00 -9.486364e+00 -9.435316e+00 -9.715373e+00 -9.542956e+00 -9.758512e+00 -9.588873e+00 -9.746234e+00 -9.599286e+00 -9.707359e+00 -9.576089e+00 
-9.833371e+00 -9.747670e+00 -9.889780e+00 -9.813927e+00 -9.966698e+00 -9.824541e+00 -9.967274e+00 -9.738963e+00 -9.817773e+00 -9.486412e+00 -9.356363e+00 -8.697850e+00 -8.209030e+00 -7.868900e+00 -7.605072e+00 -7.817209e+00 -7.026703e+00 -7.817209e+00 -7.605072e+00 -7.868900e+00 -8.209030e+00 -8.697850e+00 -9.356363e+00 -9.486412e+00 -9.817773e+00 -9.738963e+00 -9.967274e+00 -9.824541e+00 -9.966698e+00 -9.813927e+00 -9.889780e+00 -9.747670e+00 
-1.003615e+01 -9.965950e+00 -1.012727e+01 -1.007533e+01 -1.026140e+01 -1.009888e+01 -1.031155e+01 -9.970679e+00 -1.023043e+01 -9.661428e+00 -9.906580e+00 -8.907902e+00 -9.243068e+00 -9.567687e+00 -6.571377e+00 -4.682428e+00 -3.377244e+00 -4.682428e+00 -6.571377e+00 -9.567687e+00 -9.243068e+00 -8.907902e+00 -9.906580e+00 -9.661428e+00 -1.023043e+01 -9.970679e+00 -1.031155e+01 -1.009888e+01 -1.026140e+01 -1.007533e+01 -1.012727e+01 -9.965950e+00 
-1.025805e+01 -1.020174e+01 -1.038783e+01 -1.036462e+01 -1.057561e+01 -1.042162e+01 -1.065991e+01 -1.034049e+01 -1.058289e+01 -1.034232e+01 -9.933144e+00 -8.348659e+00 -2.409580e+00 5.820978e+00 1.595381e+01 2.319912e+01 2.564705e+01 2.319912e+01 1.595381e+01 5.820978e+00 -2.409580e+00 -8.348659e+00 -9.933144e+00 -1.034232e+01 -1.058289e+01 -1.034049e+01 -1.065991e+01 -1.042162e+01 -1.057561e+01 -1.036462e+01 -1.038783e+01 -1.020174e+01 
-1.043161e+01 -1.042535e+01 -1.059850e+01 -1.063894e+01 -1.083838e+01 -1.072290e+01 -1.100927e+01 -1.062461e+01 -1.112598e+01 -1.030721e+01 -7.732877e+00 5.572863e+00 2.519967e+01 3.682540e+01 4.339488e+01 4.648777e+01 4.828955e+01 4.648777e+01 4.339488e+01 3.682540e+01 2.519967e+01 5.572863e+00 -7.732877e+00 -1.030721e+01 -1.112598e+01 -1.062461e+01 -1.100927e+01 -1.072290e+01 -1.083838e+01 -1.063894e+01 -1.059850e+01 -1.042535e+01 
-1.058597e+01 -1.060496e+01 -1.080546e+01 -1.088316e+01 -1.111980e+01 -1.098906e+01 -1.142317e+01 -1.080350e+01 -1.227382e+01 -8.420109e+00 5.704018e+00 2.924776e+01 4.443246e+01 4.698093e+01 4.680260e+01 4.589187e+01 4.683967e+01 4.589187e+01 4.680260e+01 4.698093e+01 4.443246e+01 2.924776e+01 5.704018e+00 -8.420109e+00 -1.227382e+01 -1.080350e+01 -1.142317e+01 -1.098906e+01 -1.111980e+01 -1.088316e+01 -1.080546e+01 -1.060496e+01 
-1.056364e+01 -1.068394e+01 -1.082349e+01 -1.103246e+01 -1.115849e+01 -1.118739e+01 -1.157202e+01 -1.126947e+01 -1.380955e+01 1.821964e+00 2.968064e+01 4.493537e+01 4.629356e+01 4.618905e+01 4.643216e+01 4.628983e+01 4.714930e+01 4.628983e+01 4.643216e+01 4.618905e+01 4.629356e+01 4.493537e+01 2.968064e+01 1.821964e+00 -1.380955e+01 -1.126947e+01 -1.157202e+01 -1.118739e+01 -1.115849e+01 -1.103246e+01 -1.082349e+01 -1.068394e+01 
-1.044967e+01 -1.063801e+01 -1.077879e+01 -1.111293e+01 -1.121066e+01 -1.142997e+01 -1.167748e+01 -1.186873e+01 -1.209315e+01 1.551596e+01 4.399046e+01 4.698769e+01 4.725581e+01 4.672221e+01 4.728886e+01 4.639305e+01 4.724812e+01 4.639305e+01 4.728886e+01 4.672221e+01 4.725581e+01 4.698769e+01 4.399046e+01 1.551596e+01 -1.209315e+01 -1.186873e+01 -1.167748e+01 -1.142997e+01 -1.121066e+01 -1.111293e+01 -1.077879e+01 -1.063801e+01 
-1.012004e+01 -1.044783e+01 -1.046674e+01 -1.102214e+01 -1.073819e+01 -1.132991e+01 -1.017591e+01 -1.133034e+01 -2.628812e+00 2.976963e+01 4.796912e+01 4.634192e+01 4.752205e+01 4.633058e+01 4.717744e+01 4.634503e+01 4.722098e+01 4.634503e+01 4.717744e+01 4.633058e+01 4.752205e+01 4.634192e+01 4.796912e+01 2.976963e+01 -2.628812e+00 -1.133034e+01 -1.017591e+01 -1.132991e+01 -1.073819e+01 -1.102214e+01 -1.046674e+01 -1.044783e+01 
-9.761942e+00 -1.015579e+01 -1.009975e+01 -1.075364e+01 -1.020834e+01 -1.087237e+01 -8.910486e+00 -9.939620e+00 3.559418e+00 3.978393e+01 4.958537e+01 4.679264e+01 4.822673e+01 4.672416e+01 4.772078e+01 4.657682e+01 4.756788e+01 4.657682e+01 4.772078e+01 4.672416e+01 4.822673e+01 4.679264e+01 4.958537e+01 3.978393e+01 3.559418e+00 -9.939620e+00 -8.910486e+00 -1.087237e+01 -1.020834e+01 -1.075364e+01 -1.009975e+01 -1.015579e+01 
-9.600769e+00 -1.003025e+01 -9.945693e+00 -1.061057e+01 -1.005309e+01 -1.054950e+01 -8.800741e+00 -9.498260e+00 3.502319e+00 4.099749e+01 5.020225e+01 4.642790e+01 4.820392e+01 4.640850e+01 4.750927e+01 4.639290e+01 4.737272e+01 4.639290e+01 4.750927e+01 4.640850e+01 4.820392e+01 4.642790e+01 5.020225e+01 4.099749e+01 3.502319e+00 -9.498260e+00 -8.800741e+00 -1.054950e+01 -1.005309e+01 -1.061057e+01 -9.945693e+00 -1.003025e+01 
-9.761942e+00 -1.015579e+01 -1.009975e+01 -1.075364e+01 -1.020834e+01 -1.087237e+01 -8.910486e+00 -9.939620e+00 3.559418e+00 3.978393e+01 4.958537e+01 4.679264e+01 4.822673e+01 4.672416e+01 4.772078e+01 4.657682e+01 4.756788e+01 4.657682e+01 4.772078e+01 4.672416e+01 4.822673e+01 4.679264e+01 4.958537e+01 3.978393e+01 3.559418e+00 -9.939620e+00 -8.910486e+00 -1.087237e+01 -1.020834e+01 -1.075364e+01 -1.009975e+01 -1.015579e+01 
-1.012004e+01 -1.044783e+01 -1.046674e+01 -1.102214e+01 -1.073819e+01 -1.132991e+01 -1.017591e+01 -1.133034e+01 -2.628812e+00 2.976963e+01 4.796912e+01 4.634192e+01 4.752205e+01 4.633058e+01 4.717744e+01 4.634503e+01 4.722098e+01 4.634503e+01 4.717744e+01 4.633058e+01 4.752205e+01 4.634192e+01 4.796912e+01 2.976963e+01 -2.628812e+00 -1.133034e+01 -1.017591e+01 -1.132991e+01 -1.073819e+01 -1.102214e+01 -1.046674e+01 -1.044783e+01 
-1.044967e+01 -1.063801e+01 -1.077879e+01 -1.111293e+01 -1.121066e+01 -1.142997e+01 -1.167748e+01 -1.186873e+01 -1.209315e+01 1.551596e+01 4.399046e+01 4.698769e+01 4.725581e+01 4.672221e+01 4.728886e+01 4.639305e+01 4.724812e+01 4.639305e+01 4.728886e+01 4.672221e+01 4.725581e+01 4.698769e+01 4.399046e+01 1.551596e+01 -1.209315e+01 -1.186873e+01 -1.167748e+01 -1.142997e+01 -1.121066e+01 -1.111293e+01 -1.077879e+01 -1.063801e+01 
-1.056364e+01 -1.068394e+01 -1.082349e+01 -1.103246e+01 -1.115849e+01 -1.118739e+01 -1.157202e+01 -1.126947e+01 -1.380955e+01 1.821964e+00 2.968064e+01 4.493537e+01 4.629356e+01 4.618905e+01 4.643216e+01 4.628983e+01 4.714930e+01 4.628983e+01 4.643216e+01 4.618905e+01 4.629356e+01 4.493537e+01 2.968064e+01 1.821964e+00 -1.380955e+01 -1.126947e+01 -1.157202e+01 -1.118739e+01 -1.115849e+01 -1.103246e+01 -1.082349e+01 -1.068394e+01 
-1.058597e+01 -1.060496e+01 -1.080546e+01 -1.088316e+01 -1.111980e+01 -1.098906e+01 -1.142317e+01 -1.080350e+01 -1.227382e+01 -8.420109e+00 5.704018e+00 2.924776e+01 4.443246e+01 4.698093e+01 4.680260e+01 4.589187e+01 4.683967e+01 4.589187e+01 4.680260e+01 4.698093e+01 4.443246e+01 2.924776e+01 5.704018e+00 -8.420109e+00 -1.227382e+01 -1.080350e+01 -1.142317e+01 -1.098906e+01 -1.111980e+01 -1.088316e+01 -1.080546e+01 -1.060496e+01 
-1.043161e+01 -1.042535e+01 -1.059850e+01 -1.063894e+01 -1.083838e+01 -1.072290e+01 -1.100927e+01 -1.062461e+01 -1.112598e+01 -1.030721e+01 -7.732877e+00 5.572863e+00 2.519967e+01 3.682540e+01 4.339488e+01 4.648777e+01 4.828955e+01 4.648777e+01 4.339488e+01 3.682540e+01 2.519967e+01 5.572863e+00 -7.732877e+00 -1.030721e+01 -1.112598e+01 -1.062461e+01 -1.100927e+01 -1.072290e+01 -1.083838e+01 -1.063894e+01 -1.059850e+01 -1.042535e+01 
-1.025805e+01 -1.020174e+01 -1.038783e+01 -1.036462e+01 -1.057561e+01 -1.042162e+01 -1.065991e+01 -1.034049e+01 -1.058289e+01 -1.034232e+01 -9.933144e+00 -8.348659e+00 -2.409580e+00 5.820978e+00 1.595381e+01 2.319912e+01 2.564705e+01 2.319912e+01 1.595381e+01 5.820978e+00 -2.409580e+00 -8.348659e+00 -9.933144e+00 -1.034232e+01 -1.058289e+01 -1.034049e+01 -1.065991e+01 -1.042162e+01 -1.057561e+01 -1.036462e+01 -1.038783e+01 -1.020174e+01 
-1.003615e+01 -9.965950e+00 -1.012727e+01 -1.007533e+01 -1.026140e+01 -1.009888e+01 -1.031155e+01 -9.970679e+00 -1.023043e+01 -9.661428e+00 -9.906580e+00 -8.907902e+00 -9.243068e+00 -9.567687e+00 -6.571377e+00 -4.682428e+00 -3.377244e+00 -4.682428e+00 -6.571377e+00 -9.567687e+00 -9.243068e+00 -8.907902e+00 -9.906580e+00 -9.661428e+00 -1.023043e+01 -9.970679e+00 -1.031155e+01 -1.009888e+01 -1.026140e+01 -1.007533e+01 -1.012727e+01 -9.965950e+00 
-9.833371e+00 -9.747670e+00 -9.889780e+00 -9.813927e+00 -9.966698e+00 -9.824541e+00 -9.967274e+00 -9.738963e+00 -9.817773e+00 -9.486412e+00 -9.356363e+00 -8.697850e+00 -8.209030e+00 -7.868900e+00 -7.605072e+00 -7.817209e+00 -7.026703e+00 -7.817209e+00 -7.605072e+00 -7.868900e+00 -8.209030e+00 -8.697850e+00 -9.356363e+00 -9.486412e+00 -9.817773e+00 -9.738963e+00 -9.967274e+00 -9.824541e+00 -9.966698e+00 -9.813927e+00 -9.889780e+00 -9.747670e+00 
-9.678889e+00 -9.576089e+00 -9.707359e+00 -9.599286e+00 -9.746234e+00 -9.588873e+00 -9.758512e+00 -9.542956e+00 -9.715373e+00 -9.435316e+00 -9.486364e+00 -9.185992e+00 -8.995710e+00 -9.022374e+00 -8.048855e+00 -7.577699e+00 -6.944370e+00 -7.577699e+00 -8.048855e+00 -9.022374e+00 -8.995710e+00 -9.185992e+00 -9.486364e+00 -9.435316e+00 -9.715373e+00 -9.542956e+00 -9.758512e+00 -9.588873e+00 -9.746234e+00 -9.599286e+00 -9.707359e+00 -9.576089e+00 
-9.525750e+00 -9.427684e+00 -9.527356e+00 -9.416446e+00 -9.513819e+00 -9.383217e+00 -9.486861e+00 -9.357915e+00 -9.446476e+00 -9.317997e+00 -9.291034e+00 -9.116800e+00 -8.855932e+00 -8.775872e+00 -8.442315e+00 -8.418349e+00 -7.998298e+00 -8.418349e+00 -8.442315e+00 -8.775872e+00 -8.855932e+00 -9.116800e+00 -9.291034e+00 -9.317997e+00 -9.446476e+00 -9.357915e+00 -9.486861e+00 -9.383217e+00 -9.513819e+00 -9.416446e+00 -9.527356e+00 -9.427684e+00 
-9.459539e+00 -9.342155e+00 -9.445954e+00 -9.305824e+00 -9.406253e+00 -9.253952e+00 -9.377543e+00 -9.253170e+00 -9.394739e+00 -9.315973e+00 -9.361182e+00 -9.306074e+00 -9.090237e+00 -9.072245e+00 -8.529215e+00 -8.299422e+00 -7.881493e+00 -8.299422e+00 -8.529215e+00 -9.072245e+00 -9.090237e+00 -9.306074e+00 -9.361182e+00 -9.315973e+00 -9.394739e+00 -9.253170e+00 -9.377543e+00 -9.253952e+00 -9.406253e+00 -9.305824e+00 -9.445954e+00 -9.342155e+00 
-9.351383e+00 -9.249966e+00 -9.322334e+00 -9.192227e+00 -9.243661e+00 -9.110002e+00 -9.170707e+00 -9.088816e+00 -9.170177e+00 -9.157266e+00 -9.170762e+00 -9.150270e+00 -8.939809e+00 -8.839293e+00 -8.408126e+00 -8.221218e+00 -7.867207e+00 -8.221218e+00 -8.408126e+00 -8.839293e+00 -8.939809e+00 -9.150270e+00 -9.170762e+00 -9.157266e+00 -9.170177e+00 -9.088816e+00 -9.170707e+00 -9.110002e+00 -9.243661e+00 -9.192227e+00 -9.322334e+00 -9.249966e+00 
-9.343462e+00 -9.222435e+00 -9.309871e+00 -9.155872e+00 -9.217482e+00 -9.057056e+00 -9.123959e+00 -9.019290e+00 -9.105557e+00 -9.083657e+00 -9.094253e+00 -9.075517e+00 -8.829529e+00 -8.687820e+00 -8.127152e+00 -7.858134e+00 -7.465402e+00 -7.858134e+00 -8.127152e+00 -8.687820e+00 -8.829529e+00 -9.075517e+00 -9.094253e+00 -9.083657e+00 -9.105557e+00 -9.019290e+00 -9.123959e+00 -9.057056e+00 -9.217482e+00 -9.155872e+00 -9.309871e+00 -9.222435e+00 
-9.267998e+00 -9.167273e+00 -9.227547e+00 -9.090491e+00 -9.113798e+00 -8.969271e+00 -8.986963e+00 -8.899928e+00 -8.937216e+00 -8.931299e+00 -8.909817e+00 -8.880774e+00 -8.620658e+00 -8.415684e+00 -7.860918e+00 -7.572297e+00 -7.200712e+00 -7.572297e+00 -7.860918e+00 -8.415684e+00 -8.620658e+00 -8.880774e+00 -8.909817e+00 -8.931299e+00 -8.937216e+00 -8.899928e+00 -8.986963e+00 -8.969271e+00 -9.113798e+00 -9.090491e+00 -9.227547e+00 -9.167273e+00 
