# vtk DataFile Version 2.0
Comment goes here
ASCII

DATASET STRUCTURED_POINTS
FIELD FieldData 1
TIME 1 1 double
1.24000000
DIMENSIONS    32   32   1

ORIGIN    0.000   0.000   0.000
SPACING   0.03125 0.03125   1.000

POINT_DATA   1024
SCALARS P double
LOOKUP_TABLE default

-8.987934e+00 -8.970082e+00 -9.034895e+00 -9.079595e+00 -9.182700e+00 -9.320857e+00 -9.486625e+00 -9.763673e+00 -1.001510e+01 -1.040094e+01 -1.065679e+01 -1.096106e+01 -1.102680e+01 -1.100127e+01 -1.076850e+01 -1.046647e+01 -1.034986e+01 -1.046647e+01 -1.076850e+01 -1.100127e+01 -1.102680e+01 -1.096106e+01 -1.065679e+01 -1.040094e+01 -1.001510e+01 -9.763673e+00 -9.486625e+00 -9.320857e+00 -9.182700e+00 -9.079595e+00 -9.034895e+00 -8.970082e+00 
-8.974335e+00 -8.969379e+00 -9.027928e+00 -9.091819e+00 -9.199147e+00 -9.364658e+00 -9.550776e+00 -9.864272e+00 -1.015644e+01 -1.058796e+01 -1.090597e+01 -1.127141e+01 -1.141789e+01 -1.147557e+01 -1.133023e+01 -1.107440e+01 -1.098782e+01 -1.107440e+01 -1.133023e+01 -1.147557e+01 -1.141789e+01 -1.127141e+01 -1.090597e+01 -1.058796e+01 -1.015644e+01 -9.864272e+00 -9.550776e+00 -9.364658e+00 -9.199147e+00 -9.091819e+00 -9.027928e+00 -8.969379e+00 
-8.941305e+00 -8.916975e+00 -8.991594e+00 -9.036549e+00 -9.155096e+00 -9.308062e+00 -9.497867e+00 -9.809637e+00 -1.009258e+01 -1.053251e+01 -1.082758e+01 -1.120526e+01 -1.132997e+01 -1.138958e+01 -1.123089e+01 -1.095715e+01 -1.088201e+01 -1.095715e+01 -1.123089e+01 -1.138958e+01 -1.132997e+01 -1.120526e+01 -1.082758e+01 -1.053251e+01 -1.009258e+01 -9.809637e+00 -9.497867e+00 -9.308062e+00 -9.155096e+00 -9.036549e+00 -8.991594e+00 -8.916975e+00 
-8.869161e+00 -8.852565e+00 -8.927773e+00 -8.991016e+00 -9.121474e+00 -9.309301e+00 -9.528877e+00 -9.896498e+00 -1.023537e+01 -1.075472e+01 -1.114323e+01 -1.163806e+01 -1.189273e+01 -1.213407e+01 -1.213924e+01 -1.193001e+01 -1.191267e+01 -1.193001e+01 -1.213924e+01 -1.213407e+01 -1.189273e+01 -1.163806e+01 -1.114323e+01 -1.075472e+01 -1.023537e+01 -9.896498e+00 -9.528877e+00 -9.309301e+00 -9.121474e+00 -8.991016e+00 -8.927773e+00 -8.852565e+00 
-8.804715e+00 -8.761570e+00 -8.867332e+00 -8.910204e+00 -9.066679e+00 -9.241129e+00 -9.469458e+00 -9.834655e+00 -1.015178e+01 -1.068774e+01 -1.102591e+01 -1.155515e+01 -1.175428e+01 -1.196361e+01 -1.189993e+01 -1.165516e+01 -1.169417e+01 -1.165516e+01 -1.189993e+01 -1.196361e+01 -1.175428e+01 -1.155515e+01 -1.102591e+01 -1.068774e+01 -1.015178e+01 -9.834655e+00 -9.469458e+00 -9.241129e+00 -9.066679e+00 -8.910204e+00 -8.867332e+00 -8.761570e+00 
-8.681716e+00 -8.641749e+00 -8.753019e+00 -8.807911e+00 -8.968457e+00 -9.161472e+00 -9.390637e+00 -9.788714e+00 -1.012764e+01 -1.073172e+01 -1.117691e+01 -1.184855e+01 -1.222375e+01 -1.278663e+01 -1.291525e+01 -1.261065e+01 -1.266971e+01 -1.261065e+01 -1.291525e+01 -1.278663e+01 -1.222375e+01 -1.184855e+01 -1.117691e+01 -1.073172e+01 -1.012764e+01 -9.788714e+00 -9.390637e+00 -9.161472e+00 -8.968457e+00 -8.807911e+00 -8.753019e+00 -8.641749e+00 
-8.623590e+00 -8.548425e+00 -8.708832e+00 -8.735935e+00 -8.935823e+00 -9.092995e+00 -9.325895e+00 -9.692164e+00 -9.981805e+00 -1.061028e+01 -1.096182e+01 -1.177324e+01 -1.203723e+01 -1.229340e+01 -1.204375e+01 -1.176147e+01 -1.213646e+01 -1.176147e+01 -1.204375e+01 -1.229340e+01 -1.203723e+01 -1.177324e+01 -1.096182e+01 -1.061028e+01 -9.981805e+00 -9.692164e+00 -9.325895e+00 -9.092995e+00 -8.935823e+00 -8.735935e+00 -8.708832e+00 -8.548425e+00 
-8.494466e+00 -8.414277e+00 -8.583518e+00 -8.603744e+00 -8.782394e+00 -8.914570e+00 -9.079800e+00 -9.426468e+00 -9.650451e+00 -1.032474e+01 -1.083760e+01 -1.173957e+01 -1.237543e+01 -1.376182e+01 -1.383228e+01 -1.283411e+01 -1.312751e+01 -1.283411e+01 -1.383228e+01 -1.376182e+01 -1.237543e+01 -1.173957e+01 -1.083760e+01 -1.032474e+01 -9.650451e+00 -9.426468e+00 -9.079800e+00 -8.914570e+00 -8.782394e+00 -8.603744e+00 -8.583518e+00 -8.414277e+00 
-8.476720e+00 -8.349787e+00 -8.586864e+00 -8.560907e+00 -8.793390e+00 -8.844944e+00 -9.024592e+00 -9.279676e+00 -9.454326e+00 -1.017253e+01 -1.053938e+01 -1.226985e+01 -1.224693e+01 -9.196577e+00 -3.355312e-01 7.426549e+00 7.964635e+00 7.426549e+00 -3.355312e-01 -9.196577e+00 -1.224693e+01 -1.226985e+01 -1.053938e+01 -1.017253e+01 -9.454326e+00 -9.279676e+00 -9.024592e+00 -8.844944e+00 -8.793390e+00 -8.560907e+00 -8.586864e+00 -8.349787e+00 
-8.371714e+00 -8.222041e+00 -8.478149e+00 -8.410016e+00 -8.595109e+00 -8.551740e+00 -8.558528e+00 -8.705793e+00 -8.548632e+00 -9.291695e+00 -9.562638e+00 -8.590813e+00 3.188111e+00 2.275126e+01 3.654132e+01 4.420741e+01 4.704541e+01 4.420741e+01 3.654132e+01 2.275126e+01 3.188111e+00 -8.590813e+00 -9.562638e+00 -9.291695e+00 -8.548632e+00 -8.705793e+00 -8.558528e+00 -8.551740e+00 -8.595109e+00 -8.410016e+00 -8.478149e+00 -8.222041e+00 
-8.347778e+00 -8.139858e+00 -8.480457e+00 -8.341950e+00 -8.603960e+00 -8.422468e+00 -8.500219e+00 -8.409383e+00 -8.267192e+00 -8.553010e+00 -7.139092e+00 3.903036e+00 2.758771e+01 4.525583e+01 4.931672e+01 4.929562e+01 5.074660e+01 4.929562e+01 4.931672e+01 4.525583e+01 2.758771e+01 3.903036e+00 -7.139092e+00 -8.553010e+00 -8.267192e+00 -8.409383e+00 -8.500219e+00 -8.422468e+00 -8.603960e+00 -8.341950e+00 -8.480457e+00 -8.139858e+00 
-8.218453e+00 -7.960647e+00 -8.362647e+00 -8.142474e+00 -8.400321e+00 -8.032876e+00 -7.911577e+00 -7.533227e+00 -6.448652e+00 -6.875318e+00 4.433417e+00 2.736997e+01 4.378307e+01 4.682929e+01 4.640072e+01 4.693690e+01 4.702500e+01 4.693690e+01 4.640072e+01 4.682929e+01 4.378307e+01 2.736997e+01 4.433417e+00 -6.875318e+00 -6.448652e+00 -7.533227e+00 -7.911577e+00 -8.032876e+00 -8.400321e+00 -8.142474e+00 -8.362647e+00 -7.960647e+00 
-8.046689e+00 -7.730022e+00 -8.233956e+00 -7.936862e+00 -8.310600e+00 -7.759800e+00 -7.884813e+00 -7.179486e+00 -7.121856e+00 -4.786442e+00 1.927149e+01 4.264616e+01 4.653264e+01 4.717096e+01 4.761716e+01 4.795261e+01 4.825041e+01 4.795261e+01 4.761716e+01 4.717096e+01 4.653264e+01 4.264616e+01 1.927149e+01 -4.786442e+00 -7.121856e+00 -7.179486e+00 -7.884813e+00 -7.759800e+00 -8.310600e+00 -7.936862e+00 -8.233956e+00 -7.730022e+00 
-7.778016e+00 -7.393060e+00 -8.033921e+00 -7.648545e+00 -8.230407e+00 -7.409868e+00 -7.963276e+00 -6.588794e+00 -7.951934e+00 -3.317504e-01 2.978635e+01 4.609793e+01 4.585161e+01 4.653805e+01 4.605192e+01 4.667472e+01 4.628583e+01 4.667472e+01 4.605192e+01 4.653805e+01 4.585161e+01 4.609793e+01 2.978635e+01 -3.317504e-01 -7.951934e+00 -6.588794e+00 -7.963276e+00 -7.409868e+00 -8.230407e+00 -7.648545e+00 -8.033921e+00 -7.393060e+00 
-7.363702e+00 -6.945221e+00 -7.672900e+00 -7.259114e+00 -7.933236e+00 -6.952031e+00 -7.453731e+00 -5.580521e+00 -6.048346e+00 6.803263e+00 3.737936e+01 4.620092e+01 4.530146e+01 4.695252e+01 4.657846e+01 4.739797e+01 4.703180e+01 4.739797e+01 4.657846e+01 4.695252e+01 4.530146e+01 4.620092e+01 3.737936e+01 6.803263e+00 -6.048346e+00 -5.580521e+00 -7.453731e+00 -6.952031e+00 -7.933236e+00 -7.259114e+00 -7.672900e+00 -6.945221e+00 
-7.008720e+00 -6.546275e+00 -7.343574e+00 -6.902736e+00 -7.619534e+00 -6.588615e+00 -6.833968e+00 -4.942070e+00 -4.363712e+00 1.209886e+01 4.226267e+01 4.591166e+01 4.496836e+01 4.633452e+01 4.564522e+01 4.652017e+01 4.587404e+01 4.652017e+01 4.564522e+01 4.633452e+01 4.496836e+01 4.591166e+01 4.226267e+01 1.209886e+01 -4.363712e+00 -4.942070e+00 -6.833968e+00 -6.588615e+00 -7.619534e+00 -6.902736e+00 -7.343574e+00 -6.546275e+00 
-6.775398e+00 -6.319196e+00 -7.091612e+00 -6.649792e+00 -7.268878e+00 -6.204643e+00 -6.090452e+00 -4.092437e+00 -3.268159e+00 1.411465e+01 4.386452e+01 4.671488e+01 4.550627e+01 4.700191e+01 4.635666e+01 4.727430e+01 4.669660e+01 4.727430e+01 4.635666e+01 4.700191e+01 4.550627e+01 4.671488e+01 4.386452e+01 1.411465e+01 -3.268159e+00 -4.092437e+00 -6.090452e+00 -6.204643e+00 -7.268878e+00 -6.649792e+00 -7.091612e+00 -6.319196e+00 
-7.008720e+00 -6.546275e+00 -7.343574e+00 -6.902736e+00 -7.619534e+00 -6.588615e+00 -6.833968e+00 -4.942070e+00 -4.363712e+00 1.209886e+01 4.226267e+01 4.591166e+01 4.496836e+01 4.633452e+01 4.564522e+01 4.652017e+01 4.587404e+01 4.652017e+01 4.564522e+01 4.633452e+01 4.496836e+01 4.591166e+01 4.226267e+01 1.209886e+01 -4.363712e+00 -4.942070e+00 -6.833968e+00 -6.588615e+00 -7.619534e+00 -6.902736e+00 -7.343574e+00 -6.546275e+00 
-7.363702e+00 -6.945221e+00 -7.672900e+00 -7.259114e+00 -7.933236e+00 -6.952031e+00 -7.453731e+00 -5.580521e+00 -6.048346e+00 6.803263e+00 3.737936e+01 4.620092e+01 4.530146e+01 4.695252e+01 4.657846e+01 4.739797e+01 4.703180e+01 4.739797e+01 4.657846e+01 4.695252e+01 4.530146e+01 4.620092e+01 3.737936e+01 6.803263e+00 -6.048346e+00 -5.580521e+00 -7.453731e+00 -6.952031e+00 -7.933236e+00 -7.259114e+00 -7.672900e+00 -6.945221e+00 
-7.778016e+00 -7.393060e+00 -8.033921e+00 -7.648545e+00 -8.230407e+00 -7.409868e+00 -7.963276e+00 -6.588794e+00 -7.951934e+00 -3.317504e-01 2.978635e+01 4.609793e+01 4.585161e+01 4.653805e+01 4.605192e+01 4.667472e+01 4.628583e+01 4.667472e+01 4.605192e+01 4.653805e+01 4.585161e+01 4.609793e+01 2.978635e+01 -3.317504e-01 -7.951934e+00 -6.588794e+00 -7.963276e+00 -7.409868e+00 -8.230407e+00 -7.648545e+00 -8.033921e+00 -7.393060e+00 
-8.046689e+00 -7.730022e+00 -8.233956e+00 -7.936862e+00 -8.310600e+00 -7.759800e+00 -7.884813e+00 -7.179486e+00 -7.121856e+00 -4.786442e+00 1.927149e+01 4.264616e+01 4.653264e+01 4.717096e+01 4.761716e+01 4.795261e+01 4.825041e+01 4.795261e+01 4.761716e+01 4.717096e+01 4.653264e+01 4.264616e+01 1.927149e+01 -4.786442e+00 -7.121856e+00 -7.179486e+00 -7.884813e+00 -7.759800e+00 -8.310600e+00 -7.936862e+00 -8.233956e+00 -7.730022e+00 
-8.218453e+00 -7.960647e+00 -8.362647e+00 -8.142474e+00 -8.400321e+00 -8.032876e+00 -7.911577e+00 -7.533227e+00 -6.448652e+00 -6.875318e+00 4.433417e+00 2.736997e+01 4.378307e+01 4.682929e+01 4.640072e+01 4.693690e+01 4.702500e+01 4.693690e+01 4.640072e+01 4.682929e+01 4.378307e+01 2.736997e+01 4.433417e+00 -6.875318e+00 -6.448652e+00 -7.533227e+00 -7.911577e+00 -8.032876e+00 -8.400321e+00 -8.142474e+00 -8.362647e+00 -7.960647e+00 
-8.347778e+00 -8.139858e+00 -8.480457e+00 -8.341950e+00 -8.603960e+00 -8.422468e+00 -8.500219e+00 -8.409383e+00 -8.267192e+00 -8.553010e+00 -7.139092e+00 3.903036e+00 2.758771e+01 4.525583e+01 4.931672e+01 4.929562e+01 5.074660e+01 4.929562e+01 4.931672e+01 4.525583e+01 2.758771e+01 3.903036e+00 -7.139092e+00 -8.553010e+00 -8.267192e+00 -8.409383e+00 -8.500219e+00 -8.422468e+00 -8.603960e+00 -8.341950e+00 -8.480457e+00 -8.139858e+00 
-8.371714e+00 -8.222041e+00 -8.478149e+00 -8.410016e+00 -8.595109e+00 -8.551740e+00 -8.558528e+00 -8.705793e+00 -8.548632e+00 -9.291695e+00 -9.562638e+00 -8.590813e+00 3.188111e+00 2.275126e+01 3.654132e+01 4.420741e+01 4.704541e+01 4.420741e+01 3.654132e+01 2.275126e+01 3.188111e+00 -8.590813e+00 -9.562638e+00 -9.291695e+00 -8.548632e+00 -8.705793e+00 -8.558528e+00 -8.551740e+00 -8.595109e+00 -8.410016e+00 -8.478149e+00 -8.222041e+00 
-8.476720e+00 -8.349787e+00 -8.586864e+00 -8.560907e+00 -8.793390e+00 -8.844944e+00 -9.024592e+00 -9.279676e+00 -9.454326e+00 -1.017253e+01 -1.053938e+01 -1.226985e+01 -1.224693e+01 -9.196577e+00 -3.355312e-01 7.426549e+00 7.964635e+00 7.426549e+00 -3.355312e-01 -9.196577e+00 -1.224693e+01 -1.226985e+01 -1.053938e+01 -1.017253e+01 -9.454326e+00 -9.279676e+00 -9.024592e+00 -8.844944e+00 -8.793390e+00 -8.560907e+00 -8.586864e+00 -8.349787e+00 
-8.494466e+00 -8.414277e+00 -8.583518e+00 -8.603744e+00 -8.782394e+00 -8.914570e+00 -9.079800e+00 -9.426468e+00 -9.650451e+00 -1.032474e+01 -1.083760e+01 -1.173957e+01 -1.237543e+01 -1.376182e+01 -1.383228e+01 -1.283411e+01 -1.312751e+01 -1.283411e+01 -1.383228e+01 -1.376182e+01 -1.237543e+01 -1.173957e+01 -1.083760e+01 -1.032474e+01 -9.650451e+00 -9.426468e+00 -9.079800e+00 -8.914570e+00 -8.782394e+00 -8.603744e+00 -8.583518e+00 -8.414277e+00 
-8.623590e+00 -8.548425e+00 -8.708832e+00 -8.735935e+00 -8.935823e+00 -9.092995e+00 -9.325895e+00 -9.692164e+00 -9.981805e+00 -1.061028e+01 -1.096182e+01 -1.177324e+01 -1.203723e+01 -1.229340e+01 -1.204375e+01 -1.176147e+01 -1.213646e+01 -1.176147e+01 -1.204375e+01 -1.229340e+01 -1.203723e+01 -1.177324e+01 -1.096182e+01 -1.061028e+01 -9.981805e+00 -9.692164e+00 -9.325895e+00 -9.092995e+00 -8.935823e+00 -8.735935e+00 -8.708832e+00 -8.548425e+00 
-8.681716e+00 -8.641749e+00 -8.753019e+00 -8.807911e+00 -8.968457e+00 -9.161472e+00 -9.390637e+00 -9.788714e+00 -1.012764e+01 -1.073172e+01 -1.117691e+01 -1.184855e+01 -1.222375e+01 -1.278663e+01 -1.291525e+01 -1.261065e+01 -1.266971e+01 -1.261065e+01 -1.291525e+01 -1.278663e+01 -1.222375e+01 -1.184855e+01 -1.117691e+01 -1.073172e+01 -1.012764e+01 -9.788714e+00 -9.390637e+00 -9.161472e+00 -8.968457e+00 -8.807911e+00 -8.753019e+00 -8.641749e+00 
-8.804715e+00 -8.761570e+00 -8.867332e+00 -8.910204e+00 -9.066679e+00 -9.241129e+00 -9.469458e+00 -9.834655e+00 -1.015178e+01 -1.068774e+01 -1.102591e+01 -1.155515e+01 -1.175428e+01 -1.196361e+01 -1.189993e+01 -1.165516e+01 -1.169417e+01 -1.165516e+01 -1.189993e+01 -1.196361e+01 -1.175428e+01 -1.155515e+01 -1.102591e+01 -1.068774e+01 -1.015178e+01 -9.834655e+00 -9.469458e+00 -9.241129e+00 -9.066679e+00 -8.910204e+00 -8.867332e+00 -8.761570e+00 
-8.869161e+00 -8.852565e+00 -8.927773e+00 -8.991016e+00 -9.121474e+00 -9.309301e+00 -9.528877e+00 -9.896498e+00 -1.023537e+01 -1.075472e+01 -1.114323e+01 -1.163806e+01 -1.189273e+01 -1.213407e+01 -1.213924e+01 -1.193001e+01 -1.191267e+01 -1.193001e+01 -1.213924e+01 -1.213407e+01 -1.189273e+01 -1.163806e+01 -1.114323e+01 -1.075472e+01 -1.023537e+01 -9.896498e+00 -9.528877e+00 -9.309301e+00 -9.121474e+00 -8.991016e+00 -8.927773e+00 -8.852565e+00 
-8.941305e+00 -8.916975e+00 -8.991594e+00 -9.036549e+00 -9.155096e+00 -9.308062e+00 -9.497867e+00 -9.809637e+00 -1.009258e+01 -1.053251e+01 -1.082758e+01 -1.120526e+01 -1.132997e+01 -1.138958e+01 -1.123089e+01 -1.095715e+01 -1.088201e+01 -1.095715e+01 -1.123089e+01 -1.138958e+01 -1.132997e+01 -1.120526e+01 -1.082758e+01 -1.053251e+01 -1.009258e+01 -9.809637e+00 -9.497867e+00 -9.308062e+00 -9.155096e+00 -9.036549e+00 -8.991594e+00 -8.916975e+00 
-8.974335e+00 -8.969379e+00 -9.027928e+00 -9.091819e+00 -9.199147e+00 -9.364658e+00 -9.550776e+00 -9.864272e+00 -1.015644e+01 -1.058796e+01 -1.090597e+01 -1.127141e+01 -1.141789e+01 -1.147557e+01 -1.133023e+01 -1.107440e+01 -1.098782e+01 -1.107440e+01 -1.133023e+01 -1.147557e+01 -1.141789e+01 -1.127141e+01 -1.090597e+01 -1.058796e+01 -1.015644e+01 -9.864272e+00 -9.550776e+00 -9.364658e+00 -9.199147e+00 -9.091819e+00 -9.027928e+00 -8.969379e+00 
