# vtk DataFile Version 2.0
Comment goes here
ASCII

DATASET STRUCTURED_POINTS
FIELD FieldData 1
TIME 1 1 double
0.36000000
DIMENSIONS    32   32   1

ORIGIN    0.000   0.000   0.000
SPACING   0.03125 0.03125   1.000

POINT_DATA   1024
SCALARS P double
LOOKUP_TABLE default

-1.589720e+01 -1.598758e+01 -1.602909e+01 -1.623746e+01 -1.639567e+01 -1.667572e+01 -1.690042e+01 -1.716282e+01 -1.735771e+01 -1.748040e+01 -1.755245e+01 -1.750221e+01 -1.748978e+01 -1.734244e+01 -1.703305e+01 -1.667331e+01 -1.637465e+01 -1.667331e+01 -1.703305e+01 -1.734244e+01 -1.748978e+01 -1.750221e+01 -1.755245e+01 -1.748040e+01 -1.735771e+01 -1.716282e+01 -1.690042e+01 -1.667572e+01 -1.639567e+01 -1.623746e+01 -1.602909e+01 -1.598758e+01 
-1.577619e+01 -1.586782e+01 -1.590555e+01 -1.611492e+01 -1.626529e+01 -1.654998e+01 -1.676263e+01 -1.704098e+01 -1.722192e+01 -1.738623e+01 -1.745747e+01 -1.750365e+01 -1.759916e+01 -1.768812e+01 -1.793824e+01 -1.773132e+01 -1.739873e+01 -1.773132e+01 -1.793824e+01 -1.768812e+01 -1.759916e+01 -1.750365e+01 -1.745747e+01 -1.738623e+01 -1.722192e+01 -1.704098e+01 -1.676263e+01 -1.654998e+01 -1.626529e+01 -1.611492e+01 -1.590555e+01 -1.586782e+01 
-1.582774e+01 -1.592407e+01 -1.597020e+01 -1.619637e+01 -1.637149e+01 -1.668496e+01 -1.694583e+01 -1.726145e+01 -1.751750e+01 -1.770780e+01 -1.785958e+01 -1.786460e+01 -1.793617e+01 -1.773990e+01 -1.717273e+01 -1.653436e+01 -1.609883e+01 -1.653436e+01 -1.717273e+01 -1.773990e+01 -1.793617e+01 -1.786460e+01 -1.785958e+01 -1.770780e+01 -1.751750e+01 -1.726145e+01 -1.694583e+01 -1.668496e+01 -1.637149e+01 -1.619637e+01 -1.597020e+01 -1.592407e+01 
-1.564556e+01 -1.574688e+01 -1.579613e+01 -1.603815e+01 -1.622428e+01 -1.656989e+01 -1.685420e+01 -1.722436e+01 -1.750950e+01 -1.777277e+01 -1.790527e+01 -1.797763e+01 -1.793436e+01 -1.800834e+01 -1.861227e+01 -1.785174e+01 -1.683021e+01 -1.785174e+01 -1.861227e+01 -1.800834e+01 -1.793436e+01 -1.797763e+01 -1.790527e+01 -1.777277e+01 -1.750950e+01 -1.722436e+01 -1.685420e+01 -1.656989e+01 -1.622428e+01 -1.603815e+01 -1.579613e+01 -1.574688e+01 
-1.560632e+01 -1.571978e+01 -1.578063e+01 -1.606155e+01 -1.628924e+01 -1.671335e+01 -1.709792e+01 -1.760738e+01 -1.809831e+01 -1.856062e+01 -1.901290e+01 -1.917523e+01 -1.957174e+01 -1.942657e+01 -1.737230e+01 -1.500249e+01 -1.380412e+01 -1.500249e+01 -1.737230e+01 -1.942657e+01 -1.957174e+01 -1.917523e+01 -1.901290e+01 -1.856062e+01 -1.809831e+01 -1.760738e+01 -1.709792e+01 -1.671335e+01 -1.628924e+01 -1.606155e+01 -1.578063e+01 -1.571978e+01 
-1.535574e+01 -1.547564e+01 -1.554904e+01 -1.586040e+01 -1.612316e+01 -1.661742e+01 -1.709139e+01 -1.773264e+01 -1.839961e+01 -1.903075e+01 -1.946437e+01 -1.944268e+01 -1.858577e+01 -1.855645e+01 -1.877748e+01 -1.559905e+01 -1.378591e+01 -1.559905e+01 -1.877748e+01 -1.855645e+01 -1.858577e+01 -1.944268e+01 -1.946437e+01 -1.903075e+01 -1.839961e+01 -1.773264e+01 -1.709139e+01 -1.661742e+01 -1.612316e+01 -1.586040e+01 -1.554904e+01 -1.547564e+01 
-1.518597e+01 -1.532222e+01 -1.540550e+01 -1.576941e+01 -1.607256e+01 -1.669458e+01 -1.730503e+01 -1.824756e+01 -1.935248e+01 -2.068575e+01 -2.190582e+01 -2.267939e+01 -2.449221e+01 -2.148691e+01 -1.495457e+01 -9.074960e+00 -6.814002e+00 -9.074960e+00 -1.495457e+01 -2.148691e+01 -2.449221e+01 -2.267939e+01 -2.190582e+01 -2.068575e+01 -1.935248e+01 -1.824756e+01 -1.730503e+01 -1.669458e+01 -1.607256e+01 -1.576941e+01 -1.540550e+01 -1.532222e+01 
-1.483518e+01 -1.497306e+01 -1.507322e+01 -1.546857e+01 -1.580953e+01 -1.654187e+01 -1.731987e+01 -1.862646e+01 -2.056968e+01 -2.285816e+01 -2.508400e+01 -2.246684e+01 -1.060551e+01 5.794943e+00 2.227247e+01 3.426479e+01 3.816497e+01 3.426479e+01 2.227247e+01 5.794943e+00 -1.060551e+01 -2.246684e+01 -2.508400e+01 -2.285816e+01 -2.056968e+01 -1.862646e+01 -1.731987e+01 -1.654187e+01 -1.580953e+01 -1.546857e+01 -1.507322e+01 -1.497306e+01 
-1.448414e+01 -1.462857e+01 -1.472634e+01 -1.514488e+01 -1.547112e+01 -1.631021e+01 -1.716686e+01 -1.898052e+01 -2.157065e+01 -2.457903e+01 -2.071448e+01 -7.030065e-01 2.733931e+01 4.675969e+01 5.450936e+01 5.790143e+01 5.911606e+01 5.790143e+01 5.450936e+01 4.675969e+01 2.733931e+01 -7.030065e-01 -2.071448e+01 -2.457903e+01 -2.157065e+01 -1.898052e+01 -1.716686e+01 -1.631021e+01 -1.547112e+01 -1.514488e+01 -1.472634e+01 -1.462857e+01 
-1.399227e+01 -1.411584e+01 -1.421915e+01 -1.461234e+01 -1.488164e+01 -1.573694e+01 -1.651964e+01 -1.860093e+01 -2.122397e+01 -2.083602e+01 -7.157542e-02 3.304845e+01 5.006134e+01 5.305044e+01 5.348127e+01 5.354496e+01 5.383676e+01 5.354496e+01 5.348127e+01 5.305044e+01 5.006134e+01 3.304845e+01 -7.157542e-02 -2.083602e+01 -2.122397e+01 -1.860093e+01 -1.651964e+01 -1.573694e+01 -1.488164e+01 -1.461234e+01 -1.421915e+01 -1.411584e+01 
-1.344168e+01 -1.354005e+01 -1.362527e+01 -1.393388e+01 -1.404417e+01 -1.474166e+01 -1.516107e+01 -1.706390e+01 -1.847609e+01 -3.766921e+00 2.747034e+01 4.623915e+01 5.016990e+01 5.132591e+01 5.286261e+01 5.392216e+01 5.448941e+01 5.392216e+01 5.286261e+01 5.132591e+01 5.016990e+01 4.623915e+01 2.747034e+01 -3.766921e+00 -1.847609e+01 -1.706390e+01 -1.516107e+01 -1.474166e+01 -1.404417e+01 -1.393388e+01 -1.362527e+01 -1.354005e+01 
-1.281831e+01 -1.285459e+01 -1.296316e+01 -1.314770e+01 -1.308299e+01 -1.364288e+01 -1.344213e+01 -1.577284e+01 -1.118569e+01 1.895529e+01 4.362856e+01 4.776705e+01 5.001204e+01 5.101119e+01 5.183399e+01 5.226558e+01 5.256076e+01 5.226558e+01 5.183399e+01 5.101119e+01 5.001204e+01 4.776705e+01 4.362856e+01 1.895529e+01 -1.118569e+01 -1.577284e+01 -1.344213e+01 -1.364288e+01 -1.308299e+01 -1.314770e+01 -1.296316e+01 -1.285459e+01 
-1.211507e+01 -1.210465e+01 -1.225242e+01 -1.229070e+01 -1.206753e+01 -1.230689e+01 -1.156760e+01 -1.367844e+01 5.554062e-01 3.425027e+01 4.737711e+01 4.800258e+01 4.973441e+01 5.066474e+01 5.185021e+01 5.248129e+01 5.289665e+01 5.248129e+01 5.185021e+01 5.066474e+01 4.973441e+01 4.800258e+01 4.737711e+01 3.425027e+01 5.554062e-01 -1.367844e+01 -1.156760e+01 -1.230689e+01 -1.206753e+01 -1.229070e+01 -1.225242e+01 -1.210465e+01 
-1.137489e+01 -1.127488e+01 -1.159162e+01 -1.142424e+01 -1.129207e+01 -1.081048e+01 -1.036951e+01 -1.046829e+01 1.190541e+01 4.198394e+01 4.694565e+01 4.753813e+01 4.918730e+01 5.014170e+01 5.103926e+01 5.152231e+01 5.178443e+01 5.152231e+01 5.103926e+01 5.014170e+01 4.918730e+01 4.753813e+01 4.694565e+01 4.198394e+01 1.190541e+01 -1.046829e+01 -1.036951e+01 -1.081048e+01 -1.129207e+01 -1.142424e+01 -1.159162e+01 -1.127488e+01 
-1.048448e+01 -1.036951e+01 -1.088807e+01 -1.063296e+01 -1.072037e+01 -9.720564e+00 -1.002748e+01 -7.780624e+00 2.053676e+01 4.663328e+01 4.767419e+01 4.830427e+01 4.939791e+01 5.034645e+01 5.111679e+01 5.164674e+01 5.186414e+01 5.164674e+01 5.111679e+01 5.034645e+01 4.939791e+01 4.830427e+01 4.767419e+01 4.663328e+01 2.053676e+01 -7.780624e+00 -1.002748e+01 -9.720564e+00 -1.072037e+01 -1.063296e+01 -1.088807e+01 -1.036951e+01 
-9.605178e+00 -9.462078e+00 -1.022375e+01 -9.963773e+00 -1.033610e+01 -8.867072e+00 -9.364728e+00 -4.488101e+00 2.646743e+01 4.798937e+01 4.776498e+01 4.860189e+01 4.912333e+01 4.996663e+01 5.048391e+01 5.095512e+01 5.107062e+01 5.095512e+01 5.048391e+01 4.996663e+01 4.912333e+01 4.860189e+01 4.776498e+01 4.798937e+01 2.646743e+01 -4.488101e+00 -9.364728e+00 -8.867072e+00 -1.033610e+01 -9.963773e+00 -1.022375e+01 -9.462078e+00 
-9.038045e+00 -8.935957e+00 -9.787775e+00 -9.550723e+00 -9.953555e+00 -8.269756e+00 -8.557552e+00 -2.161711e+00 2.943590e+01 4.892070e+01 4.842571e+01 4.929081e+01 4.954717e+01 5.034598e+01 5.082831e+01 5.130316e+01 5.142166e+01 5.130316e+01 5.082831e+01 5.034598e+01 4.954717e+01 4.929081e+01 4.842571e+01 4.892070e+01 2.943590e+01 -2.161711e+00 -8.557552e+00 -8.269756e+00 -9.953555e+00 -9.550723e+00 -9.787775e+00 -8.935957e+00 
-9.605178e+00 -9.462078e+00 -1.022375e+01 -9.963773e+00 -1.033610e+01 -8.867072e+00 -9.364728e+00 -4.488101e+00 2.646743e+01 4.798937e+01 4.776498e+01 4.860189e+01 4.912333e+01 4.996663e+01 5.048391e+01 5.095512e+01 5.107062e+01 5.095512e+01 5.048391e+01 4.996663e+01 4.912333e+01 4.860189e+01 4.776498e+01 4.798937e+01 2.646743e+01 -4.488101e+00 -9.364728e+00 -8.867072e+00 -1.033610e+01 -9.963773e+00 -1.022375e+01 -9.462078e+00 
-1.048448e+01 -1.036951e+01 -1.088807e+01 -1.063296e+01 -1.072037e+01 -9.720564e+00 -1.002748e+01 -7.780624e+00 2.053676e+01 4.663328e+01 4.767419e+01 4.830427e+01 4.939791e+01 5.034645e+01 5.111679e+01 5.164674e+01 5.186414e+01 5.164674e+01 5.111679e+01 5.034645e+01 4.939791e+01 4.830427e+01 4.767419e+01 4.663328e+01 2.053676e+01 -7.780624e+00 -1.002748e+01 -9.720564e+00 -1.072037e+01 -1.063296e+01 -1.088807e+01 -1.036951e+01 
-1.137489e+01 -1.127488e+01 -1.159162e+01 -1.142424e+01 -1.129207e+01 -1.081048e+01 -1.036951e+01 -1.046829e+01 1.190541e+01 4.198394e+01 4.694565e+01 4.753813e+01 4.918730e+01 5.014170e+01 5.103926e+01 5.152231e+01 5.178443e+01 5.152231e+01 5.103926e+01 5.014170e+01 4.918730e+01 4.753813e+01 4.694565e+01 4.198394e+01 1.190541e+01 -1.046829e+01 -1.036951e+01 -1.081048e+01 -1.129207e+01 -1.142424e+01 -1.159162e+01 -1.127488e+01 
-1.211507e+01 -1.210465e+01 -1.225242e+01 -1.229070e+01 -1.206753e+01 -1.230689e+01 -1.156760e+01 -1.367844e+01 5.554062e-01 3.425027e+01 4.737711e+01 4.800258e+01 4.973441e+01 5.066474e+01 5.185021e+01 5.248129e+01 5.289665e+01 5.248129e+01 5.185021e+01 5.066474e+01 4.973441e+01 4.800258e+01 4.737711e+01 3.425027e+01 5.554062e-01 -1.367844e+01 -1.156760e+01 -1.230689e+01 -1.206753e+01 -1.229070e+01 -1.225242e+01 -1.210465e+01 
-1.281831e+01 -1.285459e+01 -1.296316e+01 -1.314770e+01 -1.308299e+01 -1.364288e+01 -1.344213e+01 -1.577284e+01 -1.118569e+01 1.895529e+01 4.362856e+01 4.776705e+01 5.001204e+01 5.101119e+01 5.183399e+01 5.226558e+01 5.256076e+01 5.226558e+01 5.183399e+01 5.101119e+01 5.001204e+01 4.776705e+01 4.362856e+01 1.895529e+01 -1.118569e+01 -1.577284e+01 -1.344213e+01 -1.364288e+01 -1.308299e+01 -1.314770e+01 -1.296316e+01 -1.285459e+01 
-1.344168e+01 -1.354005e+01 -1.362527e+01 -1.393388e+01 -1.404417e+01 -1.474166e+01 -1.516107e+01 -1.706390e+01 -1.847609e+01 -3.766921e+00 2.747034e+01 4.623915e+01 5.016990e+01 5.132591e+01 5.286261e+01 5.392216e+01 5.448941e+01 5.392216e+01 5.286261e+01 5.132591e+01 5.016990e+01 4.623915e+01 2.747034e+01 -3.766921e+00 -1.847609e+01 -1.706390e+01 -1.516107e+01 -1.474166e+01 -1.404417e+01 -1.393388e+01 -1.362527e+01 -1.354005e+01 
-1.399227e+01 -1.411584e+01 -1.421915e+01 -1.461234e+01 -1.488164e+01 -1.573694e+01 -1.651964e+01 -1.860093e+01 -2.122397e+01 -2.083602e+01 -7.157542e-02 3.304845e+01 5.006134e+01 5.305044e+01 5.348127e+01 5.354496e+01 5.383676e+01 5.354496e+01 5.348127e+01 5.305044e+01 5.006134e+01 3.304845e+01 -7.157542e-02 -2.083602e+01 -2.122397e+01 -1.860093e+01 -1.651964e+01 -1.573694e+01 -1.488164e+01 -1.461234e+01 -1.421915e+01 -1.411584e+01 
-1.448414e+01 -1.462857e+01 -1.472634e+01 -1.514488e+01 -1.547112e+01 -1.631021e+01 -1.716686e+01 -1.898052e+01 -2.157065e+01 -2.457903e+01 -2.071448e+01 -7.030065e-01 2.733931e+01 4.675969e+01 5.450936e+01 5.790143e+01 5.911606e+01 5.790143e+01 5.450936e+01 4.675969e+01 2.733931e+01 -7.030065e-01 -2.071448e+01 -2.457903e+01 -2.157065e+01 -1.898052e+01 -1.716686e+01 -1.631021e+01 -1.547112e+01 -1.514488e+01 -1.472634e+01 -1.462857e+01 
-1.483518e+01 -1.497306e+01 -1.507322e+01 -1.546857e+01 -1.580953e+01 -1.654187e+01 -1.731987e+01 -1.862646e+01 -2.056968e+01 -2.285816e+01 -2.508400e+01 -2.246684e+01 -1.060551e+01 5.794943e+00 2.227247e+01 3.426479e+01 3.816497e+01 3.426479e+01 2.227247e+01 5.794943e+00 -1.060551e+01 -2.246684e+01 -2.508400e+01 -2.285816e+01 -2.056968e+01 -1.862646e+01 -1.731987e+01 -1.654187e+01 -1.580953e+01 -1.546857e+01 -1.507322e+01 -1.497306e+01 
-1.518597e+01 -1.532222e+01 -1.540550e+01 -1.576941e+01 -1.607256e+01 -1.669458e+01 -1.730503e+01 -1.824756e+01 -1.935248e+01 -2.068575e+01 -2.190582e+01 -2.267939e+01 -2.449221e+01 -2.148691e+01 -1.495457e+01 -9.074960e+00 -6.814002e+00 -9.074960e+00 -1.495457e+01 -2.148691e+01 -2.449221e+01 -2.267939e+01 -2.190582e+01 -2.068575e+01 -1.935248e+01 -1.824756e+01 -1.730503e+01 -1.669458e+01 -1.607256e+01 -1.576941e+01 -1.540550e+01 -1.532222e+01 
-1.535574e+01 -1.547564e+01 -1.554904e+01 -1.586040e+01 -1.612316e+01 -1.661742e+01 -1.709139e+01 -1.773264e+01 -1.839961e+01 -1.903075e+01 -1.946437e+01 -1.944268e+01 -1.858577e+01 -1.855645e+01 -1.877748e+01 -1.559905e+01 -1.378591e+01 -1.559905e+01 -1.877748e+01 -1.855645e+01 -1.858577e+01 -1.944268e+01 -1.946437e+01 -1.903075e+01 -1.839961e+01 -1.773264e+01 -1.709139e+01 -1.661742e+01 -1.612316e+01 -1.586040e+01 -1.554904e+01 -1.547564e+01 
-1.560632e+01 -1.571978e+01 -1.578063e+01 -1.606155e+01 -1.628924e+01 -1.671335e+01 -1.709792e+01 -1.760738e+01 -1.809831e+01 -1.856062e+01 -1.901290e+01 -1.917523e+01 -1.957174e+01 -1.942657e+01 -1.737230e+01 -1.500249e+01 -1.380412e+01 -1.500249e+01 -1.737230e+01 -1.942657e+01 -1.957174e+01 -1.917523e+01 -1.901290e+01 -1.856062e+01 -1.809831e+01 -1.760738e+01 -1.709792e+01 -1.671335e+01 -1.628924e+01 -1.606155e+01 -1.578063e+01 -1.571978e+01 
-1.564556e+01 -1.574688e+01 -1.579613e+01 -1.603815e+01 -1.622428e+01 -1.656989e+01 -1.685420e+01 -1.722436e+01 -1.750950e+01 -1.777277e+01 -1.790527e+01 -1.797763e+01 -1.793436e+01 -1.800834e+01 -1.861227e+01 -1.785174e+01 -1.683021e+01 -1.785174e+01 -1.861227e+01 -1.800834e+01 -1.793436e+01 -1.797763e+01 -1.790527e+01 -1.777277e+01 -1.750950e+01 -1.722436e+01 -1.685420e+01 -1.656989e+01 -1.622428e+01 -1.603815e+01 -1.579613e+01 -1.574688e+01 
-1.582774e+01 -1.592407e+01 -1.597020e+01 -1.619637e+01 -1.637149e+01 -1.668496e+01 -1.694583e+01 -1.726145e+01 -1.751750e+01 -1.770780e+01 -1.785958e+01 -1.786460e+01 -1.793617e+01 -1.773990e+01 -1.717273e+01 -1.653436e+01 -1.609883e+01 -1.653436e+01 -1.717273e+01 -1.773990e+01 -1.793617e+01 -1.786460e+01 -1.785958e+01 -1.770780e+01 -1.751750e+01 -1.726145e+01 -1.694583e+01 -1.668496e+01 -1.637149e+01 -1.619637e+01 -1.597020e+01 -1.592407e+01 
-1.577619e+01 -1.586782e+01 -1.590555e+01 -1.611492e+01 -1.626529e+01 -1.654998e+01 -1.676263e+01 -1.704098e+01 -1.722192e+01 -1.738623e+01 -1.745747e+01 -1.750365e+01 -1.759916e+01 -1.768812e+01 -1.793824e+01 -1.773132e+01 -1.739873e+01 -1.773132e+01 -1.793824e+01 -1.768812e+01 -1.759916e+01 -1.750365e+01 -1.745747e+01 -1.738623e+01 -1.722192e+01 -1.704098e+01 -1.676263e+01 -1.654998e+01 -1.626529e+01 -1.611492e+01 -1.590555e+01 -1.586782e+01 
