# vtk DataFile Version 2.0
Comment goes here
ASCII

DATASET STRUCTURED_POINTS
FIELD FieldData 1
TIME 1 1 double
0.76000000
DIMENSIONS    32   32   1

ORIGIN    0.000   0.000   0.000
SPACING   0.03125 0.03125   1.000

POINT_DATA   1024
SCALARS P double
LOOKUP_TABLE default

-1.275948e+01 -1.279626e+01 -1.274778e+01 -1.275874e+01 -1.271955e+01 -1.270410e+01 -1.270550e+01 -1.268692e+01 -1.275826e+01 -1.275001e+01 -1.283094e+01 -1.271479e+01 -1.257324e+01 -1.212514e+01 -1.156306e+01 -1.085739e+01 -1.052633e+01 -1.085739e+01 -1.156306e+01 -1.212514e+01 -1.257324e+01 -1.271479e+01 -1.283094e+01 -1.275001e+01 -1.275826e+01 -1.268692e+01 -1.270550e+01 -1.270410e+01 -1.271955e+01 -1.275874e+01 -1.274778e+01 -1.279626e+01 
-1.278822e+01 -1.281613e+01 -1.277984e+01 -1.278510e+01 -1.276276e+01 -1.274495e+01 -1.276774e+01 -1.274690e+01 -1.283817e+01 -1.281945e+01 -1.290955e+01 -1.277016e+01 -1.262721e+01 -1.215373e+01 -1.157439e+01 -1.084320e+01 -1.051825e+01 -1.084320e+01 -1.157439e+01 -1.215373e+01 -1.262721e+01 -1.277016e+01 -1.290955e+01 -1.281945e+01 -1.283817e+01 -1.274690e+01 -1.276774e+01 -1.274495e+01 -1.276276e+01 -1.278510e+01 -1.277984e+01 -1.281613e+01 
-1.277974e+01 -1.282596e+01 -1.277511e+01 -1.280217e+01 -1.277320e+01 -1.278263e+01 -1.281208e+01 -1.282382e+01 -1.293467e+01 -1.295318e+01 -1.307541e+01 -1.299547e+01 -1.292990e+01 -1.259790e+01 -1.219408e+01 -1.165235e+01 -1.135434e+01 -1.165235e+01 -1.219408e+01 -1.259790e+01 -1.292990e+01 -1.299547e+01 -1.307541e+01 -1.295318e+01 -1.293467e+01 -1.282382e+01 -1.281208e+01 -1.278263e+01 -1.277320e+01 -1.280217e+01 -1.277511e+01 -1.282596e+01 
-1.281906e+01 -1.286623e+01 -1.282425e+01 -1.286113e+01 -1.285684e+01 -1.288593e+01 -1.296072e+01 -1.299493e+01 -1.316010e+01 -1.318539e+01 -1.334514e+01 -1.324705e+01 -1.321416e+01 -1.287765e+01 -1.243729e+01 -1.189913e+01 -1.158113e+01 -1.189913e+01 -1.243729e+01 -1.287765e+01 -1.321416e+01 -1.324705e+01 -1.334514e+01 -1.318539e+01 -1.316010e+01 -1.299493e+01 -1.296072e+01 -1.288593e+01 -1.285684e+01 -1.286113e+01 -1.282425e+01 -1.286623e+01 
-1.281775e+01 -1.289429e+01 -1.283438e+01 -1.290946e+01 -1.290238e+01 -1.297389e+01 -1.306444e+01 -1.312852e+01 -1.330874e+01 -1.332026e+01 -1.345007e+01 -1.329564e+01 -1.323439e+01 -1.298404e+01 -1.284168e+01 -1.268331e+01 -1.237420e+01 -1.268331e+01 -1.284168e+01 -1.298404e+01 -1.323439e+01 -1.329564e+01 -1.345007e+01 -1.332026e+01 -1.330874e+01 -1.312852e+01 -1.306444e+01 -1.297389e+01 -1.290238e+01 -1.290946e+01 -1.283438e+01 -1.289429e+01 
-1.284485e+01 -1.293507e+01 -1.287794e+01 -1.297892e+01 -1.299523e+01 -1.310012e+01 -1.324469e+01 -1.333866e+01 -1.359859e+01 -1.362028e+01 -1.380090e+01 -1.360318e+01 -1.361284e+01 -1.312498e+01 -1.245970e+01 -1.195726e+01 -1.150046e+01 -1.195726e+01 -1.245970e+01 -1.312498e+01 -1.361284e+01 -1.360318e+01 -1.380090e+01 -1.362028e+01 -1.359859e+01 -1.333866e+01 -1.324469e+01 -1.310012e+01 -1.299523e+01 -1.297892e+01 -1.287794e+01 -1.293507e+01 
-1.283633e+01 -1.297173e+01 -1.289155e+01 -1.305267e+01 -1.306224e+01 -1.322829e+01 -1.339525e+01 -1.352796e+01 -1.383487e+01 -1.381105e+01 -1.388104e+01 -1.334725e+01 -1.287961e+01 -1.222230e+01 -1.252147e+01 -1.295685e+01 -1.248024e+01 -1.295685e+01 -1.252147e+01 -1.222230e+01 -1.287961e+01 -1.334725e+01 -1.388104e+01 -1.381105e+01 -1.383487e+01 -1.352796e+01 -1.339525e+01 -1.322829e+01 -1.306224e+01 -1.305267e+01 -1.289155e+01 -1.297173e+01 
-1.284617e+01 -1.301408e+01 -1.292443e+01 -1.313066e+01 -1.314683e+01 -1.336083e+01 -1.358033e+01 -1.376605e+01 -1.425380e+01 -1.439347e+01 -1.465350e+01 -1.438023e+01 -1.479080e+01 -1.343247e+01 -1.100078e+01 -9.158786e+00 -7.856032e+00 -9.158786e+00 -1.100078e+01 -1.343247e+01 -1.479080e+01 -1.438023e+01 -1.465350e+01 -1.439347e+01 -1.425380e+01 -1.376605e+01 -1.358033e+01 -1.336083e+01 -1.314683e+01 -1.313066e+01 -1.292443e+01 -1.301408e+01 
-1.283675e+01 -1.307118e+01 -1.294639e+01 -1.324112e+01 -1.322749e+01 -1.354559e+01 -1.380049e+01 -1.413523e+01 -1.497064e+01 -1.534369e+01 -1.557618e+01 -1.320729e+01 -5.677171e+00 6.525073e+00 1.830165e+01 2.454074e+01 2.602868e+01 2.454074e+01 1.830165e+01 6.525073e+00 -5.677171e+00 -1.320729e+01 -1.557618e+01 -1.534369e+01 -1.497064e+01 -1.413523e+01 -1.380049e+01 -1.354559e+01 -1.322749e+01 -1.324112e+01 -1.294639e+01 -1.307118e+01 
-1.284968e+01 -1.314284e+01 -1.298425e+01 -1.334761e+01 -1.329346e+01 -1.368863e+01 -1.394788e+01 -1.433535e+01 -1.554147e+01 -1.525181e+01 -1.143704e+01 4.902795e+00 2.678544e+01 3.957308e+01 4.682756e+01 5.019666e+01 4.929846e+01 5.019666e+01 4.682756e+01 3.957308e+01 2.678544e+01 4.902795e+00 -1.143704e+01 -1.525181e+01 -1.554147e+01 -1.433535e+01 -1.394788e+01 -1.368863e+01 -1.329346e+01 -1.334761e+01 -1.298425e+01 -1.314284e+01 
-1.284119e+01 -1.321697e+01 -1.300093e+01 -1.347392e+01 -1.330626e+01 -1.386019e+01 -1.397835e+01 -1.460292e+01 -1.654885e+01 -1.112426e+01 9.823022e+00 3.431092e+01 4.738677e+01 4.955012e+01 4.847686e+01 4.949573e+01 4.837804e+01 4.949573e+01 4.847686e+01 4.955012e+01 4.738677e+01 3.431092e+01 9.823022e+00 -1.112426e+01 -1.654885e+01 -1.460292e+01 -1.397835e+01 -1.386019e+01 -1.330626e+01 -1.347392e+01 -1.300093e+01 -1.321697e+01 
-1.283711e+01 -1.329728e+01 -1.302359e+01 -1.360479e+01 -1.331215e+01 -1.405337e+01 -1.390801e+01 -1.528623e+01 -1.518310e+01 3.948730e+00 3.586888e+01 4.843455e+01 4.842757e+01 4.886331e+01 4.856044e+01 4.964751e+01 4.907332e+01 4.964751e+01 4.856044e+01 4.886331e+01 4.842757e+01 4.843455e+01 3.586888e+01 3.948730e+00 -1.518310e+01 -1.528623e+01 -1.390801e+01 -1.405337e+01 -1.331215e+01 -1.360479e+01 -1.302359e+01 -1.329728e+01 
-1.275439e+01 -1.326568e+01 -1.295307e+01 -1.362684e+01 -1.306944e+01 -1.408621e+01 -1.286075e+01 -1.626610e+01 -5.792288e+00 2.532703e+01 4.753453e+01 4.873431e+01 4.900933e+01 4.923522e+01 4.881546e+01 4.942494e+01 4.879870e+01 4.942494e+01 4.881546e+01 4.923522e+01 4.900933e+01 4.873431e+01 4.753453e+01 2.532703e+01 -5.792288e+00 -1.626610e+01 -1.286075e+01 -1.408621e+01 -1.306944e+01 -1.362684e+01 -1.295307e+01 -1.326568e+01 
-1.256896e+01 -1.313088e+01 -1.279493e+01 -1.357491e+01 -1.283802e+01 -1.411487e+01 -1.222104e+01 -1.486248e+01 6.958813e+00 4.225600e+01 5.030855e+01 4.927921e+01 4.932432e+01 4.938720e+01 4.910448e+01 4.962009e+01 4.914935e+01 4.962009e+01 4.910448e+01 4.938720e+01 4.932432e+01 4.927921e+01 5.030855e+01 4.225600e+01 6.958813e+00 -1.486248e+01 -1.222104e+01 -1.411487e+01 -1.283802e+01 -1.357491e+01 -1.279493e+01 -1.313088e+01 
-1.228508e+01 -1.272825e+01 -1.259604e+01 -1.305192e+01 -1.283686e+01 -1.278662e+01 -1.225513e+01 -1.032616e+01 1.695469e+01 4.862868e+01 4.953132e+01 4.936733e+01 4.925777e+01 4.953171e+01 4.913921e+01 4.957721e+01 4.907772e+01 4.957721e+01 4.913921e+01 4.953171e+01 4.925777e+01 4.936733e+01 4.953132e+01 4.862868e+01 1.695469e+01 -1.032616e+01 -1.225513e+01 -1.278662e+01 -1.283686e+01 -1.305192e+01 -1.259604e+01 -1.272825e+01 
-1.189256e+01 -1.221786e+01 -1.216683e+01 -1.221764e+01 -1.208444e+01 -1.045990e+01 -9.915766e+00 -6.197645e+00 2.463806e+01 4.957053e+01 4.854097e+01 4.952983e+01 4.911422e+01 4.964902e+01 4.925257e+01 4.971771e+01 4.925863e+01 4.971771e+01 4.925257e+01 4.964902e+01 4.911422e+01 4.952983e+01 4.854097e+01 4.957053e+01 2.463806e+01 -6.197645e+00 -9.915766e+00 -1.045990e+01 -1.208444e+01 -1.221764e+01 -1.216683e+01 -1.221786e+01 
-1.167899e+01 -1.198440e+01 -1.193091e+01 -1.194576e+01 -1.159684e+01 -9.796084e+00 -8.346050e+00 -4.062561e+00 2.830238e+01 5.078836e+01 4.855941e+01 4.984585e+01 4.916164e+01 4.975543e+01 4.923758e+01 4.969665e+01 4.918990e+01 4.969665e+01 4.923758e+01 4.975543e+01 4.916164e+01 4.984585e+01 4.855941e+01 5.078836e+01 2.830238e+01 -4.062561e+00 -8.346050e+00 -9.796084e+00 -1.159684e+01 -1.194576e+01 -1.193091e+01 -1.198440e+01 
-1.189256e+01 -1.221786e+01 -1.216683e+01 -1.221764e+01 -1.208444e+01 -1.045990e+01 -9.915766e+00 -6.197645e+00 2.463806e+01 4.957053e+01 4.854097e+01 4.952983e+01 4.911422e+01 4.964902e+01 4.925257e+01 4.971771e+01 4.925863e+01 4.971771e+01 4.925257e+01 4.964902e+01 4.911422e+01 4.952983e+01 4.854097e+01 4.957053e+01 2.463806e+01 -6.197645e+00 -9.915766e+00 -1.045990e+01 -1.208444e+01 -1.221764e+01 -1.216683e+01 -1.221786e+01 
-1.228508e+01 -1.272825e+01 -1.259604e+01 -1.305192e+01 -1.283686e+01 -1.278662e+01 -1.225513e+01 -1.032616e+01 1.695469e+01 4.862868e+01 4.953132e+01 4.936733e+01 4.925777e+01 4.953171e+01 4.913921e+01 4.957721e+01 4.907772e+01 4.957721e+01 4.913921e+01 4.953171e+01 4.925777e+01 4.936733e+01 4.953132e+01 4.862868e+01 1.695469e+01 -1.032616e+01 -1.225513e+01 -1.278662e+01 -1.283686e+01 -1.305192e+01 -1.259604e+01 -1.272825e+01 
-1.256896e+01 -1.313088e+01 -1.279493e+01 -1.357491e+01 -1.283802e+01 -1.411487e+01 -1.222104e+01 -1.486248e+01 6.958813e+00 4.225600e+01 5.030855e+01 4.927921e+01 4.932432e+01 4.938720e+01 4.910448e+01 4.962009e+01 4.914935e+01 4.962009e+01 4.910448e+01 4.938720e+01 4.932432e+01 4.927921e+01 5.030855e+01 4.225600e+01 6.958813e+00 -1.486248e+01 -1.222104e+01 -1.411487e+01 -1.283802e+01 -1.357491e+01 -1.279493e+01 -1.313088e+01 
-1.275439e+01 -1.326568e+01 -1.295307e+01 -1.362684e+01 -1.306944e+01 -1.408621e+01 -1.286075e+01 -1.626610e+01 -5.792288e+00 2.532703e+01 4.753453e+01 4.873431e+01 4.900933e+01 4.923522e+01 4.881546e+01 4.942494e+01 4.879870e+01 4.942494e+01 4.881546e+01 4.923522e+01 4.900933e+01 4.873431e+01 4.753453e+01 2.532703e+01 -5.792288e+00 -1.626610e+01 -1.286075e+01 -1.408621e+01 -1.306944e+01 -1.362684e+01 -1.295307e+01 -1.326568e+01 
-1.283711e+01 -1.329728e+01 -1.302359e+01 -1.360479e+01 -1.331215e+01 -1.405337e+01 -1.390801e+01 -1.528623e+01 -1.518310e+01 3.948730e+00 3.586888e+01 4.843455e+01 4.842757e+01 4.886331e+01 4.856044e+01 4.964751e+01 4.907332e+01 4.964751e+01 4.856044e+01 4.886331e+01 4.842757e+01 4.843455e+01 3.586888e+01 3.948730e+00 -1.518310e+01 -1.528623e+01 -1.390801e+01 -1.405337e+01 -1.331215e+01 -1.360479e+01 -1.302359e+01 -1.329728e+01 
-1.284119e+01 -1.321697e+01 -1.300093e+01 -1.347392e+01 -1.330626e+01 -1.386019e+01 -1.397835e+01 -1.460292e+01 -1.654885e+01 -1.112426e+01 9.823022e+00 3.431092e+01 4.738677e+01 4.955012e+01 4.847686e+01 4.949573e+01 4.837804e+01 4.949573e+01 4.847686e+01 4.955012e+01 4.738677e+01 3.431092e+01 9.823022e+00 -1.112426e+01 -1.654885e+01 -1.460292e+01 -1.397835e+01 -1.386019e+01 -1.330626e+01 -1.347392e+01 -1.300093e+01 -1.321697e+01 
-1.284968e+01 -1.314284e+01 -1.298425e+01 -1.334761e+01 -1.329346e+01 -1.368863e+01 -1.394788e+01 -1.433535e+01 -1.554147e+01 -1.525181e+01 -1.143704e+01 4.902795e+00 2.678544e+01 3.957308e+01 4.682756e+01 5.019666e+01 4.929846e+01 5.019666e+01 4.682756e+01 3.957308e+01 2.678544e+01 4.902795e+00 -1.143704e+01 -1.525181e+01 -1.554147e+01 -1.433535e+01 -1.394788e+01 -1.368863e+01 -1.329346e+01 -1.334761e+01 -1.298425e+01 -1.314284e+01 
-1.283675e+01 -1.307118e+01 -1.294639e+01 -1.324112e+01 -1.322749e+01 -1.354559e+01 -1.380049e+01 -1.413523e+01 -1.497064e+01 -1.534369e+01 -1.557618e+01 -1.320729e+01 -5.677171e+00 6.525073e+00 1.830165e+01 2.454074e+01 2.602868e+01 2.454074e+01 1.830165e+01 6.525073e+00 -5.677171e+00 -1.320729e+01 -1.557618e+01 -1.534369e+01 -1.497064e+01 -1.413523e+01 -1.380049e+01 -1.354559e+01 -1.322749e+01 -1.324112e+01 -1.294639e+01 -1.307118e+01 
-1.284617e+01 -1.301408e+01 -1.292443e+01 -1.313066e+01 -1.314683e+01 -1.336083e+01 -1.358033e+01 -1.376605e+01 -1.425380e+01 -1.439347e+01 -1.465350e+01 -1.438023e+01 -1.479080e+01 -1.343247e+01 -1.100078e+01 -9.158786e+00 -7.856032e+00 -9.158786e+00 -1.100078e+01 -1.343247e+01 -1.479080e+01 -1.438023e+01 -1.465350e+01 -1.439347e+01 -1.425380e+01 -1.376605e+01 -1.358033e+01 -1.336083e+01 -1.314683e+01 -1.313066e+01 -1.292443e+01 -1.301408e+01 
-1.283633e+01 -1.297173e+01 -1.289155e+01 -1.305267e+01 -1.306224e+01 -1.322829e+01 -1.339525e+01 -1.352796e+01 -1.383487e+01 -1.381105e+01 -1.388104e+01 -1.334725e+01 -1.287961e+01 -1.222230e+01 -1.252147e+01 -1.295685e+01 -1.248024e+01 -1.295685e+01 -1.252147e+01 -1.222230e+01 -1.287961e+01 -1.334725e+01 -1.388104e+01 -1.381105e+01 -1.383487e+01 -1.352796e+01 -1.339525e+01 -1.322829e+01 -1.306224e+01 -1.305267e+01 -1.289155e+01 -1.297173e+01 
-1.284485e+01 -1.293507e+01 -1.287794e+01 -1.297892e+01 -1.299523e+01 -1.310012e+01 -1.324469e+01 -1.333866e+01 -1.359859e+01 -1.362028e+01 -1.380090e+01 -1.360318e+01 -1.361284e+01 -1.312498e+01 -1.245970e+01 -1.195726e+01 -1.150046e+01 -1.195726e+01 -1.245970e+01 -1.312498e+01 -1.361284e+01 -1.360318e+01 -1.380090e+01 -1.362028e+01 -1.359859e+01 -1.333866e+01 -1.324469e+01 -1.310012e+01 -1.299523e+01 -1.297892e+01 -1.287794e+01 -1.293507e+01 
-1.281775e+01 -1.289429e+01 -1.283438e+01 -1.290946e+01 -1.290238e+01 -1.297389e+01 -1.306444e+01 -1.312852e+01 -1.330874e+01 -1.332026e+01 -1.345007e+01 -1.329564e+01 -1.323439e+01 -1.298404e+01 -1.284168e+01 -1.268331e+01 -1.237420e+01 -1.268331e+01 -1.284168e+01 -1.298404e+01 -1.323439e+01 -1.329564e+01 -1.345007e+01 -1.332026e+01 -1.330874e+01 -1.312852e+01 -1.306444e+01 -1.297389e+01 -1.290238e+01 -1.290946e+01 -1.283438e+01 -1.289429e+01 
-1.281906e+01 -1.286623e+01 -1.282425e+01 -1.286113e+01 -1.285684e+01 -1.288593e+01 -1.296072e+01 -1.299493e+01 -1.316010e+01 -1.318539e+01 -1.334514e+01 -1.324705e+01 -1.321416e+01 -1.287765e+01 -1.243729e+01 -1.189913e+01 -1.158113e+01 -1.189913e+01 -1.243729e+01 -1.287765e+01 -1.321416e+01 -1.324705e+01 -1.334514e+01 -1.318539e+01 -1.316010e+01 -1.299493e+01 -1.296072e+01 -1.288593e+01 -1.285684e+01 -1.286113e+01 -1.282425e+01 -1.286623e+01 
-1.277974e+01 -1.282596e+01 -1.277511e+01 -1.280217e+01 -1.277320e+01 -1.278263e+01 -1.281208e+01 -1.282382e+01 -1.293467e+01 -1.295318e+01 -1.307541e+01 -1.299547e+01 -1.292990e+01 -1.259790e+01 -1.219408e+01 -1.165235e+01 -1.135434e+01 -1.165235e+01 -1.219408e+01 -1.259790e+01 -1.292990e+01 -1.299547e+01 -1.307541e+01 -1.295318e+01 -1.293467e+01 -1.282382e+01 -1.281208e+01 -1.278263e+01 -1.277320e+01 -1.280217e+01 -1.277511e+01 -1.282596e+01 
-1.278822e+01 -1.281613e+01 -1.277984e+01 -1.278510e+01 -1.276276e+01 -1.274495e+01 -1.276774e+01 -1.274690e+01 -1.283817e+01 -1.281945e+01 -1.290955e+01 -1.277016e+01 -1.262721e+01 -1.215373e+01 -1.157439e+01 -1.084320e+01 -1.051825e+01 -1.084320e+01 -1.157439e+01 -1.215373e+01 -1.262721e+01 -1.277016e+01 -1.290955e+01 -1.281945e+01 -1.283817e+01 -1.274690e+01 -1.276774e+01 -1.274495e+01 -1.276276e+01 -1.278510e+01 -1.277984e+01 -1.281613e+01 
