# vtk DataFile Version 2.0
Comment goes here
ASCII

DATASET STRUCTURED_POINTS
FIELD FieldData 1
TIME 1 1 double
0.04000000
DIMENSIONS    32   32   1

ORIGIN    0.000   0.000   0.000
SPACING   0.03125 0.03125   1.000

POINT_DATA   1024
SCALARS P double
LOOKUP_TABLE default

-1.670229e+01 -1.678140e+01 -1.688975e+01 -1.714563e+01 -1.738030e+01 -1.771430e+01 -1.789711e+01 -1.804942e+01 -1.780955e+01 -1.730449e+01 -1.615128e+01 -1.459679e+01 -1.258440e+01 -1.063876e+01 -9.062193e+00 -8.394174e+00 -7.870231e+00 -8.394174e+00 -9.062193e+00 -1.063876e+01 -1.258440e+01 -1.459679e+01 -1.615128e+01 -1.730449e+01 -1.780955e+01 -1.804942e+01 -1.789711e+01 -1.771430e+01 -1.738030e+01 -1.714563e+01 -1.688975e+01 -1.678140e+01 
-1.671842e+01 -1.679574e+01 -1.691248e+01 -1.717338e+01 -1.742351e+01 -1.776985e+01 -1.797044e+01 -1.813615e+01 -1.789017e+01 -1.736936e+01 -1.611862e+01 -1.446852e+01 -1.223494e+01 -1.019397e+01 -8.530559e+00 -7.846354e+00 -7.405583e+00 -7.846354e+00 -8.530559e+00 -1.019397e+01 -1.223494e+01 -1.446852e+01 -1.611862e+01 -1.736936e+01 -1.789017e+01 -1.813615e+01 -1.797044e+01 -1.776985e+01 -1.742351e+01 -1.717338e+01 -1.691248e+01 -1.679574e+01 
-1.677439e+01 -1.686103e+01 -1.700512e+01 -1.731610e+01 -1.764142e+01 -1.809454e+01 -1.843468e+01 -1.876973e+01 -1.870741e+01 -1.834078e+01 -1.717200e+01 -1.542607e+01 -1.301406e+01 -1.058719e+01 -9.105269e+00 -8.005519e+00 -7.213083e+00 -8.005519e+00 -9.105269e+00 -1.058719e+01 -1.301406e+01 -1.542607e+01 -1.717200e+01 -1.834078e+01 -1.870741e+01 -1.876973e+01 -1.843468e+01 -1.809454e+01 -1.764142e+01 -1.731610e+01 -1.700512e+01 -1.686103e+01 
-1.684661e+01 -1.693938e+01 -1.713055e+01 -1.750609e+01 -1.795091e+01 -1.855244e+01 -1.910891e+01 -1.968565e+01 -1.987607e+01 -1.969411e+01 -1.845273e+01 -1.632470e+01 -1.321295e+01 -1.064633e+01 -8.526810e+00 -7.015768e+00 -6.007635e+00 -7.015768e+00 -8.526810e+00 -1.064633e+01 -1.321295e+01 -1.632470e+01 -1.845273e+01 -1.969411e+01 -1.987607e+01 -1.968565e+01 -1.910891e+01 -1.855244e+01 -1.795091e+01 -1.750609e+01 -1.713055e+01 -1.693938e+01 
-1.688998e+01 -1.699879e+01 -1.724982e+01 -1.773052e+01 -1.834701e+01 -1.920235e+01 -2.012265e+01 -2.118644e+01 -2.196493e+01 -2.244800e+01 -2.156242e+01 -1.944075e+01 -1.582597e+01 -1.153675e+01 -7.959043e+00 -5.403185e+00 -4.160775e+00 -5.403185e+00 -7.959043e+00 -1.153675e+01 -1.582597e+01 -1.944075e+01 -2.156242e+01 -2.244800e+01 -2.196493e+01 -2.118644e+01 -2.012265e+01 -1.920235e+01 -1.834701e+01 -1.773052e+01 -1.724982e+01 -1.699879e+01 
-1.688783e+01 -1.700968e+01 -1.734169e+01 -1.794658e+01 -1.880355e+01 -1.999501e+01 -2.148666e+01 -2.327855e+01 -2.514558e+01 -2.676725e+01 -2.638111e+01 -2.305101e+01 -1.690612e+01 -1.131673e+01 -7.635270e+00 -5.975491e+00 -5.302947e+00 -5.975491e+00 -7.635270e+00 -1.131673e+01 -1.690612e+01 -2.305101e+01 -2.638111e+01 -2.676725e+01 -2.514558e+01 -2.327855e+01 -2.148666e+01 -1.999501e+01 -1.880355e+01 -1.794658e+01 -1.734169e+01 -1.700968e+01 
-1.672308e+01 -1.686081e+01 -1.726806e+01 -1.801126e+01 -1.911509e+01 -2.072578e+01 -2.291669e+01 -2.579824e+01 -2.955134e+01 -3.350362e+01 -3.431754e+01 -3.190995e+01 -2.411919e+01 -1.297634e+01 -4.858677e+00 -2.070583e+00 -2.059215e+00 -2.070583e+00 -4.858677e+00 -1.297634e+01 -2.411919e+01 -3.190995e+01 -3.431754e+01 -3.350362e+01 -2.955134e+01 -2.579824e+01 -2.291669e+01 -2.072578e+01 -1.911509e+01 -1.801126e+01 -1.726806e+01 -1.686081e+01 
-1.638874e+01 -1.653576e+01 -1.701564e+01 -1.788644e+01 -1.926157e+01 -2.135941e+01 -2.451237e+01 -2.909973e+01 -3.627250e+01 -4.405824e+01 -4.727273e+01 -3.610667e+01 -8.469488e+00 1.818766e+01 3.242390e+01 3.580637e+01 3.538839e+01 3.580637e+01 3.242390e+01 1.818766e+01 -8.469488e+00 -3.610667e+01 -4.727273e+01 -4.405824e+01 -3.627250e+01 -2.909973e+01 -2.451237e+01 -2.135941e+01 -1.926157e+01 -1.788644e+01 -1.701564e+01 -1.653576e+01 
-1.573915e+01 -1.587731e+01 -1.639396e+01 -1.733116e+01 -1.886149e+01 -2.134898e+01 -2.526084e+01 -3.143827e+01 -4.138718e+01 -4.917497e+01 -3.560861e+01 1.602085e+00 3.851581e+01 5.769755e+01 6.327695e+01 6.302455e+01 6.172577e+01 6.302455e+01 6.327695e+01 5.769755e+01 3.851581e+01 1.602085e+00 -3.560861e+01 -4.917497e+01 -4.138718e+01 -3.143827e+01 -2.526084e+01 -2.134898e+01 -1.886149e+01 -1.733116e+01 -1.639396e+01 -1.587731e+01 
-1.480086e+01 -1.491397e+01 -1.540538e+01 -1.628767e+01 -1.776115e+01 -2.025862e+01 -2.419880e+01 -3.061294e+01 -4.027079e+01 -3.217632e+01 7.482628e+00 4.154160e+01 5.622565e+01 5.980911e+01 6.026583e+01 6.011729e+01 5.978146e+01 6.011729e+01 6.026583e+01 5.980911e+01 5.622565e+01 4.154160e+01 7.482628e+00 -3.217632e+01 -4.027079e+01 -3.061294e+01 -2.419880e+01 -2.025862e+01 -1.776115e+01 -1.628767e+01 -1.540538e+01 -1.491397e+01 
-1.351921e+01 -1.355575e+01 -1.397874e+01 -1.466316e+01 -1.581261e+01 -1.802825e+01 -2.088663e+01 -2.705870e+01 -2.904630e+01 -8.393889e-02 3.682232e+01 4.635616e+01 5.311866e+01 5.653813e+01 5.926687e+01 6.068937e+01 6.086546e+01 6.068937e+01 5.926687e+01 5.653813e+01 5.311866e+01 4.635616e+01 3.682232e+01 -8.393889e-02 -2.904630e+01 -2.705870e+01 -2.088663e+01 -1.802825e+01 -1.581261e+01 -1.466316e+01 -1.397874e+01 -1.355575e+01 
-1.204266e+01 -1.200270e+01 -1.230560e+01 -1.269703e+01 -1.342048e+01 -1.500894e+01 -1.660676e+01 -2.147909e+01 -1.190370e+01 2.307241e+01 4.308295e+01 4.580710e+01 5.152185e+01 5.524583e+01 5.715040e+01 5.858787e+01 5.865179e+01 5.858787e+01 5.715040e+01 5.524583e+01 5.152185e+01 4.580710e+01 4.308295e+01 2.307241e+01 -1.190370e+01 -2.147909e+01 -1.660676e+01 -1.500894e+01 -1.342048e+01 -1.269703e+01 -1.230560e+01 -1.200270e+01 
-1.047691e+01 -1.027138e+01 -1.053154e+01 -1.044376e+01 -1.092010e+01 -1.132864e+01 -1.246609e+01 -1.390576e+01 2.202393e+00 3.216638e+01 4.221467e+01 4.538848e+01 4.931956e+01 5.360202e+01 5.589801e+01 5.761547e+01 5.788298e+01 5.761547e+01 5.589801e+01 5.360202e+01 4.931956e+01 4.538848e+01 4.221467e+01 3.216638e+01 2.202393e+00 -1.390576e+01 -1.246609e+01 -1.132864e+01 -1.092010e+01 -1.044376e+01 -1.053154e+01 -1.027138e+01 
-9.013387e+00 -8.704100e+00 -8.869500e+00 -8.391596e+00 -8.575795e+00 -7.989270e+00 -8.669916e+00 -7.111976e+00 1.168389e+01 3.526266e+01 4.161769e+01 4.550560e+01 4.882449e+01 5.253425e+01 5.445302e+01 5.598718e+01 5.618887e+01 5.598718e+01 5.445302e+01 5.253425e+01 4.882449e+01 4.550560e+01 4.161769e+01 3.526266e+01 1.168389e+01 -7.111976e+00 -8.669916e+00 -7.989270e+00 -8.575795e+00 -8.391596e+00 -8.869500e+00 -8.704100e+00 
-7.816785e+00 -7.361529e+00 -7.514061e+00 -6.665864e+00 -6.668546e+00 -5.319799e+00 -5.531373e+00 -2.020430e+00 1.831590e+01 3.735278e+01 4.300427e+01 4.630294e+01 4.902100e+01 5.201085e+01 5.384202e+01 5.529757e+01 5.555884e+01 5.529757e+01 5.384202e+01 5.201085e+01 4.902100e+01 4.630294e+01 4.300427e+01 3.735278e+01 1.831590e+01 -2.020430e+00 -5.531373e+00 -5.319799e+00 -6.668546e+00 -6.665864e+00 -7.514061e+00 -7.361529e+00 
-7.029472e+00 -6.535085e+00 -6.618743e+00 -5.595661e+00 -5.390583e+00 -3.670609e+00 -3.337995e+00 1.123380e+00 2.195000e+01 3.841336e+01 4.406110e+01 4.681143e+01 4.911018e+01 5.160767e+01 5.318487e+01 5.451917e+01 5.471501e+01 5.451917e+01 5.318487e+01 5.160767e+01 4.911018e+01 4.681143e+01 4.406110e+01 3.841336e+01 2.195000e+01 1.123380e+00 -3.337995e+00 -3.670609e+00 -5.390583e+00 -5.595661e+00 -6.618743e+00 -6.535085e+00 
-6.759996e+00 -6.209037e+00 -6.313679e+00 -5.193604e+00 -4.955616e+00 -3.098568e+00 -2.565474e+00 2.124290e+00 2.292049e+01 3.862871e+01 4.446048e+01 4.708960e+01 4.925470e+01 5.163119e+01 5.321576e+01 5.452765e+01 5.475955e+01 5.452765e+01 5.321576e+01 5.163119e+01 4.925470e+01 4.708960e+01 4.446048e+01 3.862871e+01 2.292049e+01 2.124290e+00 -2.565474e+00 -3.098568e+00 -4.955616e+00 -5.193604e+00 -6.313679e+00 -6.209037e+00 
-7.029472e+00 -6.535085e+00 -6.618743e+00 -5.595661e+00 -5.390583e+00 -3.670609e+00 -3.337995e+00 1.123380e+00 2.195000e+01 3.841336e+01 4.406110e+01 4.681143e+01 4.911018e+01 5.160767e+01 5.318487e+01 5.451917e+01 5.471501e+01 5.451917e+01 5.318487e+01 5.160767e+01 4.911018e+01 4.681143e+01 4.406110e+01 3.841336e+01 2.195000e+01 1.123380e+00 -3.337995e+00 -3.670609e+00 -5.390583e+00 -5.595661e+00 -6.618743e+00 -6.535085e+00 
-7.816785e+00 -7.361529e+00 -7.514061e+00 -6.665864e+00 -6.668546e+00 -5.319799e+00 -5.531373e+00 -2.020430e+00 1.831590e+01 3.735278e+01 4.300427e+01 4.630294e+01 4.902100e+01 5.201085e+01 5.384202e+01 5.529757e+01 5.555884e+01 5.529757e+01 5.384202e+01 5.201085e+01 4.902100e+01 4.630294e+01 4.300427e+01 3.735278e+01 1.831590e+01 -2.020430e+00 -5.531373e+00 -5.319799e+00 -6.668546e+00 -6.665864e+00 -7.514061e+00 -7.361529e+00 
-9.013387e+00 -8.704100e+00 -8.869500e+00 -8.391596e+00 -8.575795e+00 -7.989270e+00 -8.669916e+00 -7.111976e+00 1.168389e+01 3.526266e+01 4.161769e+01 4.550560e+01 4.882449e+01 5.253425e+01 5.445302e+01 5.598718e+01 5.618887e+01 5.598718e+01 5.445302e+01 5.253425e+01 4.882449e+01 4.550560e+01 4.161769e+01 3.526266e+01 1.168389e+01 -7.111976e+00 -8.669916e+00 -7.989270e+00 -8.575795e+00 -8.391596e+00 -8.869500e+00 -8.704100e+00 
-1.047691e+01 -1.027138e+01 -1.053154e+01 -1.044376e+01 -1.092010e+01 -1.132864e+01 -1.246609e+01 -1.390576e+01 2.202393e+00 3.216638e+01 4.221467e+01 4.538848e+01 4.931956e+01 5.360202e+01 5.589801e+01 5.761547e+01 5.788298e+01 5.761547e+01 5.589801e+01 5.360202e+01 4.931956e+01 4.538848e+01 4.221467e+01 3.216638e+01 2.202393e+00 -1.390576e+01 -1.246609e+01 -1.132864e+01 -1.092010e+01 -1.044376e+01 -1.053154e+01 -1.027138e+01 
-1.204266e+01 -1.200270e+01 -1.230560e+01 -1.269703e+01 -1.342048e+01 -1.500894e+01 -1.660676e+01 -2.147909e+01 -1.190370e+01 2.307241e+01 4.308295e+01 4.580710e+01 5.152185e+01 5.524583e+01 5.715040e+01 5.858787e+01 5.865179e+01 5.858787e+01 5.715040e+01 5.524583e+01 5.152185e+01 4.580710e+01 4.308295e+01 2.307241e+01 -1.190370e+01 -2.147909e+01 -1.660676e+01 -1.500894e+01 -1.342048e+01 -1.269703e+01 -1.230560e+01 -1.200270e+01 
-1.351921e+01 -1.355575e+01 -1.397874e+01 -1.466316e+01 -1.581261e+01 -1.802825e+01 -2.088663e+01 -2.705870e+01 -2.904630e+01 -8.393889e-02 3.682232e+01 4.635616e+01 5.311866e+01 5.653813e+01 5.926687e+01 6.068937e+01 6.086546e+01 6.068937e+01 5.926687e+01 5.653813e+01 5.311866e+01 4.635616e+01 3.682232e+01 -8.393889e-02 -2.904630e+01 -2.705870e+01 -2.088663e+01 -1.802825e+01 -1.581261e+01 -1.466316e+01 -1.397874e+01 -1.355575e+01 
-1.480086e+01 -1.491397e+01 -1.540538e+01 -1.628767e+01 -1.776115e+01 -2.025862e+01 -2.419880e+01 -3.061294e+01 -4.027079e+01 -3.217632e+01 7.482628e+00 4.154160e+01 5.622565e+01 5.980911e+01 6.026583e+01 6.011729e+01 5.978146e+01 6.011729e+01 6.026583e+01 5.980911e+01 5.622565e+01 4.154160e+01 7.482628e+00 -3.217632e+01 -4.027079e+01 -3.061294e+01 -2.419880e+01 -2.025862e+01 -1.776115e+01 -1.628767e+01 -1.540538e+01 -1.491397e+01 
-1.573915e+01 -1.587731e+01 -1.639396e+01 -1.733116e+01 -1.886149e+01 -2.134898e+01 -2.526084e+01 -3.143827e+01 -4.138718e+01 -4.917497e+01 -3.560861e+01 1.602085e+00 3.851581e+01 5.769755e+01 6.327695e+01 6.302455e+01 6.172577e+01 6.302455e+01 6.327695e+01 5.769755e+01 3.851581e+01 1.602085e+00 -3.560861e+01 -4.917497e+01 -4.138718e+01 -3.143827e+01 -2.526084e+01 -2.134898e+01 -1.886149e+01 -1.733116e+01 -1.639396e+01 -1.587731e+01 
-1.638874e+01 -1.653576e+01 -1.701564e+01 -1.788644e+01 -1.926157e+01 -2.135941e+01 -2.451237e+01 -2.909973e+01 -3.627250e+01 -4.405824e+01 -4.727273e+01 -3.610667e+01 -8.469488e+00 1.818766e+01 3.242390e+01 3.580637e+01 3.538839e+01 3.580637e+01 3.242390e+01 1.818766e+01 -8.469488e+00 -3.610667e+01 -4.727273e+01 -4.405824e+01 -3.627250e+01 -2.909973e+01 -2.451237e+01 -2.135941e+01 -1.926157e+01 -1.788644e+01 -1.701564e+01 -1.653576e+01 
-1.672308e+01 -1.686081e+01 -1.726806e+01 -1.801126e+01 -1.911509e+01 -2.072578e+01 -2.291669e+01 -2.579824e+01 -2.955134e+01 -3.350362e+01 -3.431754e+01 -3.190995e+01 -2.411919e+01 -1.297634e+01 -4.858677e+00 -2.070583e+00 -2.059215e+00 -2.070583e+00 -4.858677e+00 -1.297634e+01 -2.411919e+01 -3.190995e+01 -3.431754e+01 -3.350362e+01 -2.955134e+01 -2.579824e+01 -2.291669e+01 -2.072578e+01 -1.911509e+01 -1.801126e+01 -1.726806e+01 -1.686081e+01 
-1.688783e+01 -1.700968e+01 -1.734169e+01 -1.794658e+01 -1.880355e+01 -1.999501e+01 -2.148666e+01 -2.327855e+01 -2.514558e+01 -2.676725e+01 -2.638111e+01 -2.305101e+01 -1.690612e+01 -1.131673e+01 -7.635270e+00 -5.975491e+00 -5.302947e+00 -5.975491e+00 -7.635270e+00 -1.131673e+01 -1.690612e+01 -2.305101e+01 -2.638111e+01 -2.676725e+01 -2.514558e+01 -2.327855e+01 -2.148666e+01 -1.999501e+01 -1.880355e+01 -1.794658e+01 -1.734169e+01 -1.700968e+01 
-1.688998e+01 -1.699879e+01 -1.724982e+01 -1.773052e+01 -1.834701e+01 -1.920235e+01 -2.012265e+01 -2.118644e+01 -2.196493e+01 -2.244800e+01 -2.156242e+01 -1.944075e+01 -1.582597e+01 -1.153675e+01 -7.959043e+00 -5.403185e+00 -4.160775e+00 -5.403185e+00 -7.959043e+00 -1.153675e+01 -1.582597e+01 -1.944075e+01 -2.156242e+01 -2.244800e+01 -2.196493e+01 -2.118644e+01 -2.012265e+01 -1.920235e+01 -1.834701e+01 -1.773052e+01 -1.724982e+01 -1.699879e+01 
-1.684661e+01 -1.693938e+01 -1.713055e+01 -1.750609e+01 -1.795091e+01 -1.855244e+01 -1.910891e+01 -1.968565e+01 -1.987607e+01 -1.969411e+01 -1.845273e+01 -1.632470e+01 -1.321295e+01 -1.064633e+01 -8.526810e+00 -7.015768e+00 -6.007635e+00 -7.015768e+00 -8.526810e+00 -1.064633e+01 -1.321295e+01 -1.632470e+01 -1.845273e+01 -1.969411e+01 -1.987607e+01 -1.968565e+01 -1.910891e+01 -1.855244e+01 -1.795091e+01 -1.750609e+01 -1.713055e+01 -1.693938e+01 
-1.677439e+01 -1.686103e+01 -1.700512e+01 -1.731610e+01 -1.764142e+01 -1.809454e+01 -1.843468e+01 -1.876973e+01 -1.870741e+01 -1.834078e+01 -1.717200e+01 -1.542607e+01 -1.301406e+01 -1.058719e+01 -9.105269e+00 -8.005519e+00 -7.213083e+00 -8.005519e+00 -9.105269e+00 -1.058719e+01 -1.301406e+01 -1.542607e+01 -1.717200e+01 -1.834078e+01 -1.870741e+01 -1.876973e+01 -1.843468e+01 -1.809454e+01 -1.764142e+01 -1.731610e+01 -1.700512e+01 -1.686103e+01 
-1.671842e+01 -1.679574e+01 -1.691248e+01 -1.717338e+01 -1.742351e+01 -1.776985e+01 -1.797044e+01 -1.813615e+01 -1.789017e+01 -1.736936e+01 -1.611862e+01 -1.446852e+01 -1.223494e+01 -1.019397e+01 -8.530559e+00 -7.846354e+00 -7.405583e+00 -7.846354e+00 -8.530559e+00 -1.019397e+01 -1.223494e+01 -1.446852e+01 -1.611862e+01 -1.736936e+01 -1.789017e+01 -1.813615e+01 -1.797044e+01 -1.776985e+01 -1.742351e+01 -1.717338e+01 -1.691248e+01 -1.679574e+01 
