# vtk DataFile Version 2.0
Comment goes here
ASCII

DATASET STRUCTURED_POINTS
FIELD FieldData 1
TIME 1 1 double
0.44000000
DIMENSIONS    32   32   1

ORIGIN    0.000   0.000   0.000
SPACING   0.03125 0.03125   1.000

POINT_DATA   1024
SCALARS P double
LOOKUP_TABLE default

-1.566574e+01 -1.552097e+01 -1.559147e+01 -1.539574e+01 -1.536222e+01 -1.512382e+01 -1.495108e+01 -1.465232e+01 -1.430632e+01 -1.391880e+01 -1.339257e+01 -1.292383e+01 -1.223581e+01 -1.166017e+01 -1.073819e+01 -1.002815e+01 -9.422351e+00 -1.002815e+01 -1.073819e+01 -1.166017e+01 -1.223581e+01 -1.292383e+01 -1.339257e+01 -1.391880e+01 -1.430632e+01 -1.465232e+01 -1.495108e+01 -1.512382e+01 -1.536222e+01 -1.539574e+01 -1.559147e+01 -1.552097e+01 
-1.564743e+01 -1.551686e+01 -1.557522e+01 -1.539521e+01 -1.535292e+01 -1.513136e+01 -1.495280e+01 -1.466784e+01 -1.431154e+01 -1.392119e+01 -1.336359e+01 -1.286009e+01 -1.212418e+01 -1.149501e+01 -1.053967e+01 -9.817670e+00 -9.223694e+00 -9.817670e+00 -1.053967e+01 -1.149501e+01 -1.212418e+01 -1.286009e+01 -1.336359e+01 -1.392119e+01 -1.431154e+01 -1.466784e+01 -1.495280e+01 -1.513136e+01 -1.535292e+01 -1.539521e+01 -1.557522e+01 -1.551686e+01 
-1.576975e+01 -1.561486e+01 -1.570398e+01 -1.551026e+01 -1.550199e+01 -1.528101e+01 -1.513468e+01 -1.485925e+01 -1.452472e+01 -1.413426e+01 -1.358269e+01 -1.308604e+01 -1.239563e+01 -1.189494e+01 -1.111295e+01 -1.056296e+01 -1.005199e+01 -1.056296e+01 -1.111295e+01 -1.189494e+01 -1.239563e+01 -1.308604e+01 -1.358269e+01 -1.413426e+01 -1.452472e+01 -1.485925e+01 -1.513468e+01 -1.528101e+01 -1.550199e+01 -1.551026e+01 -1.570398e+01 -1.561486e+01 
-1.584902e+01 -1.569881e+01 -1.579361e+01 -1.561838e+01 -1.562704e+01 -1.544327e+01 -1.532179e+01 -1.509109e+01 -1.476563e+01 -1.437599e+01 -1.375817e+01 -1.317834e+01 -1.237500e+01 -1.174861e+01 -1.087026e+01 -1.032766e+01 -9.811379e+00 -1.032766e+01 -1.087026e+01 -1.174861e+01 -1.237500e+01 -1.317834e+01 -1.375817e+01 -1.437599e+01 -1.476563e+01 -1.509109e+01 -1.532179e+01 -1.544327e+01 -1.562704e+01 -1.561838e+01 -1.579361e+01 -1.569881e+01 
-1.605656e+01 -1.586870e+01 -1.601829e+01 -1.583074e+01 -1.590587e+01 -1.574530e+01 -1.568664e+01 -1.549538e+01 -1.518794e+01 -1.475245e+01 -1.402174e+01 -1.325271e+01 -1.230892e+01 -1.175507e+01 -1.105483e+01 -1.074728e+01 -1.027043e+01 -1.074728e+01 -1.105483e+01 -1.175507e+01 -1.230892e+01 -1.325271e+01 -1.402174e+01 -1.475245e+01 -1.518794e+01 -1.549538e+01 -1.568664e+01 -1.574530e+01 -1.590587e+01 -1.583074e+01 -1.601829e+01 -1.586870e+01 
-1.620282e+01 -1.600792e+01 -1.618450e+01 -1.601839e+01 -1.614400e+01 -1.605353e+01 -1.607064e+01 -1.599543e+01 -1.575943e+01 -1.535800e+01 -1.451324e+01 -1.361622e+01 -1.244272e+01 -1.132657e+01 -1.004516e+01 -9.319158e+00 -8.647918e+00 -9.319158e+00 -1.004516e+01 -1.132657e+01 -1.244272e+01 -1.361622e+01 -1.451324e+01 -1.535800e+01 -1.575943e+01 -1.599543e+01 -1.607064e+01 -1.605353e+01 -1.614400e+01 -1.601839e+01 -1.618450e+01 -1.600792e+01 
-1.644889e+01 -1.619693e+01 -1.646491e+01 -1.628732e+01 -1.653699e+01 -1.651915e+01 -1.667785e+01 -1.677403e+01 -1.664087e+01 -1.621086e+01 -1.508226e+01 -1.349721e+01 -1.177200e+01 -1.085352e+01 -1.014788e+01 -9.618742e+00 -8.850151e+00 -9.618742e+00 -1.014788e+01 -1.085352e+01 -1.177200e+01 -1.349721e+01 -1.508226e+01 -1.621086e+01 -1.664087e+01 -1.677403e+01 -1.667785e+01 -1.651915e+01 -1.653699e+01 -1.628732e+01 -1.646491e+01 -1.619693e+01 
-1.661130e+01 -1.633425e+01 -1.665885e+01 -1.650096e+01 -1.685106e+01 -1.695731e+01 -1.729637e+01 -1.773709e+01 -1.797729e+01 -1.784469e+01 -1.664796e+01 -1.533382e+01 -1.374123e+01 -1.117322e+01 -7.770161e+00 -4.851303e+00 -2.892261e+00 -4.851303e+00 -7.770161e+00 -1.117322e+01 -1.374123e+01 -1.533382e+01 -1.664796e+01 -1.784469e+01 -1.797729e+01 -1.773709e+01 -1.729637e+01 -1.695731e+01 -1.685106e+01 -1.650096e+01 -1.665885e+01 -1.633425e+01 
-1.682437e+01 -1.646077e+01 -1.692966e+01 -1.674358e+01 -1.731791e+01 -1.756606e+01 -1.825687e+01 -1.944460e+01 -2.034068e+01 -2.048368e+01 -1.851378e+01 -1.147768e+01 2.333132e-01 1.132372e+01 2.081548e+01 2.631399e+01 2.855779e+01 2.631399e+01 2.081548e+01 1.132372e+01 2.333132e-01 -1.147768e+01 -1.851378e+01 -2.048368e+01 -2.034068e+01 -1.944460e+01 -1.825687e+01 -1.756606e+01 -1.731791e+01 -1.674358e+01 -1.692966e+01 -1.646077e+01 
-1.696357e+01 -1.654219e+01 -1.710836e+01 -1.691072e+01 -1.764754e+01 -1.804615e+01 -1.910766e+01 -2.121275e+01 -2.253392e+01 -1.986349e+01 -5.012062e+00 1.770165e+01 3.457164e+01 4.260265e+01 4.730805e+01 4.842620e+01 4.876267e+01 4.842620e+01 4.730805e+01 4.260265e+01 3.457164e+01 1.770165e+01 -5.012062e+00 -1.986349e+01 -2.253392e+01 -2.121275e+01 -1.910766e+01 -1.804615e+01 -1.764754e+01 -1.691072e+01 -1.710836e+01 -1.654219e+01 
-1.709065e+01 -1.654531e+01 -1.730700e+01 -1.698472e+01 -1.806732e+01 -1.840133e+01 -1.993148e+01 -2.332527e+01 -2.049579e+01 -1.654882e+00 2.746543e+01 4.421089e+01 4.864714e+01 4.824029e+01 4.834637e+01 4.808290e+01 4.831811e+01 4.808290e+01 4.834637e+01 4.824029e+01 4.864714e+01 4.421089e+01 2.746543e+01 -1.654882e+00 -2.049579e+01 -2.332527e+01 -1.993148e+01 -1.840133e+01 -1.806732e+01 -1.698472e+01 -1.730700e+01 -1.654531e+01 
-1.724083e+01 -1.658586e+01 -1.750416e+01 -1.705804e+01 -1.835027e+01 -1.848243e+01 -2.046826e+01 -2.220779e+01 -4.587813e+00 2.877688e+01 4.715126e+01 4.882840e+01 4.851549e+01 4.802745e+01 4.856029e+01 4.874123e+01 4.916646e+01 4.874123e+01 4.856029e+01 4.802745e+01 4.851549e+01 4.882840e+01 4.715126e+01 2.877688e+01 -4.587813e+00 -2.220779e+01 -2.046826e+01 -1.848243e+01 -1.835027e+01 -1.705804e+01 -1.750416e+01 -1.658586e+01 
-1.725076e+01 -1.649985e+01 -1.759066e+01 -1.683310e+01 -1.866966e+01 -1.754586e+01 -2.260016e+01 -1.343751e+01 2.171629e+01 4.831312e+01 5.041661e+01 5.007841e+01 4.984786e+01 4.942658e+01 4.944151e+01 4.920617e+01 4.940071e+01 4.920617e+01 4.944151e+01 4.942658e+01 4.984786e+01 5.007841e+01 5.041661e+01 4.831312e+01 2.171629e+01 -1.343751e+01 -2.260016e+01 -1.754586e+01 -1.866966e+01 -1.683310e+01 -1.759066e+01 -1.649985e+01 
-1.733798e+01 -1.647852e+01 -1.774611e+01 -1.669308e+01 -1.916593e+01 -1.697874e+01 -2.199275e+01 -1.528926e+00 4.188072e+01 5.313285e+01 5.118688e+01 5.105258e+01 5.033052e+01 5.002788e+01 4.997239e+01 4.980197e+01 4.993288e+01 4.980197e+01 4.997239e+01 5.002788e+01 5.033052e+01 5.105258e+01 5.118688e+01 5.313285e+01 4.188072e+01 -1.528926e+00 -2.199275e+01 -1.697874e+01 -1.916593e+01 -1.669308e+01 -1.774611e+01 -1.647852e+01 
-1.691041e+01 -1.632962e+01 -1.714959e+01 -1.671674e+01 -1.762046e+01 -1.669690e+01 -1.622625e+01 1.182881e+01 5.146020e+01 5.326152e+01 5.189907e+01 5.142669e+01 5.109165e+01 5.067274e+01 5.054051e+01 5.020053e+01 5.030899e+01 5.020053e+01 5.054051e+01 5.067274e+01 5.109165e+01 5.142669e+01 5.189907e+01 5.326152e+01 5.146020e+01 1.182881e+01 -1.622625e+01 -1.669690e+01 -1.762046e+01 -1.671674e+01 -1.714959e+01 -1.632962e+01 
-1.657285e+01 -1.611222e+01 -1.649894e+01 -1.611469e+01 -1.500488e+01 -1.393006e+01 -1.110851e+01 2.269342e+01 5.477101e+01 5.255703e+01 5.244678e+01 5.160172e+01 5.142155e+01 5.096897e+01 5.083179e+01 5.052000e+01 5.058466e+01 5.052000e+01 5.083179e+01 5.096897e+01 5.142155e+01 5.160172e+01 5.244678e+01 5.255703e+01 5.477101e+01 2.269342e+01 -1.110851e+01 -1.393006e+01 -1.500488e+01 -1.611469e+01 -1.649894e+01 -1.611222e+01 
-1.613354e+01 -1.566874e+01 -1.593707e+01 -1.519649e+01 -1.370346e+01 -1.128937e+01 -7.781701e+00 2.732050e+01 5.572740e+01 5.241596e+01 5.282308e+01 5.171145e+01 5.173806e+01 5.114344e+01 5.102437e+01 5.060722e+01 5.071032e+01 5.060722e+01 5.102437e+01 5.114344e+01 5.173806e+01 5.171145e+01 5.282308e+01 5.241596e+01 5.572740e+01 2.732050e+01 -7.781701e+00 -1.128937e+01 -1.370346e+01 -1.519649e+01 -1.593707e+01 -1.566874e+01 
-1.657285e+01 -1.611222e+01 -1.649894e+01 -1.611469e+01 -1.500488e+01 -1.393006e+01 -1.110851e+01 2.269342e+01 5.477101e+01 5.255703e+01 5.244678e+01 5.160172e+01 5.142155e+01 5.096897e+01 5.083179e+01 5.052000e+01 5.058466e+01 5.052000e+01 5.083179e+01 5.096897e+01 5.142155e+01 5.160172e+01 5.244678e+01 5.255703e+01 5.477101e+01 2.269342e+01 -1.110851e+01 -1.393006e+01 -1.500488e+01 -1.611469e+01 -1.649894e+01 -1.611222e+01 
-1.691041e+01 -1.632962e+01 -1.714959e+01 -1.671674e+01 -1.762046e+01 -1.669690e+01 -1.622625e+01 1.182881e+01 5.146020e+01 5.326152e+01 5.189907e+01 5.142669e+01 5.109165e+01 5.067274e+01 5.054051e+01 5.020053e+01 5.030899e+01 5.020053e+01 5.054051e+01 5.067274e+01 5.109165e+01 5.142669e+01 5.189907e+01 5.326152e+01 5.146020e+01 1.182881e+01 -1.622625e+01 -1.669690e+01 -1.762046e+01 -1.671674e+01 -1.714959e+01 -1.632962e+01 
-1.733798e+01 -1.647852e+01 -1.774611e+01 -1.669308e+01 -1.916593e+01 -1.697874e+01 -2.199275e+01 -1.528926e+00 4.188072e+01 5.313285e+01 5.118688e+01 5.105258e+01 5.033052e+01 5.002788e+01 4.997239e+01 4.980197e+01 4.993288e+01 4.980197e+01 4.997239e+01 5.002788e+01 5.033052e+01 5.105258e+01 5.118688e+01 5.313285e+01 4.188072e+01 -1.528926e+00 -2.199275e+01 -1.697874e+01 -1.916593e+01 -1.669308e+01 -1.774611e+01 -1.647852e+01 
-1.725076e+01 -1.649985e+01 -1.759066e+01 -1.683310e+01 -1.866966e+01 -1.754586e+01 -2.260016e+01 -1.343751e+01 2.171629e+01 4.831312e+01 5.041661e+01 5.007841e+01 4.984786e+01 4.942658e+01 4.944151e+01 4.920617e+01 4.940071e+01 4.920617e+01 4.944151e+01 4.942658e+01 4.984786e+01 5.007841e+01 5.041661e+01 4.831312e+01 2.171629e+01 -1.343751e+01 -2.260016e+01 -1.754586e+01 -1.866966e+01 -1.683310e+01 -1.759066e+01 -1.649985e+01 
-1.724083e+01 -1.658586e+01 -1.750416e+01 -1.705804e+01 -1.835027e+01 -1.848243e+01 -2.046826e+01 -2.220779e+01 -4.587813e+00 2.877688e+01 4.715126e+01 4.882840e+01 4.851549e+01 4.802745e+01 4.856029e+01 4.874123e+01 4.916646e+01 4.874123e+01 4.856029e+01 4.802745e+01 4.851549e+01 4.882840e+01 4.715126e+01 2.877688e+01 -4.587813e+00 -2.220779e+01 -2.046826e+01 -1.848243e+01 -1.835027e+01 -1.705804e+01 -1.750416e+01 -1.658586e+01 
-1.709065e+01 -1.654531e+01 -1.730700e+01 -1.698472e+01 -1.806732e+01 -1.840133e+01 -1.993148e+01 -2.332527e+01 -2.049579e+01 -1.654882e+00 2.746543e+01 4.421089e+01 4.864714e+01 4.824029e+01 4.834637e+01 4.808290e+01 4.831811e+01 4.808290e+01 4.834637e+01 4.824029e+01 4.864714e+01 4.421089e+01 2.746543e+01 -1.654882e+00 -2.049579e+01 -2.332527e+01 -1.993148e+01 -1.840133e+01 -1.806732e+01 -1.698472e+01 -1.730700e+01 -1.654531e+01 
-1.696357e+01 -1.654219e+01 -1.710836e+01 -1.691072e+01 -1.764754e+01 -1.804615e+01 -1.910766e+01 -2.121275e+01 -2.253392e+01 -1.986349e+01 -5.012062e+00 1.770165e+01 3.457164e+01 4.260265e+01 4.730805e+01 4.842620e+01 4.876267e+01 4.842620e+01 4.730805e+01 4.260265e+01 3.457164e+01 1.770165e+01 -5.012062e+00 -1.986349e+01 -2.253392e+01 -2.121275e+01 -1.910766e+01 -1.804615e+01 -1.764754e+01 -1.691072e+01 -1.710836e+01 -1.654219e+01 
-1.682437e+01 -1.646077e+01 -1.692966e+01 -1.674358e+01 -1.731791e+01 -1.756606e+01 -1.825687e+01 -1.944460e+01 -2.034068e+01 -2.048368e+01 -1.851378e+01 -1.147768e+01 2.333132e-01 1.132372e+01 2.081548e+01 2.631399e+01 2.855779e+01 2.631399e+01 2.081548e+01 1.132372e+01 2.333132e-01 -1.147768e+01 -1.851378e+01 -2.048368e+01 -2.034068e+01 -1.944460e+01 -1.825687e+01 -1.756606e+01 -1.731791e+01 -1.674358e+01 -1.692966e+01 -1.646077e+01 
-1.661130e+01 -1.633425e+01 -1.665885e+01 -1.650096e+01 -1.685106e+01 -1.695731e+01 -1.729637e+01 -1.773709e+01 -1.797729e+01 -1.784469e+01 -1.664796e+01 -1.533382e+01 -1.374123e+01 -1.117322e+01 -7.770161e+00 -4.851303e+00 -2.892261e+00 -4.851303e+00 -7.770161e+00 -1.117322e+01 -1.374123e+01 -1.533382e+01 -1.664796e+01 -1.784469e+01 -1.797729e+01 -1.773709e+01 -1.729637e+01 -1.695731e+01 -1.685106e+01 -1.650096e+01 -1.665885e+01 -1.633425e+01 
-1.644889e+01 -1.619693e+01 -1.646491e+01 -1.628732e+01 -1.653699e+01 -1.651915e+01 -1.667785e+01 -1.677403e+01 -1.664087e+01 -1.621086e+01 -1.508226e+01 -1.349721e+01 -1.177200e+01 -1.085352e+01 -1.014788e+01 -9.618742e+00 -8.850151e+00 -9.618742e+00 -1.014788e+01 -1.085352e+01 -1.177200e+01 -1.349721e+01 -1.508226e+01 -1.621086e+01 -1.664087e+01 -1.677403e+01 -1.667785e+01 -1.651915e+01 -1.653699e+01 -1.628732e+01 -1.646491e+01 -1.619693e+01 
-1.620282e+01 -1.600792e+01 -1.618450e+01 -1.601839e+01 -1.614400e+01 -1.605353e+01 -1.607064e+01 -1.599543e+01 -1.575943e+01 -1.535800e+01 -1.451324e+01 -1.361622e+01 -1.244272e+01 -1.132657e+01 -1.004516e+01 -9.319158e+00 -8.647918e+00 -9.319158e+00 -1.004516e+01 -1.132657e+01 -1.244272e+01 -1.361622e+01 -1.451324e+01 -1.535800e+01 -1.575943e+01 -1.599543e+01 -1.607064e+01 -1.605353e+01 -1.614400e+01 -1.601839e+01 -1.618450e+01 -1.600792e+01 
-1.605656e+01 -1.586870e+01 -1.601829e+01 -1.583074e+01 -1.590587e+01 -1.574530e+01 -1.568664e+01 -1.549538e+01 -1.518794e+01 -1.475245e+01 -1.402174e+01 -1.325271e+01 -1.230892e+01 -1.175507e+01 -1.105483e+01 -1.074728e+01 -1.027043e+01 -1.074728e+01 -1.105483e+01 -1.175507e+01 -1.230892e+01 -1.325271e+01 -1.402174e+01 -1.475245e+01 -1.518794e+01 -1.549538e+01 -1.568664e+01 -1.574530e+01 -1.590587e+01 -1.583074e+01 -1.601829e+01 -1.586870e+01 
-1.584902e+01 -1.569881e+01 -1.579361e+01 -1.561838e+01 -1.562704e+01 -1.544327e+01 -1.532179e+01 -1.509109e+01 -1.476563e+01 -1.437599e+01 -1.375817e+01 -1.317834e+01 -1.237500e+01 -1.174861e+01 -1.087026e+01 -1.032766e+01 -9.811379e+00 -1.032766e+01 -1.087026e+01 -1.174861e+01 -1.237500e+01 -1.317834e+01 -1.375817e+01 -1.437599e+01 -1.476563e+01 -1.509109e+01 -1.532179e+01 -1.544327e+01 -1.562704e+01 -1.561838e+01 -1.579361e+01 -1.569881e+01 
-1.576975e+01 -1.561486e+01 -1.570398e+01 -1.551026e+01 -1.550199e+01 -1.528101e+01 -1.513468e+01 -1.485925e+01 -1.452472e+01 -1.413426e+01 -1.358269e+01 -1.308604e+01 -1.239563e+01 -1.189494e+01 -1.111295e+01 -1.056296e+01 -1.005199e+01 -1.056296e+01 -1.111295e+01 -1.189494e+01 -1.239563e+01 -1.308604e+01 -1.358269e+01 -1.413426e+01 -1.452472e+01 -1.485925e+01 -1.513468e+01 -1.528101e+01 -1.550199e+01 -1.551026e+01 -1.570398e+01 -1.561486e+01 
-1.564743e+01 -1.551686e+01 -1.557522e+01 -1.539521e+01 -1.535292e+01 -1.513136e+01 -1.495280e+01 -1.466784e+01 -1.431154e+01 -1.392119e+01 -1.336359e+01 -1.286009e+01 -1.212418e+01 -1.149501e+01 -1.053967e+01 -9.817670e+00 -9.223694e+00 -9.817670e+00 -1.053967e+01 -1.149501e+01 -1.212418e+01 -1.286009e+01 -1.336359e+01 -1.392119e+01 -1.431154e+01 -1.466784e+01 -1.495280e+01 -1.513136e+01 -1.535292e+01 -1.539521e+01 -1.557522e+01 -1.551686e+01 
