# vtk DataFile Version 2.0
Comment goes here
ASCII

DATASET STRUCTURED_POINTS
FIELD FieldData 1
TIME 1 1 double
0.84000000
DIMENSIONS    32   32   1

ORIGIN    0.000   0.000   0.000
SPACING   0.03125 0.03125   1.000

POINT_DATA   1024
SCALARS P double
LOOKUP_TABLE default

-1.202484e+01 -1.200971e+01 -1.203128e+01 -1.201060e+01 -1.202027e+01 -1.196832e+01 -1.195026e+01 -1.187225e+01 -1.184051e+01 -1.177711e+01 -1.173385e+01 -1.166753e+01 -1.150983e+01 -1.126144e+01 -1.083919e+01 -1.046324e+01 -1.018176e+01 -1.046324e+01 -1.083919e+01 -1.126144e+01 -1.150983e+01 -1.166753e+01 -1.173385e+01 -1.177711e+01 -1.184051e+01 -1.187225e+01 -1.195026e+01 -1.196832e+01 -1.202027e+01 -1.201060e+01 -1.203128e+01 -1.200971e+01 
-1.200760e+01 -1.198563e+01 -1.202319e+01 -1.200566e+01 -1.204373e+01 -1.201039e+01 -1.204170e+01 -1.200892e+01 -1.205959e+01 -1.208567e+01 -1.216680e+01 -1.225594e+01 -1.225316e+01 -1.219499e+01 -1.186061e+01 -1.147239e+01 -1.119094e+01 -1.147239e+01 -1.186061e+01 -1.219499e+01 -1.225316e+01 -1.225594e+01 -1.216680e+01 -1.208567e+01 -1.205959e+01 -1.200892e+01 -1.204170e+01 -1.201039e+01 -1.204373e+01 -1.200566e+01 -1.202319e+01 -1.198563e+01 
-1.203340e+01 -1.202164e+01 -1.204732e+01 -1.203607e+01 -1.205825e+01 -1.202093e+01 -1.202731e+01 -1.196859e+01 -1.197186e+01 -1.192921e+01 -1.191511e+01 -1.187307e+01 -1.172778e+01 -1.147998e+01 -1.109017e+01 -1.071332e+01 -1.039012e+01 -1.071332e+01 -1.109017e+01 -1.147998e+01 -1.172778e+01 -1.187307e+01 -1.191511e+01 -1.192921e+01 -1.197186e+01 -1.196859e+01 -1.202731e+01 -1.202093e+01 -1.205825e+01 -1.203607e+01 -1.204732e+01 -1.202164e+01 
-1.201302e+01 -1.199714e+01 -1.204087e+01 -1.203811e+01 -1.209340e+01 -1.207745e+01 -1.214020e+01 -1.212067e+01 -1.221591e+01 -1.224540e+01 -1.236788e+01 -1.249079e+01 -1.253642e+01 -1.261500e+01 -1.230709e+01 -1.173502e+01 -1.132802e+01 -1.173502e+01 -1.230709e+01 -1.261500e+01 -1.253642e+01 -1.249079e+01 -1.236788e+01 -1.224540e+01 -1.221591e+01 -1.212067e+01 -1.214020e+01 -1.207745e+01 -1.209340e+01 -1.203811e+01 -1.204087e+01 -1.199714e+01 
-1.207240e+01 -1.207269e+01 -1.211423e+01 -1.213687e+01 -1.219612e+01 -1.220072e+01 -1.226393e+01 -1.223792e+01 -1.230754e+01 -1.226406e+01 -1.226782e+01 -1.220149e+01 -1.192269e+01 -1.148674e+01 -1.106409e+01 -1.057730e+01 -1.004053e+01 -1.057730e+01 -1.106409e+01 -1.148674e+01 -1.192269e+01 -1.220149e+01 -1.226782e+01 -1.226406e+01 -1.230754e+01 -1.223792e+01 -1.226393e+01 -1.220072e+01 -1.219612e+01 -1.213687e+01 -1.211423e+01 -1.207269e+01 
-1.206214e+01 -1.206154e+01 -1.212367e+01 -1.215992e+01 -1.224697e+01 -1.226421e+01 -1.236173e+01 -1.233589e+01 -1.246746e+01 -1.241361e+01 -1.254919e+01 -1.258287e+01 -1.260466e+01 -1.288910e+01 -1.225230e+01 -1.067796e+01 -9.689264e+00 -1.067796e+01 -1.225230e+01 -1.288910e+01 -1.260466e+01 -1.258287e+01 -1.254919e+01 -1.241361e+01 -1.246746e+01 -1.233589e+01 -1.236173e+01 -1.226421e+01 -1.224697e+01 -1.215992e+01 -1.212367e+01 -1.206154e+01 
-1.219071e+01 -1.221347e+01 -1.228771e+01 -1.237492e+01 -1.248748e+01 -1.256119e+01 -1.269545e+01 -1.271692e+01 -1.290572e+01 -1.284518e+01 -1.293551e+01 -1.281244e+01 -1.198189e+01 -1.075153e+01 -9.732800e+00 -8.637597e+00 -7.256146e+00 -8.637597e+00 -9.732800e+00 -1.075153e+01 -1.198189e+01 -1.281244e+01 -1.293551e+01 -1.284518e+01 -1.290572e+01 -1.271692e+01 -1.269545e+01 -1.256119e+01 -1.248748e+01 -1.237492e+01 -1.228771e+01 -1.221347e+01 
-1.223297e+01 -1.225616e+01 -1.235403e+01 -1.245662e+01 -1.257556e+01 -1.264855e+01 -1.276408e+01 -1.274899e+01 -1.294016e+01 -1.271511e+01 -1.286502e+01 -1.250029e+01 -1.317978e+01 -1.387859e+01 -1.058178e+01 -7.421082e+00 -5.905780e+00 -7.421082e+00 -1.058178e+01 -1.387859e+01 -1.317978e+01 -1.250029e+01 -1.286502e+01 -1.271511e+01 -1.294016e+01 -1.274899e+01 -1.276408e+01 -1.264855e+01 -1.257556e+01 -1.245662e+01 -1.235403e+01 -1.225616e+01 
-1.244232e+01 -1.249226e+01 -1.261392e+01 -1.278403e+01 -1.293011e+01 -1.309309e+01 -1.327396e+01 -1.342184e+01 -1.393381e+01 -1.396208e+01 -1.497020e+01 -1.506206e+01 -9.434778e+00 -1.125215e+00 7.257549e+00 1.482774e+01 1.786605e+01 1.482774e+01 7.257549e+00 -1.125215e+00 -9.434778e+00 -1.506206e+01 -1.497020e+01 -1.396208e+01 -1.393381e+01 -1.342184e+01 -1.327396e+01 -1.309309e+01 -1.293011e+01 -1.278403e+01 -1.261392e+01 -1.249226e+01 
-1.253950e+01 -1.258613e+01 -1.274005e+01 -1.292298e+01 -1.304597e+01 -1.321269e+01 -1.329885e+01 -1.352922e+01 -1.398799e+01 -1.369838e+01 -1.160835e+01 -2.268040e+00 1.603351e+01 3.247152e+01 4.235606e+01 4.755082e+01 4.873159e+01 4.755082e+01 4.235606e+01 3.247152e+01 1.603351e+01 -2.268040e+00 -1.160835e+01 -1.369838e+01 -1.398799e+01 -1.352922e+01 -1.329885e+01 -1.321269e+01 -1.304597e+01 -1.292298e+01 -1.274005e+01 -1.258613e+01 
-1.271378e+01 -1.278496e+01 -1.297033e+01 -1.322137e+01 -1.333452e+01 -1.360928e+01 -1.366527e+01 -1.419782e+01 -1.490344e+01 -1.139673e+01 6.637169e+00 2.959349e+01 4.298764e+01 4.818124e+01 4.872535e+01 4.899829e+01 4.894653e+01 4.899829e+01 4.872535e+01 4.818124e+01 4.298764e+01 2.959349e+01 6.637169e+00 -1.139673e+01 -1.490344e+01 -1.419782e+01 -1.366527e+01 -1.360928e+01 -1.333452e+01 -1.322137e+01 -1.297033e+01 -1.278496e+01 
-1.270987e+01 -1.277269e+01 -1.302234e+01 -1.328613e+01 -1.338169e+01 -1.365258e+01 -1.351890e+01 -1.425144e+01 -1.388719e+01 7.762588e-01 3.090480e+01 4.816466e+01 4.821175e+01 4.794308e+01 4.788244e+01 4.830554e+01 4.839642e+01 4.830554e+01 4.788244e+01 4.794308e+01 4.821175e+01 4.816466e+01 3.090480e+01 7.762588e-01 -1.388719e+01 -1.425144e+01 -1.351890e+01 -1.365258e+01 -1.338169e+01 -1.328613e+01 -1.302234e+01 -1.277269e+01 
-1.258522e+01 -1.266878e+01 -1.298175e+01 -1.331497e+01 -1.336527e+01 -1.378442e+01 -1.313460e+01 -1.489169e+01 -6.930496e+00 2.303969e+01 4.580777e+01 4.848743e+01 4.840428e+01 4.881414e+01 4.877887e+01 4.904683e+01 4.893273e+01 4.904683e+01 4.877887e+01 4.881414e+01 4.840428e+01 4.848743e+01 4.580777e+01 2.303969e+01 -6.930496e+00 -1.489169e+01 -1.313460e+01 -1.378442e+01 -1.336527e+01 -1.331497e+01 -1.298175e+01 -1.266878e+01 
-1.222816e+01 -1.230936e+01 -1.275483e+01 -1.313959e+01 -1.326351e+01 -1.362641e+01 -1.275318e+01 -1.449550e+01 5.042296e+00 3.875487e+01 4.982809e+01 4.891028e+01 4.892255e+01 4.875495e+01 4.866062e+01 4.879460e+01 4.874494e+01 4.879460e+01 4.866062e+01 4.875495e+01 4.892255e+01 4.891028e+01 4.982809e+01 3.875487e+01 5.042296e+00 -1.449550e+01 -1.275318e+01 -1.362641e+01 -1.326351e+01 -1.313959e+01 -1.275483e+01 -1.230936e+01 
-1.163439e+01 -1.171813e+01 -1.232148e+01 -1.269508e+01 -1.308728e+01 -1.297621e+01 -1.297600e+01 -1.216473e+01 1.720428e+01 4.684350e+01 4.901318e+01 4.880311e+01 4.875934e+01 4.902322e+01 4.890491e+01 4.918259e+01 4.900431e+01 4.918259e+01 4.890491e+01 4.902322e+01 4.875934e+01 4.880311e+01 4.901318e+01 4.684350e+01 1.720428e+01 -1.216473e+01 -1.297600e+01 -1.297621e+01 -1.308728e+01 -1.269508e+01 -1.232148e+01 -1.171813e+01 
-1.100564e+01 -1.107064e+01 -1.185127e+01 -1.222094e+01 -1.296743e+01 -1.245657e+01 -1.338489e+01 -9.996561e+00 2.397324e+01 5.047879e+01 4.961355e+01 4.965432e+01 4.916078e+01 4.920228e+01 4.894561e+01 4.908352e+01 4.893619e+01 4.908352e+01 4.894561e+01 4.920228e+01 4.916078e+01 4.965432e+01 4.961355e+01 5.047879e+01 2.397324e+01 -9.996561e+00 -1.338489e+01 -1.245657e+01 -1.296743e+01 -1.222094e+01 -1.185127e+01 -1.107064e+01 
-1.063336e+01 -1.071528e+01 -1.152979e+01 -1.190049e+01 -1.267051e+01 -1.201701e+01 -1.296233e+01 -8.663364e+00 2.571288e+01 4.990361e+01 4.882374e+01 4.934315e+01 4.884983e+01 4.917164e+01 4.892692e+01 4.922256e+01 4.899829e+01 4.922256e+01 4.892692e+01 4.917164e+01 4.884983e+01 4.934315e+01 4.882374e+01 4.990361e+01 2.571288e+01 -8.663364e+00 -1.296233e+01 -1.201701e+01 -1.267051e+01 -1.190049e+01 -1.152979e+01 -1.071528e+01 
-1.100564e+01 -1.107064e+01 -1.185127e+01 -1.222094e+01 -1.296743e+01 -1.245657e+01 -1.338489e+01 -9.996561e+00 2.397324e+01 5.047879e+01 4.961355e+01 4.965432e+01 4.916078e+01 4.920228e+01 4.894561e+01 4.908352e+01 4.893619e+01 4.908352e+01 4.894561e+01 4.920228e+01 4.916078e+01 4.965432e+01 4.961355e+01 5.047879e+01 2.397324e+01 -9.996561e+00 -1.338489e+01 -1.245657e+01 -1.296743e+01 -1.222094e+01 -1.185127e+01 -1.107064e+01 
-1.163439e+01 -1.171813e+01 -1.232148e+01 -1.269508e+01 -1.308728e+01 -1.297621e+01 -1.297600e+01 -1.216473e+01 1.720428e+01 4.684350e+01 4.901318e+01 4.880311e+01 4.875934e+01 4.902322e+01 4.890491e+01 4.918259e+01 4.900431e+01 4.918259e+01 4.890491e+01 4.902322e+01 4.875934e+01 4.880311e+01 4.901318e+01 4.684350e+01 1.720428e+01 -1.216473e+01 -1.297600e+01 -1.297621e+01 -1.308728e+01 -1.269508e+01 -1.232148e+01 -1.171813e+01 
-1.222816e+01 -1.230936e+01 -1.275483e+01 -1.313959e+01 -1.326351e+01 -1.362641e+01 -1.275318e+01 -1.449550e+01 5.042296e+00 3.875487e+01 4.982809e+01 4.891028e+01 4.892255e+01 4.875495e+01 4.866062e+01 4.879460e+01 4.874494e+01 4.879460e+01 4.866062e+01 4.875495e+01 4.892255e+01 4.891028e+01 4.982809e+01 3.875487e+01 5.042296e+00 -1.449550e+01 -1.275318e+01 -1.362641e+01 -1.326351e+01 -1.313959e+01 -1.275483e+01 -1.230936e+01 
-1.258522e+01 -1.266878e+01 -1.298175e+01 -1.331497e+01 -1.336527e+01 -1.378442e+01 -1.313460e+01 -1.489169e+01 -6.930496e+00 2.303969e+01 4.580777e+01 4.848743e+01 4.840428e+01 4.881414e+01 4.877887e+01 4.904683e+01 4.893273e+01 4.904683e+01 4.877887e+01 4.881414e+01 4.840428e+01 4.848743e+01 4.580777e+01 2.303969e+01 -6.930496e+00 -1.489169e+01 -1.313460e+01 -1.378442e+01 -1.336527e+01 -1.331497e+01 -1.298175e+01 -1.266878e+01 
-1.270987e+01 -1.277269e+01 -1.302234e+01 -1.328613e+01 -1.338169e+01 -1.365258e+01 -1.351890e+01 -1.425144e+01 -1.388719e+01 7.762588e-01 3.090480e+01 4.816466e+01 4.821175e+01 4.794308e+01 4.788244e+01 4.830554e+01 4.839642e+01 4.830554e+01 4.788244e+01 4.794308e+01 4.821175e+01 4.816466e+01 3.090480e+01 7.762588e-01 -1.388719e+01 -1.425144e+01 -1.351890e+01 -1.365258e+01 -1.338169e+01 -1.328613e+01 -1.302234e+01 -1.277269e+01 
-1.271378e+01 -1.278496e+01 -1.297033e+01 -1.322137e+01 -1.333452e+01 -1.360928e+01 -1.366527e+01 -1.419782e+01 -1.490344e+01 -1.139673e+01 6.637169e+00 2.959349e+01 4.298764e+01 4.818124e+01 4.872535e+01 4.899829e+01 4.894653e+01 4.899829e+01 4.872535e+01 4.818124e+01 4.298764e+01 2.959349e+01 6.637169e+00 -1.139673e+01 -1.490344e+01 -1.419782e+01 -1.366527e+01 -1.360928e+01 -1.333452e+01 -1.322137e+01 -1.297033e+01 -1.278496e+01 
-1.253950e+01 -1.258613e+01 -1.274005e+01 -1.292298e+01 -1.304597e+01 -1.321269e+01 -1.329885e+01 -1.352922e+01 -1.398799e+01 -1.369838e+01 -1.160835e+01 -2.268040e+00 1.603351e+01 3.247152e+01 4.235606e+01 4.755082e+01 4.873159e+01 4.755082e+01 4.235606e+01 3.247152e+01 1.603351e+01 -2.268040e+00 -1.160835e+01 -1.369838e+01 -1.398799e+01 -1.352922e+01 -1.329885e+01 -1.321269e+01 -1.304597e+01 -1.292298e+01 -1.274005e+01 -1.258613e+01 
-1.244232e+01 -1.249226e+01 -1.261392e+01 -1.278403e+01 -1.293011e+01 -1.309309e+01 -1.327396e+01 -1.342184e+01 -1.393381e+01 -1.396208e+01 -1.497020e+01 -1.506206e+01 -9.434778e+00 -1.125215e+00 7.257549e+00 1.482774e+01 1.786605e+01 1.482774e+01 7.257549e+00 -1.125215e+00 -9.434778e+00 -1.506206e+01 -1.497020e+01 -1.396208e+01 -1.393381e+01 -1.342184e+01 -1.327396e+01 -1.309309e+01 -1.293011e+01 -1.278403e+01 -1.261392e+01 -1.249226e+01 
-1.223297e+01 -1.225616e+01 -1.235403e+01 -1.245662e+01 -1.257556e+01 -1.264855e+01 -1.276408e+01 -1.274899e+01 -1.294016e+01 -1.271511e+01 -1.286502e+01 -1.250029e+01 -1.317978e+01 -1.387859e+01 -1.058178e+01 -7.421082e+00 -5.905780e+00 -7.421082e+00 -1.058178e+01 -1.387859e+01 -1.317978e+01 -1.250029e+01 -1.286502e+01 -1.271511e+01 -1.294016e+01 -1.274899e+01 -1.276408e+01 -1.264855e+01 -1.257556e+01 -1.245662e+01 -1.235403e+01 -1.225616e+01 
-1.219071e+01 -1.221347e+01 -1.228771e+01 -1.237492e+01 -1.248748e+01 -1.256119e+01 -1.269545e+01 -1.271692e+01 -1.290572e+01 -1.284518e+01 -1.293551e+01 -1.281244e+01 -1.198189e+01 -1.075153e+01 -9.732800e+00 -8.637597e+00 -7.256146e+00 -8.637597e+00 -9.732800e+00 -1.075153e+01 -1.198189e+01 -1.281244e+01 -1.293551e+01 -1.284518e+01 -1.290572e+01 -1.271692e+01 -1.269545e+01 -1.256119e+01 -1.248748e+01 -1.237492e+01 -1.228771e+01 -1.221347e+01 
-1.206214e+01 -1.206154e+01 -1.212367e+01 -1.215992e+01 -1.224697e+01 -1.226421e+01 -1.236173e+01 -1.233589e+01 -1.246746e+01 -1.241361e+01 -1.254919e+01 -1.258287e+01 -1.260466e+01 -1.288910e+01 -1.225230e+01 -1.067796e+01 -9.689264e+00 -1.067796e+01 -1.225230e+01 -1.288910e+01 -1.260466e+01 -1.258287e+01 -1.254919e+01 -1.241361e+01 -1.246746e+01 -1.233589e+01 -1.236173e+01 -1.226421e+01 -1.224697e+01 -1.215992e+01 -1.212367e+01 -1.206154e+01 
-1.207240e+01 -1.207269e+01 -1.211423e+01 -1.213687e+01 -1.219612e+01 -1.220072e+01 -1.226393e+01 -1.223792e+01 -1.230754e+01 -1.226406e+01 -1.226782e+01 -1.220149e+01 -1.192269e+01 -1.148674e+01 -1.106409e+01 -1.057730e+01 -1.004053e+01 -1.057730e+01 -1.106409e+01 -1.148674e+01 -1.192269e+01 -1.220149e+01 -1.226782e+01 -1.226406e+01 -1.230754e+01 -1.223792e+01 -1.226393e+01 -1.220072e+01 -1.219612e+01 -1.213687e+01 -1.211423e+01 -1.207269e+01 
-1.201302e+01 -1.199714e+01 -1.204087e+01 -1.203811e+01 -1.209340e+01 -1.207745e+01 -1.214020e+01 -1.212067e+01 -1.221591e+01 -1.224540e+01 -1.236788e+01 -1.249079e+01 -1.253642e+01 -1.261500e+01 -1.230709e+01 -1.173502e+01 -1.132802e+01 -1.173502e+01 -1.230709e+01 -1.261500e+01 -1.253642e+01 -1.249079e+01 -1.236788e+01 -1.224540e+01 -1.221591e+01 -1.212067e+01 -1.214020e+01 -1.207745e+01 -1.209340e+01 -1.203811e+01 -1.204087e+01 -1.199714e+01 
-1.203340e+01 -1.202164e+01 -1.204732e+01 -1.203607e+01 -1.205825e+01 -1.202093e+01 -1.202731e+01 -1.196859e+01 -1.197186e+01 -1.192921e+01 -1.191511e+01 -1.187307e+01 -1.172778e+01 -1.147998e+01 -1.109017e+01 -1.071332e+01 -1.039012e+01 -1.071332e+01 -1.109017e+01 -1.147998e+01 -1.172778e+01 -1.187307e+01 -1.191511e+01 -1.192921e+01 -1.197186e+01 -1.196859e+01 -1.202731e+01 -1.202093e+01 -1.205825e+01 -1.203607e+01 -1.204732e+01 -1.202164e+01 
-1.200760e+01 -1.198563e+01 -1.202319e+01 -1.200566e+01 -1.204373e+01 -1.201039e+01 -1.204170e+01 -1.200892e+01 -1.205959e+01 -1.208567e+01 -1.216680e+01 -1.225594e+01 -1.225316e+01 -1.219499e+01 -1.186061e+01 -1.147239e+01 -1.119094e+01 -1.147239e+01 -1.186061e+01 -1.219499e+01 -1.225316e+01 -1.225594e+01 -1.216680e+01 -1.208567e+01 -1.205959e+01 -1.200892e+01 -1.204170e+01 -1.201039e+01 -1.204373e+01 -1.200566e+01 -1.202319e+01 -1.198563e+01 
