# vtk DataFile Version 2.0
Comment goes here
ASCII

DATASET STRUCTURED_POINTS
FIELD FieldData 1
TIME 1 1 double
0.38000000
DIMENSIONS    32   32   1

ORIGIN    0.000   0.000   0.000
SPACING   0.03125 0.03125   1.000

POINT_DATA   1024
SCALARS P double
LOOKUP_TABLE default

-1.594873e+01 -1.587658e+01 -1.583853e+01 -1.564000e+01 -1.547413e+01 -1.511145e+01 -1.477570e+01 -1.421782e+01 -1.368069e+01 -1.295789e+01 -1.228873e+01 -1.159909e+01 -1.105461e+01 -1.067273e+01 -1.029807e+01 -1.002730e+01 -9.565293e+00 -1.002730e+01 -1.029807e+01 -1.067273e+01 -1.105461e+01 -1.159909e+01 -1.228873e+01 -1.295789e+01 -1.368069e+01 -1.421782e+01 -1.477570e+01 -1.511145e+01 -1.547413e+01 -1.564000e+01 -1.583853e+01 -1.587658e+01 
-1.607359e+01 -1.600179e+01 -1.597032e+01 -1.577807e+01 -1.562506e+01 -1.527328e+01 -1.495459e+01 -1.441226e+01 -1.389467e+01 -1.319316e+01 -1.255183e+01 -1.188666e+01 -1.138856e+01 -1.098865e+01 -1.062192e+01 -1.030582e+01 -9.853951e+00 -1.030582e+01 -1.062192e+01 -1.098865e+01 -1.138856e+01 -1.188666e+01 -1.255183e+01 -1.319316e+01 -1.389467e+01 -1.441226e+01 -1.495459e+01 -1.527328e+01 -1.562506e+01 -1.577807e+01 -1.597032e+01 -1.600179e+01 
-1.611522e+01 -1.604950e+01 -1.601513e+01 -1.582746e+01 -1.567208e+01 -1.531307e+01 -1.498322e+01 -1.440781e+01 -1.385388e+01 -1.308204e+01 -1.236809e+01 -1.162120e+01 -1.104599e+01 -1.064920e+01 -1.035017e+01 -1.000846e+01 -9.460419e+00 -1.000846e+01 -1.035017e+01 -1.064920e+01 -1.104599e+01 -1.162120e+01 -1.236809e+01 -1.308204e+01 -1.385388e+01 -1.440781e+01 -1.498322e+01 -1.531307e+01 -1.567208e+01 -1.582746e+01 -1.601513e+01 -1.604950e+01 
-1.639649e+01 -1.633866e+01 -1.631557e+01 -1.614714e+01 -1.601874e+01 -1.567672e+01 -1.537548e+01 -1.480184e+01 -1.425274e+01 -1.346071e+01 -1.272218e+01 -1.196109e+01 -1.140731e+01 -1.091597e+01 -1.058603e+01 -1.002620e+01 -9.405737e+00 -1.002620e+01 -1.058603e+01 -1.091597e+01 -1.140731e+01 -1.196109e+01 -1.272218e+01 -1.346071e+01 -1.425274e+01 -1.480184e+01 -1.537548e+01 -1.567672e+01 -1.601874e+01 -1.614714e+01 -1.631557e+01 -1.633866e+01 
-1.660904e+01 -1.656878e+01 -1.655019e+01 -1.641035e+01 -1.630397e+01 -1.597964e+01 -1.569891e+01 -1.509618e+01 -1.451481e+01 -1.357940e+01 -1.268172e+01 -1.166126e+01 -1.079269e+01 -1.039394e+01 -1.027275e+01 -9.318282e+00 -8.157988e+00 -9.318282e+00 -1.027275e+01 -1.039394e+01 -1.079269e+01 -1.166126e+01 -1.268172e+01 -1.357940e+01 -1.451481e+01 -1.509618e+01 -1.569891e+01 -1.597964e+01 -1.630397e+01 -1.641035e+01 -1.655019e+01 -1.656878e+01 
-1.702652e+01 -1.700971e+01 -1.701142e+01 -1.692041e+01 -1.687520e+01 -1.659692e+01 -1.639559e+01 -1.580394e+01 -1.524191e+01 -1.423602e+01 -1.322115e+01 -1.218780e+01 -1.146038e+01 -1.077933e+01 -9.307922e+00 -7.607062e+00 -5.972809e+00 -7.607062e+00 -9.307922e+00 -1.077933e+01 -1.146038e+01 -1.218780e+01 -1.322115e+01 -1.423602e+01 -1.524191e+01 -1.580394e+01 -1.639559e+01 -1.659692e+01 -1.687520e+01 -1.692041e+01 -1.701142e+01 -1.700971e+01 
-1.739027e+01 -1.741312e+01 -1.743087e+01 -1.741675e+01 -1.744353e+01 -1.725711e+01 -1.717677e+01 -1.665676e+01 -1.616782e+01 -1.497925e+01 -1.368736e+01 -1.180600e+01 -9.861655e+00 -8.995305e+00 -7.481163e+00 -4.913498e+00 -3.430787e+00 -4.913498e+00 -7.481163e+00 -8.995305e+00 -9.861655e+00 -1.180600e+01 -1.368736e+01 -1.497925e+01 -1.616782e+01 -1.665676e+01 -1.717677e+01 -1.725711e+01 -1.744353e+01 -1.741675e+01 -1.743087e+01 -1.741312e+01 
-1.788684e+01 -1.796527e+01 -1.801105e+01 -1.810269e+01 -1.825268e+01 -1.818927e+01 -1.834314e+01 -1.794372e+01 -1.759763e+01 -1.608737e+01 -1.427269e+01 -1.271239e+01 -1.176218e+01 -9.805235e+00 -6.965443e+00 -4.586512e+00 -2.891435e+00 -4.586512e+00 -6.965443e+00 -9.805235e+00 -1.176218e+01 -1.271239e+01 -1.427269e+01 -1.608737e+01 -1.759763e+01 -1.794372e+01 -1.834314e+01 -1.818927e+01 -1.825268e+01 -1.810269e+01 -1.801105e+01 -1.796527e+01 
-1.832358e+01 -1.847730e+01 -1.854068e+01 -1.877273e+01 -1.905678e+01 -1.921821e+01 -1.975191e+01 -1.984760e+01 -1.994509e+01 -1.853989e+01 -1.673040e+01 -1.140228e+01 -3.605456e+00 2.556706e+00 9.349278e+00 1.434649e+01 1.625833e+01 1.434649e+01 9.349278e+00 2.556706e+00 -3.605456e+00 -1.140228e+01 -1.673040e+01 -1.853989e+01 -1.994509e+01 -1.984760e+01 -1.975191e+01 -1.921821e+01 -1.905678e+01 -1.877273e+01 -1.854068e+01 -1.847730e+01 
-1.876269e+01 -1.902892e+01 -1.909812e+01 -1.951418e+01 -1.997888e+01 -2.041826e+01 -2.165671e+01 -2.232132e+01 -2.277083e+01 -1.797455e+01 -3.500390e+00 1.479793e+01 2.847843e+01 3.597337e+01 4.012078e+01 4.206784e+01 4.278659e+01 4.206784e+01 4.012078e+01 3.597337e+01 2.847843e+01 1.479793e+01 -3.500390e+00 -1.797455e+01 -2.277083e+01 -2.232132e+01 -2.165671e+01 -2.041826e+01 -1.997888e+01 -1.951418e+01 -1.909812e+01 -1.902892e+01 
-1.909949e+01 -1.948991e+01 -1.952977e+01 -2.011635e+01 -2.068341e+01 -2.140047e+01 -2.336513e+01 -2.435686e+01 -1.861202e+01 3.241396e+00 2.933076e+01 4.389197e+01 4.758798e+01 4.691137e+01 4.624612e+01 4.543319e+01 4.537254e+01 4.543319e+01 4.624612e+01 4.691137e+01 4.758798e+01 4.389197e+01 2.933076e+01 3.241396e+00 -1.861202e+01 -2.435686e+01 -2.336513e+01 -2.140047e+01 -2.068341e+01 -2.011635e+01 -1.952977e+01 -1.948991e+01 
-1.921787e+01 -1.980435e+01 -1.974086e+01 -2.056878e+01 -2.113041e+01 -2.206849e+01 -2.490496e+01 -2.139841e+01 4.146310e+00 3.732195e+01 4.962471e+01 5.023295e+01 4.874279e+01 4.708964e+01 4.670715e+01 4.631507e+01 4.660933e+01 4.631507e+01 4.670715e+01 4.708964e+01 4.874279e+01 5.023295e+01 4.962471e+01 3.732195e+01 4.146310e+00 -2.139841e+01 -2.490496e+01 -2.206849e+01 -2.113041e+01 -2.056878e+01 -1.974086e+01 -1.980435e+01 
-1.917499e+01 -1.995583e+01 -1.974931e+01 -2.074630e+01 -2.105067e+01 -2.192775e+01 -2.435669e+01 -4.384788e+00 3.307162e+01 5.182517e+01 5.104559e+01 5.045966e+01 5.020817e+01 4.929479e+01 4.926334e+01 4.865825e+01 4.896651e+01 4.865825e+01 4.926334e+01 4.929479e+01 5.020817e+01 5.045966e+01 5.104559e+01 5.182517e+01 3.307162e+01 -4.384788e+00 -2.435669e+01 -2.192775e+01 -2.105067e+01 -2.074630e+01 -1.974931e+01 -1.995583e+01 
-1.865595e+01 -1.973226e+01 -1.927250e+01 -2.074359e+01 -2.022666e+01 -2.233576e+01 -1.917155e+01 2.053901e+01 5.158607e+01 5.346743e+01 5.228616e+01 5.103052e+01 5.082716e+01 4.957470e+01 4.969207e+01 4.903045e+01 4.948921e+01 4.903045e+01 4.969207e+01 4.957470e+01 5.082716e+01 5.103052e+01 5.228616e+01 5.346743e+01 5.158607e+01 2.053901e+01 -1.917155e+01 -2.233576e+01 -2.022666e+01 -2.074359e+01 -1.927250e+01 -1.973226e+01 
-1.806050e+01 -1.944297e+01 -1.880312e+01 -2.082099e+01 -1.963340e+01 -2.301115e+01 -1.133592e+01 3.742417e+01 5.806247e+01 5.431968e+01 5.375721e+01 5.161102e+01 5.203928e+01 5.076366e+01 5.114224e+01 5.037675e+01 5.092509e+01 5.037675e+01 5.114224e+01 5.076366e+01 5.203928e+01 5.161102e+01 5.375721e+01 5.431968e+01 5.806247e+01 3.742417e+01 -1.133592e+01 -2.301115e+01 -1.963340e+01 -2.082099e+01 -1.880312e+01 -1.944297e+01 
-1.713940e+01 -1.870920e+01 -1.806104e+01 -2.029642e+01 -1.897816e+01 -2.189832e+01 -3.832699e+00 4.612844e+01 5.880919e+01 5.446064e+01 5.450885e+01 5.181568e+01 5.212653e+01 5.058684e+01 5.093689e+01 5.008202e+01 5.066622e+01 5.008202e+01 5.093689e+01 5.058684e+01 5.212653e+01 5.181568e+01 5.450885e+01 5.446064e+01 5.880919e+01 4.612844e+01 -3.832699e+00 -2.189832e+01 -1.897816e+01 -2.029642e+01 -1.806104e+01 -1.870920e+01 
-1.690697e+01 -1.858475e+01 -1.794000e+01 -2.030280e+01 -1.900414e+01 -2.160086e+01 -1.035953e+00 4.936035e+01 5.946390e+01 5.523951e+01 5.529319e+01 5.239301e+01 5.277297e+01 5.121551e+01 5.166260e+01 5.078583e+01 5.141036e+01 5.078583e+01 5.166260e+01 5.121551e+01 5.277297e+01 5.239301e+01 5.529319e+01 5.523951e+01 5.946390e+01 4.936035e+01 -1.035953e+00 -2.160086e+01 -1.900414e+01 -2.030280e+01 -1.794000e+01 -1.858475e+01 
-1.713940e+01 -1.870920e+01 -1.806104e+01 -2.029642e+01 -1.897816e+01 -2.189832e+01 -3.832699e+00 4.612844e+01 5.880919e+01 5.446064e+01 5.450885e+01 5.181568e+01 5.212653e+01 5.058684e+01 5.093689e+01 5.008202e+01 5.066622e+01 5.008202e+01 5.093689e+01 5.058684e+01 5.212653e+01 5.181568e+01 5.450885e+01 5.446064e+01 5.880919e+01 4.612844e+01 -3.832699e+00 -2.189832e+01 -1.897816e+01 -2.029642e+01 -1.806104e+01 -1.870920e+01 
-1.806050e+01 -1.944297e+01 -1.880312e+01 -2.082099e+01 -1.963340e+01 -2.301115e+01 -1.133592e+01 3.742417e+01 5.806247e+01 5.431968e+01 5.375721e+01 5.161102e+01 5.203928e+01 5.076366e+01 5.114224e+01 5.037675e+01 5.092509e+01 5.037675e+01 5.114224e+01 5.076366e+01 5.203928e+01 5.161102e+01 5.375721e+01 5.431968e+01 5.806247e+01 3.742417e+01 -1.133592e+01 -2.301115e+01 -1.963340e+01 -2.082099e+01 -1.880312e+01 -1.944297e+01 
-1.865595e+01 -1.973226e+01 -1.927250e+01 -2.074359e+01 -2.022666e+01 -2.233576e+01 -1.917155e+01 2.053901e+01 5.158607e+01 5.346743e+01 5.228616e+01 5.103052e+01 5.082716e+01 4.957470e+01 4.969207e+01 4.903045e+01 4.948921e+01 4.903045e+01 4.969207e+01 4.957470e+01 5.082716e+01 5.103052e+01 5.228616e+01 5.346743e+01 5.158607e+01 2.053901e+01 -1.917155e+01 -2.233576e+01 -2.022666e+01 -2.074359e+01 -1.927250e+01 -1.973226e+01 
-1.917499e+01 -1.995583e+01 -1.974931e+01 -2.074630e+01 -2.105067e+01 -2.192775e+01 -2.435669e+01 -4.384788e+00 3.307162e+01 5.182517e+01 5.104559e+01 5.045966e+01 5.020817e+01 4.929479e+01 4.926334e+01 4.865825e+01 4.896651e+01 4.865825e+01 4.926334e+01 4.929479e+01 5.020817e+01 5.045966e+01 5.104559e+01 5.182517e+01 3.307162e+01 -4.384788e+00 -2.435669e+01 -2.192775e+01 -2.105067e+01 -2.074630e+01 -1.974931e+01 -1.995583e+01 
-1.921787e+01 -1.980435e+01 -1.974086e+01 -2.056878e+01 -2.113041e+01 -2.206849e+01 -2.490496e+01 -2.139841e+01 4.146310e+00 3.732195e+01 4.962471e+01 5.023295e+01 4.874279e+01 4.708964e+01 4.670715e+01 4.631507e+01 4.660933e+01 4.631507e+01 4.670715e+01 4.708964e+01 4.874279e+01 5.023295e+01 4.962471e+01 3.732195e+01 4.146310e+00 -2.139841e+01 -2.490496e+01 -2.206849e+01 -2.113041e+01 -2.056878e+01 -1.974086e+01 -1.980435e+01 
-1.909949e+01 -1.948991e+01 -1.952977e+01 -2.011635e+01 -2.068341e+01 -2.140047e+01 -2.336513e+01 -2.435686e+01 -1.861202e+01 3.241396e+00 2.933076e+01 4.389197e+01 4.758798e+01 4.691137e+01 4.624612e+01 4.543319e+01 4.537254e+01 4.543319e+01 4.624612e+01 4.691137e+01 4.758798e+01 4.389197e+01 2.933076e+01 3.241396e+00 -1.861202e+01 -2.435686e+01 -2.336513e+01 -2.140047e+01 -2.068341e+01 -2.011635e+01 -1.952977e+01 -1.948991e+01 
-1.876269e+01 -1.902892e+01 -1.909812e+01 -1.951418e+01 -1.997888e+01 -2.041826e+01 -2.165671e+01 -2.232132e+01 -2.277083e+01 -1.797455e+01 -3.500390e+00 1.479793e+01 2.847843e+01 3.597337e+01 4.012078e+01 4.206784e+01 4.278659e+01 4.206784e+01 4.012078e+01 3.597337e+01 2.847843e+01 1.479793e+01 -3.500390e+00 -1.797455e+01 -2.277083e+01 -2.232132e+01 -2.165671e+01 -2.041826e+01 -1.997888e+01 -1.951418e+01 -1.909812e+01 -1.902892e+01 
-1.832358e+01 -1.847730e+01 -1.854068e+01 -1.877273e+01 -1.905678e+01 -1.921821e+01 -1.975191e+01 -1.984760e+01 -1.994509e+01 -1.853989e+01 -1.673040e+01 -1.140228e+01 -3.605456e+00 2.556706e+00 9.349278e+00 1.434649e+01 1.625833e+01 1.434649e+01 9.349278e+00 2.556706e+00 -3.605456e+00 -1.140228e+01 -1.673040e+01 -1.853989e+01 -1.994509e+01 -1.984760e+01 -1.975191e+01 -1.921821e+01 -1.905678e+01 -1.877273e+01 -1.854068e+01 -1.847730e+01 
-1.788684e+01 -1.796527e+01 -1.801105e+01 -1.810269e+01 -1.825268e+01 -1.818927e+01 -1.834314e+01 -1.794372e+01 -1.759763e+01 -1.608737e+01 -1.427269e+01 -1.271239e+01 -1.176218e+01 -9.805235e+00 -6.965443e+00 -4.586512e+00 -2.891435e+00 -4.586512e+00 -6.965443e+00 -9.805235e+00 -1.176218e+01 -1.271239e+01 -1.427269e+01 -1.608737e+01 -1.759763e+01 -1.794372e+01 -1.834314e+01 -1.818927e+01 -1.825268e+01 -1.810269e+01 -1.801105e+01 -1.796527e+01 
-1.739027e+01 -1.741312e+01 -1.743087e+01 -1.741675e+01 -1.744353e+01 -1.725711e+01 -1.717677e+01 -1.665676e+01 -1.616782e+01 -1.497925e+01 -1.368736e+01 -1.180600e+01 -9.861655e+00 -8.995305e+00 -7.481163e+00 -4.913498e+00 -3.430787e+00 -4.913498e+00 -7.481163e+00 -8.995305e+00 -9.861655e+00 -1.180600e+01 -1.368736e+01 -1.497925e+01 -1.616782e+01 -1.665676e+01 -1.717677e+01 -1.725711e+01 -1.744353e+01 -1.741675e+01 -1.743087e+01 -1.741312e+01 
-1.702652e+01 -1.700971e+01 -1.701142e+01 -1.692041e+01 -1.687520e+01 -1.659692e+01 -1.639559e+01 -1.580394e+01 -1.524191e+01 -1.423602e+01 -1.322115e+01 -1.218780e+01 -1.146038e+01 -1.077933e+01 -9.307922e+00 -7.607062e+00 -5.972809e+00 -7.607062e+00 -9.307922e+00 -1.077933e+01 -1.146038e+01 -1.218780e+01 -1.322115e+01 -1.423602e+01 -1.524191e+01 -1.580394e+01 -1.639559e+01 -1.659692e+01 -1.687520e+01 -1.692041e+01 -1.701142e+01 -1.700971e+01 
-1.660904e+01 -1.656878e+01 -1.655019e+01 -1.641035e+01 -1.630397e+01 -1.597964e+01 -1.569891e+01 -1.509618e+01 -1.451481e+01 -1.357940e+01 -1.268172e+01 -1.166126e+01 -1.079269e+01 -1.039394e+01 -1.027275e+01 -9.318282e+00 -8.157988e+00 -9.318282e+00 -1.027275e+01 -1.039394e+01 -1.079269e+01 -1.166126e+01 -1.268172e+01 -1.357940e+01 -1.451481e+01 -1.509618e+01 -1.569891e+01 -1.597964e+01 -1.630397e+01 -1.641035e+01 -1.655019e+01 -1.656878e+01 
-1.639649e+01 -1.633866e+01 -1.631557e+01 -1.614714e+01 -1.601874e+01 -1.567672e+01 -1.537548e+01 -1.480184e+01 -1.425274e+01 -1.346071e+01 -1.272218e+01 -1.196109e+01 -1.140731e+01 -1.091597e+01 -1.058603e+01 -1.002620e+01 -9.405737e+00 -1.002620e+01 -1.058603e+01 -1.091597e+01 -1.140731e+01 -1.196109e+01 -1.272218e+01 -1.346071e+01 -1.425274e+01 -1.480184e+01 -1.537548e+01 -1.567672e+01 -1.601874e+01 -1.614714e+01 -1.631557e+01 -1.633866e+01 
-1.611522e+01 -1.604950e+01 -1.601513e+01 -1.582746e+01 -1.567208e+01 -1.531307e+01 -1.498322e+01 -1.440781e+01 -1.385388e+01 -1.308204e+01 -1.236809e+01 -1.162120e+01 -1.104599e+01 -1.064920e+01 -1.035017e+01 -1.000846e+01 -9.460419e+00 -1.000846e+01 -1.035017e+01 -1.064920e+01 -1.104599e+01 -1.162120e+01 -1.236809e+01 -1.308204e+01 -1.385388e+01 -1.440781e+01 -1.498322e+01 -1.531307e+01 -1.567208e+01 -1.582746e+01 -1.601513e+01 -1.604950e+01 
-1.607359e+01 -1.600179e+01 -1.597032e+01 -1.577807e+01 -1.562506e+01 -1.527328e+01 -1.495459e+01 -1.441226e+01 -1.389467e+01 -1.319316e+01 -1.255183e+01 -1.188666e+01 -1.138856e+01 -1.098865e+01 -1.062192e+01 -1.030582e+01 -9.853951e+00 -1.030582e+01 -1.062192e+01 -1.098865e+01 -1.138856e+01 -1.188666e+01 -1.255183e+01 -1.319316e+01 -1.389467e+01 -1.441226e+01 -1.495459e+01 -1.527328e+01 -1.562506e+01 -1.577807e+01 -1.597032e+01 -1.600179e+01 
