# vtk DataFile Version 2.0
Comment goes here
ASCII

DATASET STRUCTURED_POINTS
FIELD FieldData 1
TIME 1 1 double
0.90000000
DIMENSIONS    32   32   1

ORIGIN    0.000   0.000   0.000
SPACING   0.03125 0.03125   1.000

POINT_DATA   1024
SCALARS P double
LOOKUP_TABLE default

-1.156426e+01 -1.156847e+01 -1.148985e+01 -1.141303e+01 -1.127271e+01 -1.112504e+01 -1.095982e+01 -1.078752e+01 -1.064760e+01 -1.048859e+01 -1.034450e+01 -1.010737e+01 -9.781363e+00 -9.249813e+00 -8.606859e+00 -7.871252e+00 -7.539914e+00 -7.871252e+00 -8.606859e+00 -9.249813e+00 -9.781363e+00 -1.010737e+01 -1.034450e+01 -1.048859e+01 -1.064760e+01 -1.078752e+01 -1.095982e+01 -1.112504e+01 -1.127271e+01 -1.141303e+01 -1.148985e+01 -1.156847e+01 
-1.166004e+01 -1.165202e+01 -1.159166e+01 -1.150880e+01 -1.139444e+01 -1.124868e+01 -1.111938e+01 -1.095825e+01 -1.086530e+01 -1.072655e+01 -1.064421e+01 -1.044181e+01 -1.020833e+01 -9.746388e+00 -9.224740e+00 -8.544022e+00 -8.267961e+00 -8.544022e+00 -9.224740e+00 -9.746388e+00 -1.020833e+01 -1.044181e+01 -1.064421e+01 -1.072655e+01 -1.086530e+01 -1.095825e+01 -1.111938e+01 -1.124868e+01 -1.139444e+01 -1.150880e+01 -1.159166e+01 -1.165202e+01 
-1.164070e+01 -1.165007e+01 -1.157197e+01 -1.150585e+01 -1.137454e+01 -1.124327e+01 -1.109738e+01 -1.094167e+01 -1.082473e+01 -1.067687e+01 -1.055339e+01 -1.034612e+01 -1.007119e+01 -9.625314e+00 -9.094653e+00 -8.412836e+00 -8.126252e+00 -8.412836e+00 -9.094653e+00 -9.625314e+00 -1.007119e+01 -1.034612e+01 -1.055339e+01 -1.067687e+01 -1.082473e+01 -1.094167e+01 -1.109738e+01 -1.124327e+01 -1.137454e+01 -1.150585e+01 -1.157197e+01 -1.165007e+01 
-1.179989e+01 -1.180280e+01 -1.174276e+01 -1.168045e+01 -1.158023e+01 -1.146096e+01 -1.135858e+01 -1.121555e+01 -1.114541e+01 -1.100370e+01 -1.092968e+01 -1.074665e+01 -1.058603e+01 -1.028333e+01 -9.989248e+00 -9.443812e+00 -9.251231e+00 -9.443812e+00 -9.989248e+00 -1.028333e+01 -1.058603e+01 -1.074665e+01 -1.092968e+01 -1.100370e+01 -1.114541e+01 -1.121555e+01 -1.135858e+01 -1.146096e+01 -1.158023e+01 -1.168045e+01 -1.174276e+01 -1.180280e+01 
-1.185800e+01 -1.188586e+01 -1.181001e+01 -1.177919e+01 -1.166847e+01 -1.157582e+01 -1.146091e+01 -1.131280e+01 -1.120579e+01 -1.099849e+01 -1.082857e+01 -1.056357e+01 -1.024920e+01 -9.867996e+00 -9.467332e+00 -8.861035e+00 -8.630507e+00 -8.861035e+00 -9.467332e+00 -9.867996e+00 -1.024920e+01 -1.056357e+01 -1.082857e+01 -1.099849e+01 -1.120579e+01 -1.131280e+01 -1.146091e+01 -1.157582e+01 -1.166847e+01 -1.177919e+01 -1.181001e+01 -1.188586e+01 
-1.206707e+01 -1.209814e+01 -1.204068e+01 -1.202698e+01 -1.194658e+01 -1.186650e+01 -1.178149e+01 -1.161696e+01 -1.151432e+01 -1.123869e+01 -1.102264e+01 -1.064706e+01 -1.037910e+01 -1.015539e+01 -1.002568e+01 -9.542493e+00 -9.333383e+00 -9.542493e+00 -1.002568e+01 -1.015539e+01 -1.037910e+01 -1.064706e+01 -1.102264e+01 -1.123869e+01 -1.151432e+01 -1.161696e+01 -1.178149e+01 -1.186650e+01 -1.194658e+01 -1.202698e+01 -1.204068e+01 -1.209814e+01 
-1.221188e+01 -1.227932e+01 -1.220975e+01 -1.224971e+01 -1.216197e+01 -1.212774e+01 -1.203142e+01 -1.185823e+01 -1.173202e+01 -1.131316e+01 -1.098668e+01 -1.043770e+01 -9.746300e+00 -9.017140e+00 -8.390576e+00 -7.634704e+00 -7.365014e+00 -7.634704e+00 -8.390576e+00 -9.017140e+00 -9.746300e+00 -1.043770e+01 -1.098668e+01 -1.131316e+01 -1.173202e+01 -1.185823e+01 -1.203142e+01 -1.212774e+01 -1.216197e+01 -1.224971e+01 -1.220975e+01 -1.227932e+01 
-1.247617e+01 -1.256286e+01 -1.251218e+01 -1.259061e+01 -1.253072e+01 -1.251680e+01 -1.244382e+01 -1.223938e+01 -1.211290e+01 -1.157297e+01 -1.104432e+01 -1.006490e+01 -9.393271e+00 -9.253561e+00 -9.365897e+00 -8.431914e+00 -7.883549e+00 -8.431914e+00 -9.365897e+00 -9.253561e+00 -9.393271e+00 -1.006490e+01 -1.104432e+01 -1.157297e+01 -1.211290e+01 -1.223938e+01 -1.244382e+01 -1.251680e+01 -1.253072e+01 -1.259061e+01 -1.251218e+01 -1.256286e+01 
-1.272226e+01 -1.285699e+01 -1.279704e+01 -1.295571e+01 -1.288422e+01 -1.297103e+01 -1.289586e+01 -1.277685e+01 -1.279532e+01 -1.202598e+01 -1.171224e+01 -1.091348e+01 -9.254590e+00 -5.936145e+00 -1.728856e+00 2.059807e+00 3.514329e+00 2.059807e+00 -1.728856e+00 -5.936145e+00 -9.254590e+00 -1.091348e+01 -1.171224e+01 -1.202598e+01 -1.279532e+01 -1.277685e+01 -1.289586e+01 -1.297103e+01 -1.288422e+01 -1.295571e+01 -1.279704e+01 -1.285699e+01 
-1.302337e+01 -1.320045e+01 -1.315591e+01 -1.338854e+01 -1.334313e+01 -1.350224e+01 -1.348473e+01 -1.342876e+01 -1.370531e+01 -1.294299e+01 -1.099212e+01 -4.984696e+00 9.975404e+00 2.370923e+01 3.054507e+01 3.573156e+01 3.730668e+01 3.573156e+01 3.054507e+01 2.370923e+01 9.975404e+00 -4.984696e+00 -1.099212e+01 -1.294299e+01 -1.370531e+01 -1.342876e+01 -1.348473e+01 -1.350224e+01 -1.334313e+01 -1.338854e+01 -1.315591e+01 -1.320045e+01 
-1.332508e+01 -1.354990e+01 -1.350241e+01 -1.382937e+01 -1.374911e+01 -1.412544e+01 -1.404087e+01 -1.456370e+01 -1.523409e+01 -1.194665e+01 2.356759e+00 2.152776e+01 3.707305e+01 4.679989e+01 4.770885e+01 4.796840e+01 4.814632e+01 4.796840e+01 4.770885e+01 4.679989e+01 3.707305e+01 2.152776e+01 2.356759e+00 -1.194665e+01 -1.523409e+01 -1.456370e+01 -1.404087e+01 -1.412544e+01 -1.374911e+01 -1.382937e+01 -1.350241e+01 -1.354990e+01 
-1.353181e+01 -1.382112e+01 -1.378296e+01 -1.424259e+01 -1.416625e+01 -1.476838e+01 -1.472265e+01 -1.565387e+01 -1.558507e+01 -1.533930e+00 2.809036e+01 4.537740e+01 4.710816e+01 4.781963e+01 4.671403e+01 4.673676e+01 4.637985e+01 4.673676e+01 4.671403e+01 4.781963e+01 4.710816e+01 4.537740e+01 2.809036e+01 -1.533930e+00 -1.558507e+01 -1.565387e+01 -1.472265e+01 -1.476838e+01 -1.416625e+01 -1.424259e+01 -1.378296e+01 -1.382112e+01 
-1.372914e+01 -1.402628e+01 -1.403649e+01 -1.453410e+01 -1.441071e+01 -1.519055e+01 -1.459937e+01 -1.765297e+01 -5.577138e+00 2.223981e+01 4.498879e+01 4.827828e+01 4.744625e+01 4.822715e+01 4.768352e+01 4.837530e+01 4.798973e+01 4.837530e+01 4.768352e+01 4.822715e+01 4.744625e+01 4.827828e+01 4.498879e+01 2.223981e+01 -5.577138e+00 -1.765297e+01 -1.459937e+01 -1.519055e+01 -1.441071e+01 -1.453410e+01 -1.403649e+01 -1.402628e+01 
-1.358807e+01 -1.390252e+01 -1.393727e+01 -1.451730e+01 -1.426472e+01 -1.534022e+01 -1.419981e+01 -1.804700e+01 8.905200e+00 4.318385e+01 4.957693e+01 4.887857e+01 4.822613e+01 4.846862e+01 4.757337e+01 4.793089e+01 4.734438e+01 4.793089e+01 4.757337e+01 4.846862e+01 4.822613e+01 4.887857e+01 4.957693e+01 4.318385e+01 8.905200e+00 -1.804700e+01 -1.419981e+01 -1.534022e+01 -1.426472e+01 -1.451730e+01 -1.393727e+01 -1.390252e+01 
-1.349296e+01 -1.370065e+01 -1.392415e+01 -1.421545e+01 -1.438890e+01 -1.425200e+01 -1.458182e+01 -1.162556e+01 2.137686e+01 4.989893e+01 4.929369e+01 4.962598e+01 4.838185e+01 4.906433e+01 4.815000e+01 4.885574e+01 4.813832e+01 4.885574e+01 4.815000e+01 4.906433e+01 4.838185e+01 4.962598e+01 4.929369e+01 4.989893e+01 2.137686e+01 -1.162556e+01 -1.458182e+01 -1.425200e+01 -1.438890e+01 -1.421545e+01 -1.392415e+01 -1.370065e+01 
-1.306927e+01 -1.312949e+01 -1.350511e+01 -1.337829e+01 -1.380088e+01 -1.214101e+01 -1.304246e+01 -4.687514e+00 3.280283e+01 5.204659e+01 4.888786e+01 5.001275e+01 4.838474e+01 4.906558e+01 4.796209e+01 4.853846e+01 4.778045e+01 4.853846e+01 4.796209e+01 4.906558e+01 4.838474e+01 5.001275e+01 4.888786e+01 5.204659e+01 3.280283e+01 -4.687514e+00 -1.304246e+01 -1.214101e+01 -1.380088e+01 -1.337829e+01 -1.350511e+01 -1.312949e+01 
-1.303256e+01 -1.308478e+01 -1.343133e+01 -1.326884e+01 -1.347818e+01 -1.171839e+01 -1.182795e+01 -3.405660e+00 3.560317e+01 5.288619e+01 4.899618e+01 5.042227e+01 4.855591e+01 4.947091e+01 4.832363e+01 4.909313e+01 4.824704e+01 4.909313e+01 4.832363e+01 4.947091e+01 4.855591e+01 5.042227e+01 4.899618e+01 5.288619e+01 3.560317e+01 -3.405660e+00 -1.182795e+01 -1.171839e+01 -1.347818e+01 -1.326884e+01 -1.343133e+01 -1.308478e+01 
-1.306927e+01 -1.312949e+01 -1.350511e+01 -1.337829e+01 -1.380088e+01 -1.214101e+01 -1.304246e+01 -4.687514e+00 3.280283e+01 5.204659e+01 4.888786e+01 5.001275e+01 4.838474e+01 4.906558e+01 4.796209e+01 4.853846e+01 4.778045e+01 4.853846e+01 4.796209e+01 4.906558e+01 4.838474e+01 5.001275e+01 4.888786e+01 5.204659e+01 3.280283e+01 -4.687514e+00 -1.304246e+01 -1.214101e+01 -1.380088e+01 -1.337829e+01 -1.350511e+01 -1.312949e+01 
-1.349296e+01 -1.370065e+01 -1.392415e+01 -1.421545e+01 -1.438890e+01 -1.425200e+01 -1.458182e+01 -1.162556e+01 2.137686e+01 4.989893e+01 4.929369e+01 4.962598e+01 4.838185e+01 4.906433e+01 4.815000e+01 4.885574e+01 4.813832e+01 4.885574e+01 4.815000e+01 4.906433e+01 4.838185e+01 4.962598e+01 4.929369e+01 4.989893e+01 2.137686e+01 -1.162556e+01 -1.458182e+01 -1.425200e+01 -1.438890e+01 -1.421545e+01 -1.392415e+01 -1.370065e+01 
-1.358807e+01 -1.390252e+01 -1.393727e+01 -1.451730e+01 -1.426472e+01 -1.534022e+01 -1.419981e+01 -1.804700e+01 8.905200e+00 4.318385e+01 4.957693e+01 4.887857e+01 4.822613e+01 4.846862e+01 4.757337e+01 4.793089e+01 4.734438e+01 4.793089e+01 4.757337e+01 4.846862e+01 4.822613e+01 4.887857e+01 4.957693e+01 4.318385e+01 8.905200e+00 -1.804700e+01 -1.419981e+01 -1.534022e+01 -1.426472e+01 -1.451730e+01 -1.393727e+01 -1.390252e+01 
-1.372914e+01 -1.402628e+01 -1.403649e+01 -1.453410e+01 -1.441071e+01 -1.519055e+01 -1.459937e+01 -1.765297e+01 -5.577138e+00 2.223981e+01 4.498879e+01 4.827828e+01 4.744625e+01 4.822715e+01 4.768352e+01 4.837530e+01 4.798973e+01 4.837530e+01 4.768352e+01 4.822715e+01 4.744625e+01 4.827828e+01 4.498879e+01 2.223981e+01 -5.577138e+00 -1.765297e+01 -1.459937e+01 -1.519055e+01 -1.441071e+01 -1.453410e+01 -1.403649e+01 -1.402628e+01 
-1.353181e+01 -1.382112e+01 -1.378296e+01 -1.424259e+01 -1.416625e+01 -1.476838e+01 -1.472265e+01 -1.565387e+01 -1.558507e+01 -1.533930e+00 2.809036e+01 4.537740e+01 4.710816e+01 4.781963e+01 4.671403e+01 4.673676e+01 4.637985e+01 4.673676e+01 4.671403e+01 4.781963e+01 4.710816e+01 4.537740e+01 2.809036e+01 -1.533930e+00 -1.558507e+01 -1.565387e+01 -1.472265e+01 -1.476838e+01 -1.416625e+01 -1.424259e+01 -1.378296e+01 -1.382112e+01 
-1.332508e+01 -1.354990e+01 -1.350241e+01 -1.382937e+01 -1.374911e+01 -1.412544e+01 -1.404087e+01 -1.456370e+01 -1.523409e+01 -1.194665e+01 2.356759e+00 2.152776e+01 3.707305e+01 4.679989e+01 4.770885e+01 4.796840e+01 4.814632e+01 4.796840e+01 4.770885e+01 4.679989e+01 3.707305e+01 2.152776e+01 2.356759e+00 -1.194665e+01 -1.523409e+01 -1.456370e+01 -1.404087e+01 -1.412544e+01 -1.374911e+01 -1.382937e+01 -1.350241e+01 -1.354990e+01 
-1.302337e+01 -1.320045e+01 -1.315591e+01 -1.338854e+01 -1.334313e+01 -1.350224e+01 -1.348473e+01 -1.342876e+01 -1.370531e+01 -1.294299e+01 -1.099212e+01 -4.984696e+00 9.975404e+00 2.370923e+01 3.054507e+01 3.573156e+01 3.730668e+01 3.573156e+01 3.054507e+01 2.370923e+01 9.975404e+00 -4.984696e+00 -1.099212e+01 -1.294299e+01 -1.370531e+01 -1.342876e+01 -1.348473e+01 -1.350224e+01 -1.334313e+01 -1.338854e+01 -1.315591e+01 -1.320045e+01 
-1.272226e+01 -1.285699e+01 -1.279704e+01 -1.295571e+01 -1.288422e+01 -1.297103e+01 -1.289586e+01 -1.277685e+01 -1.279532e+01 -1.202598e+01 -1.171224e+01 -1.091348e+01 -9.254590e+00 -5.936145e+00 -1.728856e+00 2.059807e+00 3.514329e+00 2.059807e+00 -1.728856e+00 -5.936145e+00 -9.254590e+00 -1.091348e+01 -1.171224e+01 -1.202598e+01 -1.279532e+01 -1.277685e+01 -1.289586e+01 -1.297103e+01 -1.288422e+01 -1.295571e+01 -1.279704e+01 -1.285699e+01 
-1.247617e+01 -1.256286e+01 -1.251218e+01 -1.259061e+01 -1.253072e+01 -1.251680e+01 -1.244382e+01 -1.223938e+01 -1.211290e+01 -1.157297e+01 -1.104432e+01 -1.006490e+01 -9.393271e+00 -9.253561e+00 -9.365897e+00 -8.431914e+00 -7.883549e+00 -8.431914e+00 -9.365897e+00 -9.253561e+00 -9.393271e+00 -1.006490e+01 -1.104432e+01 -1.157297e+01 -1.211290e+01 -1.223938e+01 -1.244382e+01 -1.251680e+01 -1.253072e+01 -1.259061e+01 -1.251218e+01 -1.256286e+01 
-1.221188e+01 -1.227932e+01 -1.220975e+01 -1.224971e+01 -1.216197e+01 -1.212774e+01 -1.203142e+01 -1.185823e+01 -1.173202e+01 -1.131316e+01 -1.098668e+01 -1.043770e+01 -9.746300e+00 -9.017140e+00 -8.390576e+00 -7.634704e+00 -7.365014e+00 -7.634704e+00 -8.390576e+00 -9.017140e+00 -9.746300e+00 -1.043770e+01 -1.098668e+01 -1.131316e+01 -1.173202e+01 -1.185823e+01 -1.203142e+01 -1.212774e+01 -1.216197e+01 -1.224971e+01 -1.220975e+01 -1.227932e+01 
-1.206707e+01 -1.209814e+01 -1.204068e+01 -1.202698e+01 -1.194658e+01 -1.186650e+01 -1.178149e+01 -1.161696e+01 -1.151432e+01 -1.123869e+01 -1.102264e+01 -1.064706e+01 -1.037910e+01 -1.015539e+01 -1.002568e+01 -9.542493e+00 -9.333383e+00 -9.542493e+00 -1.002568e+01 -1.015539e+01 -1.037910e+01 -1.064706e+01 -1.102264e+01 -1.123869e+01 -1.151432e+01 -1.161696e+01 -1.178149e+01 -1.186650e+01 -1.194658e+01 -1.202698e+01 -1.204068e+01 -1.209814e+01 
-1.185800e+01 -1.188586e+01 -1.181001e+01 -1.177919e+01 -1.166847e+01 -1.157582e+01 -1.146091e+01 -1.131280e+01 -1.120579e+01 -1.099849e+01 -1.082857e+01 -1.056357e+01 -1.024920e+01 -9.867996e+00 -9.467332e+00 -8.861035e+00 -8.630507e+00 -8.861035e+00 -9.467332e+00 -9.867996e+00 -1.024920e+01 -1.056357e+01 -1.082857e+01 -1.099849e+01 -1.120579e+01 -1.131280e+01 -1.146091e+01 -1.157582e+01 -1.166847e+01 -1.177919e+01 -1.181001e+01 -1.188586e+01 
-1.179989e+01 -1.180280e+01 -1.174276e+01 -1.168045e+01 -1.158023e+01 -1.146096e+01 -1.135858e+01 -1.121555e+01 -1.114541e+01 -1.100370e+01 -1.092968e+01 -1.074665e+01 -1.058603e+01 -1.028333e+01 -9.989248e+00 -9.443812e+00 -9.251231e+00 -9.443812e+00 -9.989248e+00 -1.028333e+01 -1.058603e+01 -1.074665e+01 -1.092968e+01 -1.100370e+01 -1.114541e+01 -1.121555e+01 -1.135858e+01 -1.146096e+01 -1.158023e+01 -1.168045e+01 -1.174276e+01 -1.180280e+01 
-1.164070e+01 -1.165007e+01 -1.157197e+01 -1.150585e+01 -1.137454e+01 -1.124327e+01 -1.109738e+01 -1.094167e+01 -1.082473e+01 -1.067687e+01 -1.055339e+01 -1.034612e+01 -1.007119e+01 -9.625314e+00 -9.094653e+00 -8.412836e+00 -8.126252e+00 -8.412836e+00 -9.094653e+00 -9.625314e+00 -1.007119e+01 -1.034612e+01 -1.055339e+01 -1.067687e+01 -1.082473e+01 -1.094167e+01 -1.109738e+01 -1.124327e+01 -1.137454e+01 -1.150585e+01 -1.157197e+01 -1.165007e+01 
-1.166004e+01 -1.165202e+01 -1.159166e+01 -1.150880e+01 -1.139444e+01 -1.124868e+01 -1.111938e+01 -1.095825e+01 -1.086530e+01 -1.072655e+01 -1.064421e+01 -1.044181e+01 -1.020833e+01 -9.746388e+00 -9.224740e+00 -8.544022e+00 -8.267961e+00 -8.544022e+00 -9.224740e+00 -9.746388e+00 -1.020833e+01 -1.044181e+01 -1.064421e+01 -1.072655e+01 -1.086530e+01 -1.095825e+01 -1.111938e+01 -1.124868e+01 -1.139444e+01 -1.150880e+01 -1.159166e+01 -1.165202e+01 
