# vtk DataFile Version 2.0
Comment goes here
ASCII

DATASET STRUCTURED_POINTS
FIELD FieldData 1
TIME 1 1 double
0.14000000
DIMENSIONS    32   32   1

ORIGIN    0.000   0.000   0.000
SPACING   0.03125 0.03125   1.000

POINT_DATA   1024
SCALARS P double
LOOKUP_TABLE default

-1.642237e+01 -1.646260e+01 -1.670924e+01 -1.703258e+01 -1.756553e+01 -1.816075e+01 -1.894208e+01 -1.974648e+01 -2.062482e+01 -2.142868e+01 -2.203373e+01 -2.238849e+01 -2.221276e+01 -2.172361e+01 -2.103133e+01 -2.039809e+01 -2.015079e+01 -2.039809e+01 -2.103133e+01 -2.172361e+01 -2.221276e+01 -2.238849e+01 -2.203373e+01 -2.142868e+01 -2.062482e+01 -1.974648e+01 -1.894208e+01 -1.816075e+01 -1.756553e+01 -1.703258e+01 -1.670924e+01 -1.646260e+01 
-1.647713e+01 -1.650630e+01 -1.677905e+01 -1.710590e+01 -1.768420e+01 -1.830295e+01 -1.915212e+01 -2.001022e+01 -2.096908e+01 -2.185581e+01 -2.249677e+01 -2.289331e+01 -2.253658e+01 -2.186127e+01 -2.059683e+01 -1.976047e+01 -1.929524e+01 -1.976047e+01 -2.059683e+01 -2.186127e+01 -2.253658e+01 -2.289331e+01 -2.249677e+01 -2.185581e+01 -2.096908e+01 -2.001022e+01 -1.915212e+01 -1.830295e+01 -1.768420e+01 -1.710590e+01 -1.677905e+01 -1.650630e+01 
-1.622402e+01 -1.626773e+01 -1.651999e+01 -1.685683e+01 -1.741886e+01 -1.805500e+01 -1.891866e+01 -1.982598e+01 -2.087396e+01 -2.186971e+01 -2.268966e+01 -2.322527e+01 -2.298569e+01 -2.237231e+01 -2.162838e+01 -2.096855e+01 -2.072981e+01 -2.096855e+01 -2.162838e+01 -2.237231e+01 -2.298569e+01 -2.322527e+01 -2.268966e+01 -2.186971e+01 -2.087396e+01 -1.982598e+01 -1.891866e+01 -1.805500e+01 -1.741886e+01 -1.685683e+01 -1.651999e+01 -1.626773e+01 
-1.604670e+01 -1.608367e+01 -1.636395e+01 -1.671375e+01 -1.734857e+01 -1.804255e+01 -1.907065e+01 -2.014414e+01 -2.151081e+01 -2.286962e+01 -2.413748e+01 -2.511225e+01 -2.483388e+01 -2.376914e+01 -2.167652e+01 -2.026798e+01 -1.969625e+01 -2.026798e+01 -2.167652e+01 -2.376914e+01 -2.483388e+01 -2.511225e+01 -2.413748e+01 -2.286962e+01 -2.151081e+01 -2.014414e+01 -1.907065e+01 -1.804255e+01 -1.734857e+01 -1.671375e+01 -1.636395e+01 -1.608367e+01 
-1.559767e+01 -1.565201e+01 -1.590986e+01 -1.627542e+01 -1.690367e+01 -1.764127e+01 -1.873834e+01 -1.995816e+01 -2.160221e+01 -2.333820e+01 -2.520678e+01 -2.668722e+01 -2.615407e+01 -2.500648e+01 -2.418288e+01 -2.324264e+01 -2.282369e+01 -2.324264e+01 -2.418288e+01 -2.500648e+01 -2.615407e+01 -2.668722e+01 -2.520678e+01 -2.333820e+01 -2.160221e+01 -1.995816e+01 -1.873834e+01 -1.764127e+01 -1.690367e+01 -1.627542e+01 -1.590986e+01 -1.565201e+01 
-1.512839e+01 -1.518326e+01 -1.545097e+01 -1.582061e+01 -1.651229e+01 -1.729576e+01 -1.861885e+01 -2.007791e+01 -2.238050e+01 -2.500825e+01 -2.857997e+01 -3.212765e+01 -3.273915e+01 -3.043401e+01 -2.327566e+01 -1.597486e+01 -1.321253e+01 -1.597486e+01 -2.327566e+01 -3.043401e+01 -3.273915e+01 -3.212765e+01 -2.857997e+01 -2.500825e+01 -2.238050e+01 -2.007791e+01 -1.861885e+01 -1.729576e+01 -1.651229e+01 -1.582061e+01 -1.545097e+01 -1.518326e+01 
-1.446901e+01 -1.454260e+01 -1.477008e+01 -1.514123e+01 -1.579257e+01 -1.659791e+01 -1.796311e+01 -1.962631e+01 -2.245580e+01 -2.609827e+01 -3.182418e+01 -3.597843e+01 -2.647835e+01 -3.226719e+00 1.965872e+01 3.294379e+01 3.692913e+01 3.294379e+01 1.965872e+01 -3.226719e+00 -2.647835e+01 -3.597843e+01 -3.182418e+01 -2.609827e+01 -2.245580e+01 -1.962631e+01 -1.796311e+01 -1.659791e+01 -1.579257e+01 -1.514123e+01 -1.477008e+01 -1.454260e+01 
-1.365571e+01 -1.374633e+01 -1.392870e+01 -1.426950e+01 -1.488624e+01 -1.561481e+01 -1.708142e+01 -1.880201e+01 -2.225362e+01 -2.631048e+01 -3.292748e+01 -2.502684e+01 7.014664e+00 3.776552e+01 5.348261e+01 5.799648e+01 5.918337e+01 5.799648e+01 5.348261e+01 3.776552e+01 7.014664e+00 -2.502684e+01 -3.292748e+01 -2.631048e+01 -2.225362e+01 -1.880201e+01 -1.708142e+01 -1.561481e+01 -1.488624e+01 -1.426950e+01 -1.392870e+01 -1.374633e+01 
-1.279478e+01 -1.290419e+01 -1.301462e+01 -1.331937e+01 -1.380278e+01 -1.442181e+01 -1.565292e+01 -1.712580e+01 -1.951377e+01 -2.261023e+01 -2.138643e+01 4.599500e+00 3.508285e+01 4.747287e+01 5.151956e+01 5.274037e+01 5.354094e+01 5.274037e+01 5.151956e+01 4.747287e+01 3.508285e+01 4.599500e+00 -2.138643e+01 -2.261023e+01 -1.951377e+01 -1.712580e+01 -1.565292e+01 -1.442181e+01 -1.380278e+01 -1.331937e+01 -1.301462e+01 -1.290419e+01 
-1.166311e+01 -1.182849e+01 -1.180956e+01 -1.207048e+01 -1.234897e+01 -1.272821e+01 -1.365128e+01 -1.410843e+01 -1.526855e+01 -1.244922e+01 5.403119e+00 3.115396e+01 4.121761e+01 4.531204e+01 4.901484e+01 5.187667e+01 5.321265e+01 5.187667e+01 4.901484e+01 4.531204e+01 4.121761e+01 3.115396e+01 5.403119e+00 -1.244922e+01 -1.526855e+01 -1.410843e+01 -1.365128e+01 -1.272821e+01 -1.234897e+01 -1.207048e+01 -1.180956e+01 -1.182849e+01 
-1.069611e+01 -1.088585e+01 -1.078664e+01 -1.101741e+01 -1.116640e+01 -1.140502e+01 -1.225096e+01 -1.186499e+01 -1.260140e+01 7.361323e-01 2.949268e+01 4.247447e+01 4.403308e+01 4.587281e+01 4.752056e+01 4.892654e+01 4.988843e+01 4.892654e+01 4.752056e+01 4.587281e+01 4.403308e+01 4.247447e+01 2.949268e+01 7.361323e-01 -1.260140e+01 -1.186499e+01 -1.225096e+01 -1.140502e+01 -1.116640e+01 -1.101741e+01 -1.078664e+01 -1.088585e+01 
-9.420851e+00 -9.736965e+00 -9.442944e+00 -9.757300e+00 -9.626584e+00 -1.002390e+01 -1.042986e+01 -1.067659e+01 -1.055697e+01 1.429958e+01 4.250999e+01 4.718893e+01 4.726013e+01 4.794562e+01 4.941855e+01 5.031857e+01 5.110604e+01 5.031857e+01 4.941855e+01 4.794562e+01 4.726013e+01 4.718893e+01 4.250999e+01 1.429958e+01 -1.055697e+01 -1.067659e+01 -1.042986e+01 -1.002390e+01 -9.626584e+00 -9.757300e+00 -9.442944e+00 -9.736965e+00 
-8.570297e+00 -8.923889e+00 -8.574164e+00 -8.907776e+00 -8.568532e+00 -9.214016e+00 -9.787795e+00 -1.213949e+01 -1.127494e+01 2.047158e+01 4.508291e+01 4.633872e+01 4.820931e+01 4.890396e+01 5.010116e+01 5.014660e+01 5.073737e+01 5.014660e+01 5.010116e+01 4.890396e+01 4.820931e+01 4.633872e+01 4.508291e+01 2.047158e+01 -1.127494e+01 -1.213949e+01 -9.787795e+00 -9.214016e+00 -8.568532e+00 -8.907776e+00 -8.574164e+00 -8.923889e+00 
-7.530302e+00 -8.091547e+00 -7.492715e+00 -7.989407e+00 -7.352696e+00 -7.884759e+00 -7.806766e+00 -1.104966e+01 -7.722492e+00 2.538573e+01 4.507181e+01 4.593603e+01 4.929927e+01 4.998233e+01 5.152968e+01 5.137304e+01 5.207436e+01 5.137304e+01 5.152968e+01 4.998233e+01 4.929927e+01 4.593603e+01 4.507181e+01 2.538573e+01 -7.722492e+00 -1.104966e+01 -7.806766e+00 -7.884759e+00 -7.352696e+00 -7.989407e+00 -7.492715e+00 -8.091547e+00 
-7.187149e+00 -7.820638e+00 -7.298095e+00 -7.688979e+00 -6.015877e+00 -5.741860e+00 -3.958670e+00 -5.376136e+00 5.143370e+00 3.686306e+01 4.761613e+01 4.770161e+01 5.076695e+01 5.088491e+01 5.226555e+01 5.176716e+01 5.248373e+01 5.176716e+01 5.226555e+01 5.088491e+01 5.076695e+01 4.770161e+01 4.761613e+01 3.686306e+01 5.143370e+00 -5.376136e+00 -3.958670e+00 -5.741860e+00 -6.015877e+00 -7.688979e+00 -7.298095e+00 -7.820638e+00 
-6.662982e+00 -7.428359e+00 -6.515753e+00 -6.666193e+00 -4.009625e+00 -2.870475e+00 2.499890e-01 9.639342e-01 1.911655e+01 4.902698e+01 5.126201e+01 5.061640e+01 5.228469e+01 5.226998e+01 5.347285e+01 5.293983e+01 5.364818e+01 5.293983e+01 5.347285e+01 5.226998e+01 5.228469e+01 5.061640e+01 5.126201e+01 4.902698e+01 1.911655e+01 9.639342e-01 2.499890e-01 -2.870475e+00 -4.009625e+00 -6.666193e+00 -6.515753e+00 -7.428359e+00 
-6.262235e+00 -6.913724e+00 -6.180681e+00 -5.808567e+00 -2.753347e+00 -1.230715e+00 1.753688e+00 3.567856e+00 2.407403e+01 5.293751e+01 5.251527e+01 5.145878e+01 5.269558e+01 5.243446e+01 5.351651e+01 5.285097e+01 5.357110e+01 5.285097e+01 5.351651e+01 5.243446e+01 5.269558e+01 5.145878e+01 5.251527e+01 5.293751e+01 2.407403e+01 3.567856e+00 1.753688e+00 -1.230715e+00 -2.753347e+00 -5.808567e+00 -6.180681e+00 -6.913724e+00 
-6.662982e+00 -7.428359e+00 -6.515753e+00 -6.666193e+00 -4.009625e+00 -2.870475e+00 2.499890e-01 9.639342e-01 1.911655e+01 4.902698e+01 5.126201e+01 5.061640e+01 5.228469e+01 5.226998e+01 5.347285e+01 5.293983e+01 5.364818e+01 5.293983e+01 5.347285e+01 5.226998e+01 5.228469e+01 5.061640e+01 5.126201e+01 4.902698e+01 1.911655e+01 9.639342e-01 2.499890e-01 -2.870475e+00 -4.009625e+00 -6.666193e+00 -6.515753e+00 -7.428359e+00 
-7.187149e+00 -7.820638e+00 -7.298095e+00 -7.688979e+00 -6.015877e+00 -5.741860e+00 -3.958670e+00 -5.376136e+00 5.143370e+00 3.686306e+01 4.761613e+01 4.770161e+01 5.076695e+01 5.088491e+01 5.226555e+01 5.176716e+01 5.248373e+01 5.176716e+01 5.226555e+01 5.088491e+01 5.076695e+01 4.770161e+01 4.761613e+01 3.686306e+01 5.143370e+00 -5.376136e+00 -3.958670e+00 -5.741860e+00 -6.015877e+00 -7.688979e+00 -7.298095e+00 -7.820638e+00 
-7.530302e+00 -8.091547e+00 -7.492715e+00 -7.989407e+00 -7.352696e+00 -7.884759e+00 -7.806766e+00 -1.104966e+01 -7.722492e+00 2.538573e+01 4.507181e+01 4.593603e+01 4.929927e+01 4.998233e+01 5.152968e+01 5.137304e+01 5.207436e+01 5.137304e+01 5.152968e+01 4.998233e+01 4.929927e+01 4.593603e+01 4.507181e+01 2.538573e+01 -7.722492e+00 -1.104966e+01 -7.806766e+00 -7.884759e+00 -7.352696e+00 -7.989407e+00 -7.492715e+00 -8.091547e+00 
-8.570297e+00 -8.923889e+00 -8.574164e+00 -8.907776e+00 -8.568532e+00 -9.214016e+00 -9.787795e+00 -1.213949e+01 -1.127494e+01 2.047158e+01 4.508291e+01 4.633872e+01 4.820931e+01 4.890396e+01 5.010116e+01 5.014660e+01 5.073737e+01 5.014660e+01 5.010116e+01 4.890396e+01 4.820931e+01 4.633872e+01 4.508291e+01 2.047158e+01 -1.127494e+01 -1.213949e+01 -9.787795e+00 -9.214016e+00 -8.568532e+00 -8.907776e+00 -8.574164e+00 -8.923889e+00 
-9.420851e+00 -9.736965e+00 -9.442944e+00 -9.757300e+00 -9.626584e+00 -1.002390e+01 -1.042986e+01 -1.067659e+01 -1.055697e+01 1.429958e+01 4.250999e+01 4.718893e+01 4.726013e+01 4.794562e+01 4.941855e+01 5.031857e+01 5.110604e+01 5.031857e+01 4.941855e+01 4.794562e+01 4.726013e+01 4.718893e+01 4.250999e+01 1.429958e+01 -1.055697e+01 -1.067659e+01 -1.042986e+01 -1.002390e+01 -9.626584e+00 -9.757300e+00 -9.442944e+00 -9.736965e+00 
-1.069611e+01 -1.088585e+01 -1.078664e+01 -1.101741e+01 -1.116640e+01 -1.140502e+01 -1.225096e+01 -1.186499e+01 -1.260140e+01 7.361323e-01 2.949268e+01 4.247447e+01 4.403308e+01 4.587281e+01 4.752056e+01 4.892654e+01 4.988843e+01 4.892654e+01 4.752056e+01 4.587281e+01 4.403308e+01 4.247447e+01 2.949268e+01 7.361323e-01 -1.260140e+01 -1.186499e+01 -1.225096e+01 -1.140502e+01 -1.116640e+01 -1.101741e+01 -1.078664e+01 -1.088585e+01 
-1.166311e+01 -1.182849e+01 -1.180956e+01 -1.207048e+01 -1.234897e+01 -1.272821e+01 -1.365128e+01 -1.410843e+01 -1.526855e+01 -1.244922e+01 5.403119e+00 3.115396e+01 4.121761e+01 4.531204e+01 4.901484e+01 5.187667e+01 5.321265e+01 5.187667e+01 4.901484e+01 4.531204e+01 4.121761e+01 3.115396e+01 5.403119e+00 -1.244922e+01 -1.526855e+01 -1.410843e+01 -1.365128e+01 -1.272821e+01 -1.234897e+01 -1.207048e+01 -1.180956e+01 -1.182849e+01 
-1.279478e+01 -1.290419e+01 -1.301462e+01 -1.331937e+01 -1.380278e+01 -1.442181e+01 -1.565292e+01 -1.712580e+01 -1.951377e+01 -2.261023e+01 -2.138643e+01 4.599500e+00 3.508285e+01 4.747287e+01 5.151956e+01 5.274037e+01 5.354094e+01 5.274037e+01 5.151956e+01 4.747287e+01 3.508285e+01 4.599500e+00 -2.138643e+01 -2.261023e+01 -1.951377e+01 -1.712580e+01 -1.565292e+01 -1.442181e+01 -1.380278e+01 -1.331937e+01 -1.301462e+01 -1.290419e+01 
-1.365571e+01 -1.374633e+01 -1.392870e+01 -1.426950e+01 -1.488624e+01 -1.561481e+01 -1.708142e+01 -1.880201e+01 -2.225362e+01 -2.631048e+01 -3.292748e+01 -2.502684e+01 7.014664e+00 3.776552e+01 5.348261e+01 5.799648e+01 5.918337e+01 5.799648e+01 5.348261e+01 3.776552e+01 7.014664e+00 -2.502684e+01 -3.292748e+01 -2.631048e+01 -2.225362e+01 -1.880201e+01 -1.708142e+01 -1.561481e+01 -1.488624e+01 -1.426950e+01 -1.392870e+01 -1.374633e+01 
-1.446901e+01 -1.454260e+01 -1.477008e+01 -1.514123e+01 -1.579257e+01 -1.659791e+01 -1.796311e+01 -1.962631e+01 -2.245580e+01 -2.609827e+01 -3.182418e+01 -3.597843e+01 -2.647835e+01 -3.226719e+00 1.965872e+01 3.294379e+01 3.692913e+01 3.294379e+01 1.965872e+01 -3.226719e+00 -2.647835e+01 -3.597843e+01 -3.182418e+01 -2.609827e+01 -2.245580e+01 -1.962631e+01 -1.796311e+01 -1.659791e+01 -1.579257e+01 -1.514123e+01 -1.477008e+01 -1.454260e+01 
-1.512839e+01 -1.518326e+01 -1.545097e+01 -1.582061e+01 -1.651229e+01 -1.729576e+01 -1.861885e+01 -2.007791e+01 -2.238050e+01 -2.500825e+01 -2.857997e+01 -3.212765e+01 -3.273915e+01 -3.043401e+01 -2.327566e+01 -1.597486e+01 -1.321253e+01 -1.597486e+01 -2.327566e+01 -3.043401e+01 -3.273915e+01 -3.212765e+01 -2.857997e+01 -2.500825e+01 -2.238050e+01 -2.007791e+01 -1.861885e+01 -1.729576e+01 -1.651229e+01 -1.582061e+01 -1.545097e+01 -1.518326e+01 
-1.559767e+01 -1.565201e+01 -1.590986e+01 -1.627542e+01 -1.690367e+01 -1.764127e+01 -1.873834e+01 -1.995816e+01 -2.160221e+01 -2.333820e+01 -2.520678e+01 -2.668722e+01 -2.615407e+01 -2.500648e+01 -2.418288e+01 -2.324264e+01 -2.282369e+01 -2.324264e+01 -2.418288e+01 -2.500648e+01 -2.615407e+01 -2.668722e+01 -2.520678e+01 -2.333820e+01 -2.160221e+01 -1.995816e+01 -1.873834e+01 -1.764127e+01 -1.690367e+01 -1.627542e+01 -1.590986e+01 -1.565201e+01 
-1.604670e+01 -1.608367e+01 -1.636395e+01 -1.671375e+01 -1.734857e+01 -1.804255e+01 -1.907065e+01 -2.014414e+01 -2.151081e+01 -2.286962e+01 -2.413748e+01 -2.511225e+01 -2.483388e+01 -2.376914e+01 -2.167652e+01 -2.026798e+01 -1.969625e+01 -2.026798e+01 -2.167652e+01 -2.376914e+01 -2.483388e+01 -2.511225e+01 -2.413748e+01 -2.286962e+01 -2.151081e+01 -2.014414e+01 -1.907065e+01 -1.804255e+01 -1.734857e+01 -1.671375e+01 -1.636395e+01 -1.608367e+01 
-1.622402e+01 -1.626773e+01 -1.651999e+01 -1.685683e+01 -1.741886e+01 -1.805500e+01 -1.891866e+01 -1.982598e+01 -2.087396e+01 -2.186971e+01 -2.268966e+01 -2.322527e+01 -2.298569e+01 -2.237231e+01 -2.162838e+01 -2.096855e+01 -2.072981e+01 -2.096855e+01 -2.162838e+01 -2.237231e+01 -2.298569e+01 -2.322527e+01 -2.268966e+01 -2.186971e+01 -2.087396e+01 -1.982598e+01 -1.891866e+01 -1.805500e+01 -1.741886e+01 -1.685683e+01 -1.651999e+01 -1.626773e+01 
-1.647713e+01 -1.650630e+01 -1.677905e+01 -1.710590e+01 -1.768420e+01 -1.830295e+01 -1.915212e+01 -2.001022e+01 -2.096908e+01 -2.185581e+01 -2.249677e+01 -2.289331e+01 -2.253658e+01 -2.186127e+01 -2.059683e+01 -1.976047e+01 -1.929524e+01 -1.976047e+01 -2.059683e+01 -2.186127e+01 -2.253658e+01 -2.289331e+01 -2.249677e+01 -2.185581e+01 -2.096908e+01 -2.001022e+01 -1.915212e+01 -1.830295e+01 -1.768420e+01 -1.710590e+01 -1.677905e+01 -1.650630e+01 
