# vtk DataFile Version 2.0
Comment goes here
ASCII

DATASET STRUCTURED_POINTS
FIELD FieldData 1
TIME 1 1 double
0.58000000
DIMENSIONS    32   32   1

ORIGIN    0.000   0.000   0.000
SPACING   0.03125 0.03125   1.000

POINT_DATA   1024
SCALARS P double
LOOKUP_TABLE default

-1.487349e+01 -1.454472e+01 -1.468852e+01 -1.419615e+01 -1.413704e+01 -1.351736e+01 -1.324517e+01 -1.256751e+01 -1.209734e+01 -1.147932e+01 -1.086106e+01 -1.041702e+01 -9.644531e+00 -9.281798e+00 -8.227101e+00 -7.800323e+00 -6.936460e+00 -7.800323e+00 -8.227101e+00 -9.281798e+00 -9.644531e+00 -1.041702e+01 -1.086106e+01 -1.147932e+01 -1.209734e+01 -1.256751e+01 -1.324517e+01 -1.351736e+01 -1.413704e+01 -1.419615e+01 -1.468852e+01 -1.454472e+01 
-1.491328e+01 -1.461324e+01 -1.473318e+01 -1.427187e+01 -1.419666e+01 -1.360804e+01 -1.333035e+01 -1.268153e+01 -1.221823e+01 -1.162698e+01 -1.103249e+01 -1.062707e+01 -9.925610e+00 -9.644435e+00 -8.706678e+00 -8.355039e+00 -7.551348e+00 -8.355039e+00 -8.706678e+00 -9.644435e+00 -9.925610e+00 -1.062707e+01 -1.103249e+01 -1.162698e+01 -1.221823e+01 -1.268153e+01 -1.333035e+01 -1.360804e+01 -1.419666e+01 -1.427187e+01 -1.473318e+01 -1.461324e+01 
-1.506077e+01 -1.472212e+01 -1.487749e+01 -1.437244e+01 -1.432735e+01 -1.368703e+01 -1.342716e+01 -1.271656e+01 -1.224850e+01 -1.158647e+01 -1.095863e+01 -1.050190e+01 -9.739302e+00 -9.463572e+00 -8.518359e+00 -8.192661e+00 -7.405431e+00 -8.192661e+00 -8.518359e+00 -9.463572e+00 -9.739302e+00 -1.050190e+01 -1.095863e+01 -1.158647e+01 -1.224850e+01 -1.271656e+01 -1.342716e+01 -1.368703e+01 -1.432735e+01 -1.437244e+01 -1.487749e+01 -1.472212e+01 
-1.527718e+01 -1.496009e+01 -1.510049e+01 -1.461615e+01 -1.456539e+01 -1.393508e+01 -1.367505e+01 -1.295146e+01 -1.247588e+01 -1.177180e+01 -1.112134e+01 -1.065143e+01 -9.947294e+00 -9.822590e+00 -9.068523e+00 -8.924591e+00 -8.221601e+00 -8.924591e+00 -9.068523e+00 -9.822590e+00 -9.947294e+00 -1.065143e+01 -1.112134e+01 -1.177180e+01 -1.247588e+01 -1.295146e+01 -1.367505e+01 -1.393508e+01 -1.456539e+01 -1.461615e+01 -1.510049e+01 -1.496009e+01 
-1.561680e+01 -1.525390e+01 -1.544453e+01 -1.490847e+01 -1.490835e+01 -1.420544e+01 -1.397620e+01 -1.314360e+01 -1.264467e+01 -1.177712e+01 -1.103780e+01 -1.037490e+01 -9.411266e+00 -9.156521e+00 -8.163107e+00 -8.029482e+00 -7.229403e+00 -8.029482e+00 -8.163107e+00 -9.156521e+00 -9.411266e+00 -1.037490e+01 -1.103780e+01 -1.177712e+01 -1.264467e+01 -1.314360e+01 -1.397620e+01 -1.420544e+01 -1.490835e+01 -1.490847e+01 -1.544453e+01 -1.525390e+01 
-1.599696e+01 -1.565648e+01 -1.583995e+01 -1.532595e+01 -1.533331e+01 -1.462593e+01 -1.440252e+01 -1.349911e+01 -1.295719e+01 -1.189567e+01 -1.098114e+01 -1.011479e+01 -9.143075e+00 -8.997273e+00 -8.071171e+00 -8.096085e+00 -7.218670e+00 -8.096085e+00 -8.071171e+00 -8.997273e+00 -9.143075e+00 -1.011479e+01 -1.098114e+01 -1.189567e+01 -1.295719e+01 -1.349911e+01 -1.440252e+01 -1.462593e+01 -1.533331e+01 -1.532595e+01 -1.583995e+01 -1.565648e+01 
-1.652682e+01 -1.614333e+01 -1.639768e+01 -1.584030e+01 -1.593823e+01 -1.514640e+01 -1.499230e+01 -1.392884e+01 -1.334989e+01 -1.201682e+01 -1.108007e+01 -9.804600e+00 -8.200583e+00 -7.453758e+00 -5.832497e+00 -5.804547e+00 -4.760997e+00 -5.804547e+00 -5.832497e+00 -7.453758e+00 -8.200583e+00 -9.804600e+00 -1.108007e+01 -1.201682e+01 -1.334989e+01 -1.392884e+01 -1.499230e+01 -1.514640e+01 -1.593823e+01 -1.584030e+01 -1.639768e+01 -1.614333e+01 
-1.706063e+01 -1.671333e+01 -1.697084e+01 -1.646259e+01 -1.659762e+01 -1.582112e+01 -1.572561e+01 -1.457145e+01 -1.399937e+01 -1.220707e+01 -1.078309e+01 -8.946190e+00 -7.573995e+00 -7.364197e+00 -5.993020e+00 -5.932093e+00 -4.620816e+00 -5.932093e+00 -5.993020e+00 -7.364197e+00 -7.573995e+00 -8.946190e+00 -1.078309e+01 -1.220707e+01 -1.399937e+01 -1.457145e+01 -1.572561e+01 -1.582112e+01 -1.659762e+01 -1.646259e+01 -1.697084e+01 -1.671333e+01 
-1.776454e+01 -1.739754e+01 -1.775279e+01 -1.724433e+01 -1.755356e+01 -1.671515e+01 -1.682890e+01 -1.550422e+01 -1.490531e+01 -1.260533e+01 -1.183719e+01 -9.846509e+00 -6.419255e+00 -3.265477e+00 1.620773e+00 2.976842e+00 5.073351e+00 2.976842e+00 1.620773e+00 -3.265477e+00 -6.419255e+00 -9.846509e+00 -1.183719e+01 -1.260533e+01 -1.490531e+01 -1.550422e+01 -1.682890e+01 -1.671515e+01 -1.755356e+01 -1.724433e+01 -1.775279e+01 -1.739754e+01 
-1.843362e+01 -1.812884e+01 -1.850080e+01 -1.810390e+01 -1.850329e+01 -1.778488e+01 -1.816720e+01 -1.702719e+01 -1.683069e+01 -1.363353e+01 -8.499275e+00 2.851490e+00 1.677588e+01 2.434471e+01 3.141029e+01 3.375182e+01 3.525194e+01 3.375182e+01 3.141029e+01 2.434471e+01 1.677588e+01 2.851490e+00 -8.499275e+00 -1.363353e+01 -1.683069e+01 -1.702719e+01 -1.816720e+01 -1.778488e+01 -1.850329e+01 -1.810390e+01 -1.850080e+01 -1.812884e+01 
-1.921796e+01 -1.895556e+01 -1.943359e+01 -1.913805e+01 -1.986813e+01 -1.922720e+01 -2.036457e+01 -1.925406e+01 -1.648229e+01 -2.183548e+00 1.849288e+01 3.314285e+01 4.364764e+01 4.557236e+01 4.646590e+01 4.612040e+01 4.646807e+01 4.612040e+01 4.646590e+01 4.557236e+01 4.364764e+01 3.314285e+01 1.849288e+01 -2.183548e+00 -1.648229e+01 -1.925406e+01 -2.036457e+01 -1.922720e+01 -1.986813e+01 -1.913805e+01 -1.943359e+01 -1.895556e+01 
-1.990143e+01 -1.973642e+01 -2.024020e+01 -2.013929e+01 -2.098503e+01 -2.059449e+01 -2.248567e+01 -1.957895e+01 -3.326081e+00 2.636723e+01 4.524709e+01 4.826021e+01 4.835016e+01 4.656947e+01 4.635427e+01 4.516855e+01 4.584218e+01 4.516855e+01 4.635427e+01 4.656947e+01 4.835016e+01 4.826021e+01 4.524709e+01 2.636723e+01 -3.326081e+00 -1.957895e+01 -2.248567e+01 -2.059449e+01 -2.098503e+01 -2.013929e+01 -2.024020e+01 -1.973642e+01 
-2.043049e+01 -2.045350e+01 -2.090826e+01 -2.104421e+01 -2.215047e+01 -2.175459e+01 -2.623636e+01 -7.203628e+00 2.621655e+01 4.778994e+01 5.051488e+01 4.877268e+01 4.865225e+01 4.744423e+01 4.801651e+01 4.721957e+01 4.796999e+01 4.721957e+01 4.801651e+01 4.744423e+01 4.865225e+01 4.877268e+01 5.051488e+01 4.778994e+01 2.621655e+01 -7.203628e+00 -2.623636e+01 -2.175459e+01 -2.215047e+01 -2.104421e+01 -2.090826e+01 -2.045350e+01 
-2.073709e+01 -2.092188e+01 -2.131465e+01 -2.172934e+01 -2.271373e+01 -2.304699e+01 -2.339517e+01 1.445546e+01 4.997467e+01 5.270182e+01 5.198269e+01 5.003279e+01 5.003410e+01 4.823354e+01 4.852004e+01 4.720700e+01 4.800009e+01 4.720700e+01 4.852004e+01 4.823354e+01 5.003410e+01 5.003279e+01 5.198269e+01 5.270182e+01 4.997467e+01 1.445546e+01 -2.339517e+01 -2.304699e+01 -2.271373e+01 -2.172934e+01 -2.131465e+01 -2.092188e+01 
-2.057244e+01 -2.120692e+01 -2.100362e+01 -2.225329e+01 -2.142797e+01 -2.421340e+01 -1.276298e+01 3.288005e+01 5.613750e+01 5.207974e+01 5.282127e+01 4.998170e+01 5.057659e+01 4.875000e+01 4.943457e+01 4.817776e+01 4.909974e+01 4.817776e+01 4.943457e+01 4.875000e+01 5.057659e+01 4.998170e+01 5.282127e+01 5.207974e+01 5.613750e+01 3.288005e+01 -1.276298e+01 -2.421340e+01 -2.142797e+01 -2.225329e+01 -2.100362e+01 -2.120692e+01 
-2.030615e+01 -2.110020e+01 -2.059173e+01 -2.191316e+01 -2.020379e+01 -2.243066e+01 -4.188135e+00 4.503793e+01 5.749516e+01 5.246315e+01 5.349173e+01 5.046525e+01 5.114504e+01 4.906442e+01 4.965020e+01 4.818556e+01 4.911088e+01 4.818556e+01 4.965020e+01 4.906442e+01 5.114504e+01 5.046525e+01 5.349173e+01 5.246315e+01 5.749516e+01 4.503793e+01 -4.188135e+00 -2.243066e+01 -2.020379e+01 -2.191316e+01 -2.059173e+01 -2.110020e+01 
-2.017673e+01 -2.101731e+01 -2.044893e+01 -2.152954e+01 -1.994097e+01 -2.083617e+01 -5.577550e-01 4.975516e+01 5.844231e+01 5.274952e+01 5.387997e+01 5.048874e+01 5.135577e+01 4.922431e+01 4.998681e+01 4.854779e+01 4.955034e+01 4.854779e+01 4.998681e+01 4.922431e+01 5.135577e+01 5.048874e+01 5.387997e+01 5.274952e+01 5.844231e+01 4.975516e+01 -5.577550e-01 -2.083617e+01 -1.994097e+01 -2.152954e+01 -2.044893e+01 -2.101731e+01 
-2.030615e+01 -2.110020e+01 -2.059173e+01 -2.191316e+01 -2.020379e+01 -2.243066e+01 -4.188135e+00 4.503793e+01 5.749516e+01 5.246315e+01 5.349173e+01 5.046525e+01 5.114504e+01 4.906442e+01 4.965020e+01 4.818556e+01 4.911088e+01 4.818556e+01 4.965020e+01 4.906442e+01 5.114504e+01 5.046525e+01 5.349173e+01 5.246315e+01 5.749516e+01 4.503793e+01 -4.188135e+00 -2.243066e+01 -2.020379e+01 -2.191316e+01 -2.059173e+01 -2.110020e+01 
-2.057244e+01 -2.120692e+01 -2.100362e+01 -2.225329e+01 -2.142797e+01 -2.421340e+01 -1.276298e+01 3.288005e+01 5.613750e+01 5.207974e+01 5.282127e+01 4.998170e+01 5.057659e+01 4.875000e+01 4.943457e+01 4.817776e+01 4.909974e+01 4.817776e+01 4.943457e+01 4.875000e+01 5.057659e+01 4.998170e+01 5.282127e+01 5.207974e+01 5.613750e+01 3.288005e+01 -1.276298e+01 -2.421340e+01 -2.142797e+01 -2.225329e+01 -2.100362e+01 -2.120692e+01 
-2.073709e+01 -2.092188e+01 -2.131465e+01 -2.172934e+01 -2.271373e+01 -2.304699e+01 -2.339517e+01 1.445546e+01 4.997467e+01 5.270182e+01 5.198269e+01 5.003279e+01 5.003410e+01 4.823354e+01 4.852004e+01 4.720700e+01 4.800009e+01 4.720700e+01 4.852004e+01 4.823354e+01 5.003410e+01 5.003279e+01 5.198269e+01 5.270182e+01 4.997467e+01 1.445546e+01 -2.339517e+01 -2.304699e+01 -2.271373e+01 -2.172934e+01 -2.131465e+01 -2.092188e+01 
-2.043049e+01 -2.045350e+01 -2.090826e+01 -2.104421e+01 -2.215047e+01 -2.175459e+01 -2.623636e+01 -7.203628e+00 2.621655e+01 4.778994e+01 5.051488e+01 4.877268e+01 4.865225e+01 4.744423e+01 4.801651e+01 4.721957e+01 4.796999e+01 4.721957e+01 4.801651e+01 4.744423e+01 4.865225e+01 4.877268e+01 5.051488e+01 4.778994e+01 2.621655e+01 -7.203628e+00 -2.623636e+01 -2.175459e+01 -2.215047e+01 -2.104421e+01 -2.090826e+01 -2.045350e+01 
-1.990143e+01 -1.973642e+01 -2.024020e+01 -2.013929e+01 -2.098503e+01 -2.059449e+01 -2.248567e+01 -1.957895e+01 -3.326081e+00 2.636723e+01 4.524709e+01 4.826021e+01 4.835016e+01 4.656947e+01 4.635427e+01 4.516855e+01 4.584218e+01 4.516855e+01 4.635427e+01 4.656947e+01 4.835016e+01 4.826021e+01 4.524709e+01 2.636723e+01 -3.326081e+00 -1.957895e+01 -2.248567e+01 -2.059449e+01 -2.098503e+01 -2.013929e+01 -2.024020e+01 -1.973642e+01 
-1.921796e+01 -1.895556e+01 -1.943359e+01 -1.913805e+01 -1.986813e+01 -1.922720e+01 -2.036457e+01 -1.925406e+01 -1.648229e+01 -2.183548e+00 1.849288e+01 3.314285e+01 4.364764e+01 4.557236e+01 4.646590e+01 4.612040e+01 4.646807e+01 4.612040e+01 4.646590e+01 4.557236e+01 4.364764e+01 3.314285e+01 1.849288e+01 -2.183548e+00 -1.648229e+01 -1.925406e+01 -2.036457e+01 -1.922720e+01 -1.986813e+01 -1.913805e+01 -1.943359e+01 -1.895556e+01 
-1.843362e+01 -1.812884e+01 -1.850080e+01 -1.810390e+01 -1.850329e+01 -1.778488e+01 -1.816720e+01 -1.702719e+01 -1.683069e+01 -1.363353e+01 -8.499275e+00 2.851490e+00 1.677588e+01 2.434471e+01 3.141029e+01 3.375182e+01 3.525194e+01 3.375182e+01 3.141029e+01 2.434471e+01 1.677588e+01 2.851490e+00 -8.499275e+00 -1.363353e+01 -1.683069e+01 -1.702719e+01 -1.816720e+01 -1.778488e+01 -1.850329e+01 -1.810390e+01 -1.850080e+01 -1.812884e+01 
-1.776454e+01 -1.739754e+01 -1.775279e+01 -1.724433e+01 -1.755356e+01 -1.671515e+01 -1.682890e+01 -1.550422e+01 -1.490531e+01 -1.260533e+01 -1.183719e+01 -9.846509e+00 -6.419255e+00 -3.265477e+00 1.620773e+00 2.976842e+00 5.073351e+00 2.976842e+00 1.620773e+00 -3.265477e+00 -6.419255e+00 -9.846509e+00 -1.183719e+01 -1.260533e+01 -1.490531e+01 -1.550422e+01 -1.682890e+01 -1.671515e+01 -1.755356e+01 -1.724433e+01 -1.775279e+01 -1.739754e+01 
-1.706063e+01 -1.671333e+01 -1.697084e+01 -1.646259e+01 -1.659762e+01 -1.582112e+01 -1.572561e+01 -1.457145e+01 -1.399937e+01 -1.220707e+01 -1.078309e+01 -8.946190e+00 -7.573995e+00 -7.364197e+00 -5.993020e+00 -5.932093e+00 -4.620816e+00 -5.932093e+00 -5.993020e+00 -7.364197e+00 -7.573995e+00 -8.946190e+00 -1.078309e+01 -1.220707e+01 -1.399937e+01 -1.457145e+01 -1.572561e+01 -1.582112e+01 -1.659762e+01 -1.646259e+01 -1.697084e+01 -1.671333e+01 
-1.652682e+01 -1.614333e+01 -1.639768e+01 -1.584030e+01 -1.593823e+01 -1.514640e+01 -1.499230e+01 -1.392884e+01 -1.334989e+01 -1.201682e+01 -1.108007e+01 -9.804600e+00 -8.200583e+00 -7.453758e+00 -5.832497e+00 -5.804547e+00 -4.760997e+00 -5.804547e+00 -5.832497e+00 -7.453758e+00 -8.200583e+00 -9.804600e+00 -1.108007e+01 -1.201682e+01 -1.334989e+01 -1.392884e+01 -1.499230e+01 -1.514640e+01 -1.593823e+01 -1.584030e+01 -1.639768e+01 -1.614333e+01 
-1.599696e+01 -1.565648e+01 -1.583995e+01 -1.532595e+01 -1.533331e+01 -1.462593e+01 -1.440252e+01 -1.349911e+01 -1.295719e+01 -1.189567e+01 -1.098114e+01 -1.011479e+01 -9.143075e+00 -8.997273e+00 -8.071171e+00 -8.096085e+00 -7.218670e+00 -8.096085e+00 -8.071171e+00 -8.997273e+00 -9.143075e+00 -1.011479e+01 -1.098114e+01 -1.189567e+01 -1.295719e+01 -1.349911e+01 -1.440252e+01 -1.462593e+01 -1.533331e+01 -1.532595e+01 -1.583995e+01 -1.565648e+01 
-1.561680e+01 -1.525390e+01 -1.544453e+01 -1.490847e+01 -1.490835e+01 -1.420544e+01 -1.397620e+01 -1.314360e+01 -1.264467e+01 -1.177712e+01 -1.103780e+01 -1.037490e+01 -9.411266e+00 -9.156521e+00 -8.163107e+00 -8.029482e+00 -7.229403e+00 -8.029482e+00 -8.163107e+00 -9.156521e+00 -9.411266e+00 -1.037490e+01 -1.103780e+01 -1.177712e+01 -1.264467e+01 -1.314360e+01 -1.397620e+01 -1.420544e+01 -1.490835e+01 -1.490847e+01 -1.544453e+01 -1.525390e+01 
-1.527718e+01 -1.496009e+01 -1.510049e+01 -1.461615e+01 -1.456539e+01 -1.393508e+01 -1.367505e+01 -1.295146e+01 -1.247588e+01 -1.177180e+01 -1.112134e+01 -1.065143e+01 -9.947294e+00 -9.822590e+00 -9.068523e+00 -8.924591e+00 -8.221601e+00 -8.924591e+00 -9.068523e+00 -9.822590e+00 -9.947294e+00 -1.065143e+01 -1.112134e+01 -1.177180e+01 -1.247588e+01 -1.295146e+01 -1.367505e+01 -1.393508e+01 -1.456539e+01 -1.461615e+01 -1.510049e+01 -1.496009e+01 
-1.506077e+01 -1.472212e+01 -1.487749e+01 -1.437244e+01 -1.432735e+01 -1.368703e+01 -1.342716e+01 -1.271656e+01 -1.224850e+01 -1.158647e+01 -1.095863e+01 -1.050190e+01 -9.739302e+00 -9.463572e+00 -8.518359e+00 -8.192661e+00 -7.405431e+00 -8.192661e+00 -8.518359e+00 -9.463572e+00 -9.739302e+00 -1.050190e+01 -1.095863e+01 -1.158647e+01 -1.224850e+01 -1.271656e+01 -1.342716e+01 -1.368703e+01 -1.432735e+01 -1.437244e+01 -1.487749e+01 -1.472212e+01 
-1.491328e+01 -1.461324e+01 -1.473318e+01 -1.427187e+01 -1.419666e+01 -1.360804e+01 -1.333035e+01 -1.268153e+01 -1.221823e+01 -1.162698e+01 -1.103249e+01 -1.062707e+01 -9.925610e+00 -9.644435e+00 -8.706678e+00 -8.355039e+00 -7.551348e+00 -8.355039e+00 -8.706678e+00 -9.644435e+00 -9.925610e+00 -1.062707e+01 -1.103249e+01 -1.162698e+01 -1.221823e+01 -1.268153e+01 -1.333035e+01 -1.360804e+01 -1.419666e+01 -1.427187e+01 -1.473318e+01 -1.461324e+01 
