# vtk DataFile Version 2.0
Comment goes here
ASCII

DATASET STRUCTURED_POINTS
FIELD FieldData 1
TIME 1 1 double
0.08000000
DIMENSIONS    32   32   1

ORIGIN    0.000   0.000   0.000
SPACING   0.03125 0.03125   1.000

POINT_DATA   1024
SCALARS P double
LOOKUP_TABLE default

-1.673043e+01 -1.669796e+01 -1.629431e+01 -1.582610e+01 -1.505652e+01 -1.422773e+01 -1.322349e+01 -1.217529e+01 -1.110013e+01 -9.994988e+00 -9.003488e+00 -7.991792e+00 -7.214581e+00 -6.467948e+00 -6.031636e+00 -5.698198e+00 -5.624384e+00 -5.698198e+00 -6.031636e+00 -6.467948e+00 -7.214581e+00 -7.991792e+00 -9.003488e+00 -9.994988e+00 -1.110013e+01 -1.217529e+01 -1.322349e+01 -1.422773e+01 -1.505652e+01 -1.582610e+01 -1.629431e+01 -1.669796e+01 
-1.684392e+01 -1.682680e+01 -1.639395e+01 -1.592307e+01 -1.511290e+01 -1.425867e+01 -1.320436e+01 -1.210763e+01 -1.097360e+01 -9.805825e+00 -8.745305e+00 -7.680416e+00 -6.844278e+00 -6.073386e+00 -5.594368e+00 -5.271455e+00 -5.167632e+00 -5.271455e+00 -5.594368e+00 -6.073386e+00 -6.844278e+00 -7.680416e+00 -8.745305e+00 -9.805825e+00 -1.097360e+01 -1.210763e+01 -1.320436e+01 -1.425867e+01 -1.511290e+01 -1.592307e+01 -1.639395e+01 -1.682680e+01 
-1.717449e+01 -1.714149e+01 -1.670197e+01 -1.619502e+01 -1.535850e+01 -1.445784e+01 -1.337058e+01 -1.224012e+01 -1.108682e+01 -9.906571e+00 -8.851137e+00 -7.756907e+00 -6.920109e+00 -6.106301e+00 -5.674156e+00 -5.323128e+00 -5.249094e+00 -5.323128e+00 -5.674156e+00 -6.106301e+00 -6.920109e+00 -7.756907e+00 -8.851137e+00 -9.906571e+00 -1.108682e+01 -1.224012e+01 -1.337058e+01 -1.445784e+01 -1.535850e+01 -1.619502e+01 -1.670197e+01 -1.714149e+01 
-1.776018e+01 -1.774626e+01 -1.723909e+01 -1.669559e+01 -1.574947e+01 -1.475207e+01 -1.353133e+01 -1.226198e+01 -1.097375e+01 -9.632582e+00 -8.424624e+00 -7.175437e+00 -6.218218e+00 -5.324805e+00 -4.875371e+00 -4.535504e+00 -4.443690e+00 -4.535504e+00 -4.875371e+00 -5.324805e+00 -6.218218e+00 -7.175437e+00 -8.424624e+00 -9.632582e+00 -1.097375e+01 -1.226198e+01 -1.353133e+01 -1.475207e+01 -1.574947e+01 -1.669559e+01 -1.723909e+01 -1.774626e+01 
-1.858201e+01 -1.854911e+01 -1.799650e+01 -1.736797e+01 -1.631530e+01 -1.517627e+01 -1.381948e+01 -1.242548e+01 -1.102904e+01 -9.639741e+00 -8.405789e+00 -7.046809e+00 -6.012438e+00 -5.008707e+00 -4.520692e+00 -4.143696e+00 -4.006517e+00 -4.143696e+00 -4.520692e+00 -5.008707e+00 -6.012438e+00 -7.046809e+00 -8.405789e+00 -9.639741e+00 -1.102904e+01 -1.242548e+01 -1.381948e+01 -1.517627e+01 -1.631530e+01 -1.736797e+01 -1.799650e+01 -1.854911e+01 
-1.974075e+01 -1.973749e+01 -1.907172e+01 -1.837688e+01 -1.712657e+01 -1.580148e+01 -1.420551e+01 -1.256528e+01 -1.097751e+01 -9.301259e+00 -7.786252e+00 -6.112570e+00 -4.839736e+00 -3.656951e+00 -3.044650e+00 -2.774547e+00 -2.618811e+00 -2.774547e+00 -3.044650e+00 -3.656951e+00 -4.839736e+00 -6.112570e+00 -7.786252e+00 -9.301259e+00 -1.097751e+01 -1.256528e+01 -1.420551e+01 -1.580148e+01 -1.712657e+01 -1.837688e+01 -1.907172e+01 -1.973749e+01 
-2.118924e+01 -2.116491e+01 -2.041133e+01 -1.957200e+01 -1.810188e+01 -1.646503e+01 -1.457267e+01 -1.265751e+01 -1.081810e+01 -9.201540e+00 -7.764698e+00 -5.830396e+00 -4.293768e+00 -2.809312e+00 -2.211348e+00 -1.964739e+00 -1.858058e+00 -1.964739e+00 -2.211348e+00 -2.809312e+00 -4.293768e+00 -5.830396e+00 -7.764698e+00 -9.201540e+00 -1.081810e+01 -1.265751e+01 -1.457267e+01 -1.646503e+01 -1.810188e+01 -1.957200e+01 -2.041133e+01 -2.116491e+01 
-2.309955e+01 -2.312658e+01 -2.221470e+01 -2.130038e+01 -1.949753e+01 -1.752185e+01 -1.519170e+01 -1.290390e+01 -1.097268e+01 -8.906478e+00 -6.912720e+00 -4.241296e+00 -2.193573e+00 -4.756933e-01 1.636593e-03 -2.691600e-01 -3.503796e-01 -2.691600e-01 1.636593e-03 -4.756933e-01 -2.193573e+00 -4.241296e+00 -6.912720e+00 -8.906478e+00 -1.097268e+01 -1.290390e+01 -1.519170e+01 -1.752185e+01 -1.949753e+01 -2.130038e+01 -2.221470e+01 -2.312658e+01 
-2.541177e+01 -2.542856e+01 -2.441016e+01 -2.333414e+01 -2.113515e+01 -1.846614e+01 -1.556172e+01 -1.260537e+01 -9.951671e+00 -8.249411e+00 -6.699235e+00 -3.770198e+00 -1.325166e+00 1.140997e+00 1.570628e+00 9.877554e-01 8.824668e-01 9.877554e-01 1.570628e+00 1.140997e+00 -1.325166e+00 -3.770198e+00 -6.699235e+00 -8.249411e+00 -9.951671e+00 -1.260537e+01 -1.556172e+01 -1.846614e+01 -2.113515e+01 -2.333414e+01 -2.441016e+01 -2.542856e+01 
-2.832369e+01 -2.842897e+01 -2.728108e+01 -2.625047e+01 -2.350544e+01 -2.012013e+01 -1.618980e+01 -1.251480e+01 -1.072720e+01 -9.127155e+00 -6.388579e+00 -7.836903e-01 3.637036e+00 7.226701e+00 7.511555e+00 4.729040e+00 3.330484e+00 4.729040e+00 7.511555e+00 7.226701e+00 3.637036e+00 -7.836903e-01 -6.388579e+00 -9.127155e+00 -1.072720e+01 -1.251480e+01 -1.618980e+01 -2.012013e+01 -2.350544e+01 -2.625047e+01 -2.728108e+01 -2.842897e+01 
-3.179378e+01 -3.193278e+01 -3.085609e+01 -3.002969e+01 -2.662324e+01 -2.169556e+01 -1.689233e+01 -1.124621e+01 -4.920351e+00 3.434641e-02 6.970850e+00 1.833905e+01 2.532863e+01 2.824383e+01 2.709923e+01 2.264192e+01 2.021183e+01 2.264192e+01 2.709923e+01 2.824383e+01 2.532863e+01 1.833905e+01 6.970850e+00 3.434641e-02 -4.920351e+00 -1.124621e+01 -1.689233e+01 -2.169556e+01 -2.662324e+01 -3.002969e+01 -3.085609e+01 -3.193278e+01 
-3.588937e+01 -3.616078e+01 -3.545361e+01 -3.549719e+01 -3.156386e+01 -2.453885e+01 -1.131669e+01 1.010980e+01 2.667893e+01 3.241389e+01 3.526981e+01 3.999992e+01 4.033194e+01 3.864611e+01 3.640442e+01 3.358147e+01 3.221733e+01 3.358147e+01 3.640442e+01 3.864611e+01 4.033194e+01 3.999992e+01 3.526981e+01 3.241389e+01 2.667893e+01 1.010980e+01 -1.131669e+01 -2.453885e+01 -3.156386e+01 -3.549719e+01 -3.545361e+01 -3.616078e+01 
-4.043781e+01 -4.076575e+01 -4.123784e+01 -4.316303e+01 -3.701911e+01 -1.293471e+01 2.168243e+01 4.851674e+01 5.425046e+01 4.951826e+01 4.549362e+01 4.399344e+01 4.187303e+01 3.995270e+01 3.803689e+01 3.609749e+01 3.526927e+01 3.609749e+01 3.803689e+01 3.995270e+01 4.187303e+01 4.399344e+01 4.549362e+01 4.951826e+01 5.425046e+01 4.851674e+01 2.168243e+01 -1.293471e+01 -3.701911e+01 -4.316303e+01 -4.123784e+01 -4.076575e+01 
-4.478840e+01 -4.512123e+01 -4.697107e+01 -5.095099e+01 -2.776563e+01 2.469827e+01 5.648912e+01 6.128502e+01 5.666003e+01 5.010310e+01 4.612491e+01 4.458084e+01 4.279700e+01 4.133102e+01 3.999938e+01 3.888984e+01 3.843167e+01 3.888984e+01 3.999938e+01 4.133102e+01 4.279700e+01 4.458084e+01 4.612491e+01 5.010310e+01 5.666003e+01 6.128502e+01 5.648912e+01 2.469827e+01 -2.776563e+01 -5.095099e+01 -4.697107e+01 -4.512123e+01 
-4.791888e+01 -4.742688e+01 -5.126707e+01 -5.201145e+01 -7.872045e-02 5.580632e+01 6.346299e+01 5.949513e+01 5.595150e+01 5.129415e+01 4.761396e+01 4.612380e+01 4.425293e+01 4.261055e+01 4.113398e+01 4.016794e+01 3.974777e+01 4.016794e+01 4.113398e+01 4.261055e+01 4.425293e+01 4.612380e+01 4.761396e+01 5.129415e+01 5.595150e+01 5.949513e+01 6.346299e+01 5.580632e+01 -7.872045e-02 -5.201145e+01 -5.126707e+01 -4.742688e+01 
-4.986544e+01 -4.786688e+01 -5.418674e+01 -4.542662e+01 2.191297e+01 6.451025e+01 6.124086e+01 5.994278e+01 5.585652e+01 5.208633e+01 4.832152e+01 4.700950e+01 4.492385e+01 4.344878e+01 4.207447e+01 4.133835e+01 4.097072e+01 4.133835e+01 4.207447e+01 4.344878e+01 4.492385e+01 4.700950e+01 4.832152e+01 5.208633e+01 5.585652e+01 5.994278e+01 6.124086e+01 6.451025e+01 2.191297e+01 -4.542662e+01 -5.418674e+01 -4.786688e+01 
-5.039747e+01 -4.787631e+01 -5.495882e+01 -4.145963e+01 2.826278e+01 6.558529e+01 6.033335e+01 5.965557e+01 5.574801e+01 5.267471e+01 4.906923e+01 4.764907e+01 4.544528e+01 4.382153e+01 4.232996e+01 4.152188e+01 4.113376e+01 4.152188e+01 4.232996e+01 4.382153e+01 4.544528e+01 4.764907e+01 4.906923e+01 5.267471e+01 5.574801e+01 5.965557e+01 6.033335e+01 6.558529e+01 2.826278e+01 -4.145963e+01 -5.495882e+01 -4.787631e+01 
-4.986544e+01 -4.786688e+01 -5.418674e+01 -4.542662e+01 2.191297e+01 6.451025e+01 6.124086e+01 5.994278e+01 5.585652e+01 5.208633e+01 4.832152e+01 4.700950e+01 4.492385e+01 4.344878e+01 4.207447e+01 4.133835e+01 4.097072e+01 4.133835e+01 4.207447e+01 4.344878e+01 4.492385e+01 4.700950e+01 4.832152e+01 5.208633e+01 5.585652e+01 5.994278e+01 6.124086e+01 6.451025e+01 2.191297e+01 -4.542662e+01 -5.418674e+01 -4.786688e+01 
-4.791888e+01 -4.742688e+01 -5.126707e+01 -5.201145e+01 -7.872045e-02 5.580632e+01 6.346299e+01 5.949513e+01 5.595150e+01 5.129415e+01 4.761396e+01 4.612380e+01 4.425293e+01 4.261055e+01 4.113398e+01 4.016794e+01 3.974777e+01 4.016794e+01 4.113398e+01 4.261055e+01 4.425293e+01 4.612380e+01 4.761396e+01 5.129415e+01 5.595150e+01 5.949513e+01 6.346299e+01 5.580632e+01 -7.872045e-02 -5.201145e+01 -5.126707e+01 -4.742688e+01 
-4.478840e+01 -4.512123e+01 -4.697107e+01 -5.095099e+01 -2.776563e+01 2.469827e+01 5.648912e+01 6.128502e+01 5.666003e+01 5.010310e+01 4.612491e+01 4.458084e+01 4.279700e+01 4.133102e+01 3.999938e+01 3.888984e+01 3.843167e+01 3.888984e+01 3.999938e+01 4.133102e+01 4.279700e+01 4.458084e+01 4.612491e+01 5.010310e+01 5.666003e+01 6.128502e+01 5.648912e+01 2.469827e+01 -2.776563e+01 -5.095099e+01 -4.697107e+01 -4.512123e+01 
-4.043781e+01 -4.076575e+01 -4.123784e+01 -4.316303e+01 -3.701911e+01 -1.293471e+01 2.168243e+01 4.851674e+01 5.425046e+01 4.951826e+01 4.549362e+01 4.399344e+01 4.187303e+01 3.995270e+01 3.803689e+01 3.609749e+01 3.526927e+01 3.609749e+01 3.803689e+01 3.995270e+01 4.187303e+01 4.399344e+01 4.549362e+01 4.951826e+01 5.425046e+01 4.851674e+01 2.168243e+01 -1.293471e+01 -3.701911e+01 -4.316303e+01 -4.123784e+01 -4.076575e+01 
-3.588937e+01 -3.616078e+01 -3.545361e+01 -3.549719e+01 -3.156386e+01 -2.453885e+01 -1.131669e+01 1.010980e+01 2.667893e+01 3.241389e+01 3.526981e+01 3.999992e+01 4.033194e+01 3.864611e+01 3.640442e+01 3.358147e+01 3.221733e+01 3.358147e+01 3.640442e+01 3.864611e+01 4.033194e+01 3.999992e+01 3.526981e+01 3.241389e+01 2.667893e+01 1.010980e+01 -1.131669e+01 -2.453885e+01 -3.156386e+01 -3.549719e+01 -3.545361e+01 -3.616078e+01 
-3.179378e+01 -3.193278e+01 -3.085609e+01 -3.002969e+01 -2.662324e+01 -2.169556e+01 -1.689233e+01 -1.124621e+01 -4.920351e+00 3.434641e-02 6.970850e+00 1.833905e+01 2.532863e+01 2.824383e+01 2.709923e+01 2.264192e+01 2.021183e+01 2.264192e+01 2.709923e+01 2.824383e+01 2.532863e+01 1.833905e+01 6.970850e+00 3.434641e-02 -4.920351e+00 -1.124621e+01 -1.689233e+01 -2.169556e+01 -2.662324e+01 -3.002969e+01 -3.085609e+01 -3.193278e+01 
-2.832369e+01 -2.842897e+01 -2.728108e+01 -2.625047e+01 -2.350544e+01 -2.012013e+01 -1.618980e+01 -1.251480e+01 -1.072720e+01 -9.127155e+00 -6.388579e+00 -7.836903e-01 3.637036e+00 7.226701e+00 7.511555e+00 4.729040e+00 3.330484e+00 4.729040e+00 7.511555e+00 7.226701e+00 3.637036e+00 -7.836903e-01 -6.388579e+00 -9.127155e+00 -1.072720e+01 -1.251480e+01 -1.618980e+01 -2.012013e+01 -2.350544e+01 -2.625047e+01 -2.728108e+01 -2.842897e+01 
-2.541177e+01 -2.542856e+01 -2.441016e+01 -2.333414e+01 -2.113515e+01 -1.846614e+01 -1.556172e+01 -1.260537e+01 -9.951671e+00 -8.249411e+00 -6.699235e+00 -3.770198e+00 -1.325166e+00 1.140997e+00 1.570628e+00 9.877554e-01 8.824668e-01 9.877554e-01 1.570628e+00 1.140997e+00 -1.325166e+00 -3.770198e+00 -6.699235e+00 -8.249411e+00 -9.951671e+00 -1.260537e+01 -1.556172e+01 -1.846614e+01 -2.113515e+01 -2.333414e+01 -2.441016e+01 -2.542856e+01 
-2.309955e+01 -2.312658e+01 -2.221470e+01 -2.130038e+01 -1.949753e+01 -1.752185e+01 -1.519170e+01 -1.290390e+01 -1.097268e+01 -8.906478e+00 -6.912720e+00 -4.241296e+00 -2.193573e+00 -4.756933e-01 1.636593e-03 -2.691600e-01 -3.503796e-01 -2.691600e-01 1.636593e-03 -4.756933e-01 -2.193573e+00 -4.241296e+00 -6.912720e+00 -8.906478e+00 -1.097268e+01 -1.290390e+01 -1.519170e+01 -1.752185e+01 -1.949753e+01 -2.130038e+01 -2.221470e+01 -2.312658e+01 
-2.118924e+01 -2.116491e+01 -2.041133e+01 -1.957200e+01 -1.810188e+01 -1.646503e+01 -1.457267e+01 -1.265751e+01 -1.081810e+01 -9.201540e+00 -7.764698e+00 -5.830396e+00 -4.293768e+00 -2.809312e+00 -2.211348e+00 -1.964739e+00 -1.858058e+00 -1.964739e+00 -2.211348e+00 -2.809312e+00 -4.293768e+00 -5.830396e+00 -7.764698e+00 -9.201540e+00 -1.081810e+01 -1.265751e+01 -1.457267e+01 -1.646503e+01 -1.810188e+01 -1.957200e+01 -2.041133e+01 -2.116491e+01 
-1.974075e+01 -1.973749e+01 -1.907172e+01 -1.837688e+01 -1.712657e+01 -1.580148e+01 -1.420551e+01 -1.256528e+01 -1.097751e+01 -9.301259e+00 -7.786252e+00 -6.112570e+00 -4.839736e+00 -3.656951e+00 -3.044650e+00 -2.774547e+00 -2.618811e+00 -2.774547e+00 -3.044650e+00 -3.656951e+00 -4.839736e+00 -6.112570e+00 -7.786252e+00 -9.301259e+00 -1.097751e+01 -1.256528e+01 -1.420551e+01 -1.580148e+01 -1.712657e+01 -1.837688e+01 -1.907172e+01 -1.973749e+01 
-1.858201e+01 -1.854911e+01 -1.799650e+01 -1.736797e+01 -1.631530e+01 -1.517627e+01 -1.381948e+01 -1.242548e+01 -1.102904e+01 -9.639741e+00 -8.405789e+00 -7.046809e+00 -6.012438e+00 -5.008707e+00 -4.520692e+00 -4.143696e+00 -4.006517e+00 -4.143696e+00 -4.520692e+00 -5.008707e+00 -6.012438e+00 -7.046809e+00 -8.405789e+00 -9.639741e+00 -1.102904e+01 -1.242548e+01 -1.381948e+01 -1.517627e+01 -1.631530e+01 -1.736797e+01 -1.799650e+01 -1.854911e+01 
-1.776018e+01 -1.774626e+01 -1.723909e+01 -1.669559e+01 -1.574947e+01 -1.475207e+01 -1.353133e+01 -1.226198e+01 -1.097375e+01 -9.632582e+00 -8.424624e+00 -7.175437e+00 -6.218218e+00 -5.324805e+00 -4.875371e+00 -4.535504e+00 -4.443690e+00 -4.535504e+00 -4.875371e+00 -5.324805e+00 -6.218218e+00 -7.175437e+00 -8.424624e+00 -9.632582e+00 -1.097375e+01 -1.226198e+01 -1.353133e+01 -1.475207e+01 -1.574947e+01 -1.669559e+01 -1.723909e+01 -1.774626e+01 
-1.717449e+01 -1.714149e+01 -1.670197e+01 -1.619502e+01 -1.535850e+01 -1.445784e+01 -1.337058e+01 -1.224012e+01 -1.108682e+01 -9.906571e+00 -8.851137e+00 -7.756907e+00 -6.920109e+00 -6.106301e+00 -5.674156e+00 -5.323128e+00 -5.249094e+00 -5.323128e+00 -5.674156e+00 -6.106301e+00 -6.920109e+00 -7.756907e+00 -8.851137e+00 -9.906571e+00 -1.108682e+01 -1.224012e+01 -1.337058e+01 -1.445784e+01 -1.535850e+01 -1.619502e+01 -1.670197e+01 -1.714149e+01 
-1.684392e+01 -1.682680e+01 -1.639395e+01 -1.592307e+01 -1.511290e+01 -1.425867e+01 -1.320436e+01 -1.210763e+01 -1.097360e+01 -9.805825e+00 -8.745305e+00 -7.680416e+00 -6.844278e+00 -6.073386e+00 -5.594368e+00 -5.271455e+00 -5.167632e+00 -5.271455e+00 -5.594368e+00 -6.073386e+00 -6.844278e+00 -7.680416e+00 -8.745305e+00 -9.805825e+00 -1.097360e+01 -1.210763e+01 -1.320436e+01 -1.425867e+01 -1.511290e+01 -1.592307e+01 -1.639395e+01 -1.682680e+01 
