# vtk DataFile Version 2.0
Comment goes here
ASCII

DATASET STRUCTURED_POINTS
FIELD FieldData 1
TIME 1 1 double
0.48000000
DIMENSIONS    32   32   1

ORIGIN    0.000   0.000   0.000
SPACING   0.03125 0.03125   1.000

POINT_DATA   1024
SCALARS P double
LOOKUP_TABLE default

-1.566439e+01 -1.569428e+01 -1.589242e+01 -1.615071e+01 -1.658767e+01 -1.708652e+01 -1.777804e+01 -1.853508e+01 -1.948735e+01 -2.050337e+01 -2.164991e+01 -2.278737e+01 -2.377216e+01 -2.455131e+01 -2.483592e+01 -2.504222e+01 -2.496318e+01 -2.504222e+01 -2.483592e+01 -2.455131e+01 -2.377216e+01 -2.278737e+01 -2.164991e+01 -2.050337e+01 -1.948735e+01 -1.853508e+01 -1.777804e+01 -1.708652e+01 -1.658767e+01 -1.615071e+01 -1.589242e+01 -1.569428e+01 
-1.564476e+01 -1.567422e+01 -1.587855e+01 -1.614342e+01 -1.659388e+01 -1.711071e+01 -1.782642e+01 -1.861921e+01 -1.960792e+01 -2.067900e+01 -2.186506e+01 -2.305812e+01 -2.405019e+01 -2.480980e+01 -2.495449e+01 -2.480397e+01 -2.469266e+01 -2.480397e+01 -2.495449e+01 -2.480980e+01 -2.405019e+01 -2.305812e+01 -2.186506e+01 -2.067900e+01 -1.960792e+01 -1.861921e+01 -1.782642e+01 -1.711071e+01 -1.659388e+01 -1.614342e+01 -1.587855e+01 -1.567422e+01 
-1.543893e+01 -1.546926e+01 -1.566414e+01 -1.592090e+01 -1.635853e+01 -1.686342e+01 -1.757618e+01 -1.836698e+01 -1.938985e+01 -2.049338e+01 -2.179088e+01 -2.308666e+01 -2.427067e+01 -2.524270e+01 -2.572755e+01 -2.622474e+01 -2.627091e+01 -2.622474e+01 -2.572755e+01 -2.524270e+01 -2.427067e+01 -2.308666e+01 -2.179088e+01 -2.049338e+01 -1.938985e+01 -1.836698e+01 -1.757618e+01 -1.686342e+01 -1.635853e+01 -1.592090e+01 -1.566414e+01 -1.546926e+01 
-1.518147e+01 -1.521055e+01 -1.540680e+01 -1.566395e+01 -1.611124e+01 -1.663122e+01 -1.738204e+01 -1.823139e+01 -1.935554e+01 -2.060257e+01 -2.210527e+01 -2.366085e+01 -2.510999e+01 -2.639435e+01 -2.653521e+01 -2.612337e+01 -2.597144e+01 -2.612337e+01 -2.653521e+01 -2.639435e+01 -2.510999e+01 -2.366085e+01 -2.210527e+01 -2.060257e+01 -1.935554e+01 -1.823139e+01 -1.738204e+01 -1.663122e+01 -1.611124e+01 -1.566395e+01 -1.540680e+01 -1.521055e+01 
-1.476575e+01 -1.479675e+01 -1.497594e+01 -1.521911e+01 -1.564120e+01 -1.613981e+01 -1.687550e+01 -1.771814e+01 -1.887777e+01 -2.015876e+01 -2.183137e+01 -2.347052e+01 -2.509887e+01 -2.640336e+01 -2.734531e+01 -2.885431e+01 -2.940380e+01 -2.885431e+01 -2.734531e+01 -2.640336e+01 -2.509887e+01 -2.347052e+01 -2.183137e+01 -2.015876e+01 -1.887777e+01 -1.771814e+01 -1.687550e+01 -1.613981e+01 -1.564120e+01 -1.521911e+01 -1.497594e+01 -1.479675e+01 
-1.426916e+01 -1.429672e+01 -1.446538e+01 -1.469018e+01 -1.509679e+01 -1.557430e+01 -1.631534e+01 -1.717776e+01 -1.843216e+01 -1.988667e+01 -2.197303e+01 -2.417071e+01 -2.701954e+01 -3.006287e+01 -2.862735e+01 -2.451929e+01 -2.280279e+01 -2.451929e+01 -2.862735e+01 -3.006287e+01 -2.701954e+01 -2.417071e+01 -2.197303e+01 -1.988667e+01 -1.843216e+01 -1.717776e+01 -1.631534e+01 -1.557430e+01 -1.509679e+01 -1.469018e+01 -1.446538e+01 -1.429672e+01 
-1.367596e+01 -1.370718e+01 -1.384521e+01 -1.404184e+01 -1.439144e+01 -1.481139e+01 -1.547556e+01 -1.628645e+01 -1.748356e+01 -1.896524e+01 -2.134132e+01 -2.333169e+01 -2.218156e+01 -9.610113e+00 1.007020e+01 2.402722e+01 2.882483e+01 2.402722e+01 1.007020e+01 -9.610113e+00 -2.218156e+01 -2.333169e+01 -2.134132e+01 -1.896524e+01 -1.748356e+01 -1.628645e+01 -1.547556e+01 -1.481139e+01 -1.439144e+01 -1.404184e+01 -1.384521e+01 -1.370718e+01 
-1.297726e+01 -1.300326e+01 -1.311099e+01 -1.325800e+01 -1.353927e+01 -1.385383e+01 -1.441332e+01 -1.508206e+01 -1.612176e+01 -1.751604e+01 -1.956929e+01 -1.499490e+01 8.060048e+00 3.612701e+01 5.342982e+01 6.058475e+01 6.241955e+01 6.058475e+01 5.342982e+01 3.612701e+01 8.060048e+00 -1.499490e+01 -1.956929e+01 -1.751604e+01 -1.612176e+01 -1.508206e+01 -1.441332e+01 -1.385383e+01 -1.353927e+01 -1.325800e+01 -1.311099e+01 -1.300326e+01 
-1.228150e+01 -1.231550e+01 -1.237672e+01 -1.247492e+01 -1.265592e+01 -1.283424e+01 -1.320817e+01 -1.369609e+01 -1.425246e+01 -1.593028e+01 -1.394340e+01 7.531882e+00 4.065860e+01 5.666533e+01 5.749510e+01 5.735313e+01 5.743437e+01 5.735313e+01 5.749510e+01 5.666533e+01 4.065860e+01 7.531882e+00 -1.394340e+01 -1.593028e+01 -1.425246e+01 -1.369609e+01 -1.320817e+01 -1.283424e+01 -1.265592e+01 -1.247492e+01 -1.237672e+01 -1.231550e+01 
-1.149145e+01 -1.152338e+01 -1.153492e+01 -1.155703e+01 -1.161118e+01 -1.157565e+01 -1.174076e+01 -1.179872e+01 -1.198033e+01 -1.317435e+01 2.202895e+00 3.516286e+01 5.282879e+01 5.399902e+01 5.462524e+01 5.576598e+01 5.629136e+01 5.576598e+01 5.462524e+01 5.399902e+01 5.282879e+01 3.516286e+01 2.202895e+00 -1.317435e+01 -1.198033e+01 -1.179872e+01 -1.174076e+01 -1.157565e+01 -1.161118e+01 -1.155703e+01 -1.153492e+01 -1.152338e+01 
-1.082985e+01 -1.088581e+01 -1.083936e+01 -1.080840e+01 -1.074019e+01 -1.044222e+01 -1.051082e+01 -9.746319e+00 -1.037808e+01 -6.926506e+00 2.021895e+01 4.688886e+01 5.164251e+01 5.240366e+01 5.282284e+01 5.326685e+01 5.342066e+01 5.326685e+01 5.282284e+01 5.240366e+01 5.164251e+01 4.688886e+01 2.021895e+01 -6.926506e+00 -1.037808e+01 -9.746319e+00 -1.051082e+01 -1.044222e+01 -1.074019e+01 -1.080840e+01 -1.083936e+01 -1.088581e+01 
-1.011960e+01 -1.019124e+01 -1.009237e+01 -1.000685e+01 -9.769546e+00 -9.204175e+00 -8.957226e+00 -7.290623e+00 -8.087011e+00 4.209020e+00 3.349365e+01 4.834396e+01 4.920428e+01 5.053675e+01 5.098934e+01 5.179013e+01 5.194471e+01 5.179013e+01 5.098934e+01 5.053675e+01 4.920428e+01 4.834396e+01 3.349365e+01 4.209020e+00 -8.087011e+00 -7.290623e+00 -8.957226e+00 -9.204175e+00 -9.769546e+00 -1.000685e+01 -1.009237e+01 -1.019124e+01 
-9.597848e+00 -9.746609e+00 -9.583368e+00 -9.563767e+00 -9.099731e+00 -8.511260e+00 -7.779013e+00 -6.378355e+00 -5.851597e+00 1.308016e+01 4.093726e+01 4.736538e+01 4.771853e+01 4.942603e+01 4.985823e+01 5.050800e+01 5.054465e+01 5.050800e+01 4.985823e+01 4.942603e+01 4.771853e+01 4.736538e+01 4.093726e+01 1.308016e+01 -5.851597e+00 -6.378355e+00 -7.779013e+00 -8.511260e+00 -9.099731e+00 -9.563767e+00 -9.583368e+00 -9.746609e+00 
-8.997557e+00 -9.202353e+00 -9.004119e+00 -9.092241e+00 -8.422961e+00 -7.983553e+00 -6.408940e+00 -5.759469e+00 -3.015690e+00 2.054793e+01 4.353071e+01 4.591671e+01 4.683771e+01 4.815363e+01 4.882771e+01 4.941434e+01 4.953026e+01 4.941434e+01 4.882771e+01 4.815363e+01 4.683771e+01 4.591671e+01 4.353071e+01 2.054793e+01 -3.015690e+00 -5.759469e+00 -6.408940e+00 -7.983553e+00 -8.422961e+00 -9.092241e+00 -9.004119e+00 -9.202353e+00 
-8.467669e+00 -8.794285e+00 -8.600653e+00 -8.930299e+00 -8.091363e+00 -7.602407e+00 -5.312702e+00 -4.871355e+00 -4.963535e-01 2.592449e+01 4.413684e+01 4.468810e+01 4.639073e+01 4.735440e+01 4.823137e+01 4.865812e+01 4.883458e+01 4.865812e+01 4.823137e+01 4.735440e+01 4.639073e+01 4.468810e+01 4.413684e+01 2.592449e+01 -4.963535e-01 -4.871355e+00 -5.312702e+00 -7.602407e+00 -8.091363e+00 -8.930299e+00 -8.600653e+00 -8.794285e+00 
-7.844470e+00 -8.180663e+00 -7.999613e+00 -8.323682e+00 -7.419797e+00 -6.689606e+00 -4.137024e+00 -3.469423e+00 1.387686e+00 2.762226e+01 4.320635e+01 4.355262e+01 4.593141e+01 4.667408e+01 4.779549e+01 4.812525e+01 4.840110e+01 4.812525e+01 4.779549e+01 4.667408e+01 4.593141e+01 4.355262e+01 4.320635e+01 2.762226e+01 1.387686e+00 -3.469423e+00 -4.137024e+00 -6.689606e+00 -7.419797e+00 -8.323682e+00 -7.999613e+00 -8.180663e+00 
-7.398864e+00 -7.798771e+00 -7.593607e+00 -8.004429e+00 -6.898406e+00 -5.991435e+00 -3.224140e+00 -2.511453e+00 2.683321e+00 2.796923e+01 4.246067e+01 4.315045e+01 4.577346e+01 4.653082e+01 4.770274e+01 4.800592e+01 4.829616e+01 4.800592e+01 4.770274e+01 4.653082e+01 4.577346e+01 4.315045e+01 4.246067e+01 2.796923e+01 2.683321e+00 -2.511453e+00 -3.224140e+00 -5.991435e+00 -6.898406e+00 -8.004429e+00 -7.593607e+00 -7.798771e+00 
-7.844470e+00 -8.180663e+00 -7.999613e+00 -8.323682e+00 -7.419797e+00 -6.689606e+00 -4.137024e+00 -3.469423e+00 1.387686e+00 2.762226e+01 4.320635e+01 4.355262e+01 4.593141e+01 4.667408e+01 4.779549e+01 4.812525e+01 4.840110e+01 4.812525e+01 4.779549e+01 4.667408e+01 4.593141e+01 4.355262e+01 4.320635e+01 2.762226e+01 1.387686e+00 -3.469423e+00 -4.137024e+00 -6.689606e+00 -7.419797e+00 -8.323682e+00 -7.999613e+00 -8.180663e+00 
-8.467669e+00 -8.794285e+00 -8.600653e+00 -8.930299e+00 -8.091363e+00 -7.602407e+00 -5.312702e+00 -4.871355e+00 -4.963535e-01 2.592449e+01 4.413684e+01 4.468810e+01 4.639073e+01 4.735440e+01 4.823137e+01 4.865812e+01 4.883458e+01 4.865812e+01 4.823137e+01 4.735440e+01 4.639073e+01 4.468810e+01 4.413684e+01 2.592449e+01 -4.963535e-01 -4.871355e+00 -5.312702e+00 -7.602407e+00 -8.091363e+00 -8.930299e+00 -8.600653e+00 -8.794285e+00 
-8.997557e+00 -9.202353e+00 -9.004119e+00 -9.092241e+00 -8.422961e+00 -7.983553e+00 -6.408940e+00 -5.759469e+00 -3.015690e+00 2.054793e+01 4.353071e+01 4.591671e+01 4.683771e+01 4.815363e+01 4.882771e+01 4.941434e+01 4.953026e+01 4.941434e+01 4.882771e+01 4.815363e+01 4.683771e+01 4.591671e+01 4.353071e+01 2.054793e+01 -3.015690e+00 -5.759469e+00 -6.408940e+00 -7.983553e+00 -8.422961e+00 -9.092241e+00 -9.004119e+00 -9.202353e+00 
-9.597848e+00 -9.746609e+00 -9.583368e+00 -9.563767e+00 -9.099731e+00 -8.511260e+00 -7.779013e+00 -6.378355e+00 -5.851597e+00 1.308016e+01 4.093726e+01 4.736538e+01 4.771853e+01 4.942603e+01 4.985823e+01 5.050800e+01 5.054465e+01 5.050800e+01 4.985823e+01 4.942603e+01 4.771853e+01 4.736538e+01 4.093726e+01 1.308016e+01 -5.851597e+00 -6.378355e+00 -7.779013e+00 -8.511260e+00 -9.099731e+00 -9.563767e+00 -9.583368e+00 -9.746609e+00 
-1.011960e+01 -1.019124e+01 -1.009237e+01 -1.000685e+01 -9.769546e+00 -9.204175e+00 -8.957226e+00 -7.290623e+00 -8.087011e+00 4.209020e+00 3.349365e+01 4.834396e+01 4.920428e+01 5.053675e+01 5.098934e+01 5.179013e+01 5.194471e+01 5.179013e+01 5.098934e+01 5.053675e+01 4.920428e+01 4.834396e+01 3.349365e+01 4.209020e+00 -8.087011e+00 -7.290623e+00 -8.957226e+00 -9.204175e+00 -9.769546e+00 -1.000685e+01 -1.009237e+01 -1.019124e+01 
-1.082985e+01 -1.088581e+01 -1.083936e+01 -1.080840e+01 -1.074019e+01 -1.044222e+01 -1.051082e+01 -9.746319e+00 -1.037808e+01 -6.926506e+00 2.021895e+01 4.688886e+01 5.164251e+01 5.240366e+01 5.282284e+01 5.326685e+01 5.342066e+01 5.326685e+01 5.282284e+01 5.240366e+01 5.164251e+01 4.688886e+01 2.021895e+01 -6.926506e+00 -1.037808e+01 -9.746319e+00 -1.051082e+01 -1.044222e+01 -1.074019e+01 -1.080840e+01 -1.083936e+01 -1.088581e+01 
-1.149145e+01 -1.152338e+01 -1.153492e+01 -1.155703e+01 -1.161118e+01 -1.157565e+01 -1.174076e+01 -1.179872e+01 -1.198033e+01 -1.317435e+01 2.202895e+00 3.516286e+01 5.282879e+01 5.399902e+01 5.462524e+01 5.576598e+01 5.629136e+01 5.576598e+01 5.462524e+01 5.399902e+01 5.282879e+01 3.516286e+01 2.202895e+00 -1.317435e+01 -1.198033e+01 -1.179872e+01 -1.174076e+01 -1.157565e+01 -1.161118e+01 -1.155703e+01 -1.153492e+01 -1.152338e+01 
-1.228150e+01 -1.231550e+01 -1.237672e+01 -1.247492e+01 -1.265592e+01 -1.283424e+01 -1.320817e+01 -1.369609e+01 -1.425246e+01 -1.593028e+01 -1.394340e+01 7.531882e+00 4.065860e+01 5.666533e+01 5.749510e+01 5.735313e+01 5.743437e+01 5.735313e+01 5.749510e+01 5.666533e+01 4.065860e+01 7.531882e+00 -1.394340e+01 -1.593028e+01 -1.425246e+01 -1.369609e+01 -1.320817e+01 -1.283424e+01 -1.265592e+01 -1.247492e+01 -1.237672e+01 -1.231550e+01 
-1.297726e+01 -1.300326e+01 -1.311099e+01 -1.325800e+01 -1.353927e+01 -1.385383e+01 -1.441332e+01 -1.508206e+01 -1.612176e+01 -1.751604e+01 -1.956929e+01 -1.499490e+01 8.060048e+00 3.612701e+01 5.342982e+01 6.058475e+01 6.241955e+01 6.058475e+01 5.342982e+01 3.612701e+01 8.060048e+00 -1.499490e+01 -1.956929e+01 -1.751604e+01 -1.612176e+01 -1.508206e+01 -1.441332e+01 -1.385383e+01 -1.353927e+01 -1.325800e+01 -1.311099e+01 -1.300326e+01 
-1.367596e+01 -1.370718e+01 -1.384521e+01 -1.404184e+01 -1.439144e+01 -1.481139e+01 -1.547556e+01 -1.628645e+01 -1.748356e+01 -1.896524e+01 -2.134132e+01 -2.333169e+01 -2.218156e+01 -9.610113e+00 1.007020e+01 2.402722e+01 2.882483e+01 2.402722e+01 1.007020e+01 -9.610113e+00 -2.218156e+01 -2.333169e+01 -2.134132e+01 -1.896524e+01 -1.748356e+01 -1.628645e+01 -1.547556e+01 -1.481139e+01 -1.439144e+01 -1.404184e+01 -1.384521e+01 -1.370718e+01 
-1.426916e+01 -1.429672e+01 -1.446538e+01 -1.469018e+01 -1.509679e+01 -1.557430e+01 -1.631534e+01 -1.717776e+01 -1.843216e+01 -1.988667e+01 -2.197303e+01 -2.417071e+01 -2.701954e+01 -3.006287e+01 -2.862735e+01 -2.451929e+01 -2.280279e+01 -2.451929e+01 -2.862735e+01 -3.006287e+01 -2.701954e+01 -2.417071e+01 -2.197303e+01 -1.988667e+01 -1.843216e+01 -1.717776e+01 -1.631534e+01 -1.557430e+01 -1.509679e+01 -1.469018e+01 -1.446538e+01 -1.429672e+01 
-1.476575e+01 -1.479675e+01 -1.497594e+01 -1.521911e+01 -1.564120e+01 -1.613981e+01 -1.687550e+01 -1.771814e+01 -1.887777e+01 -2.015876e+01 -2.183137e+01 -2.347052e+01 -2.509887e+01 -2.640336e+01 -2.734531e+01 -2.885431e+01 -2.940380e+01 -2.885431e+01 -2.734531e+01 -2.640336e+01 -2.509887e+01 -2.347052e+01 -2.183137e+01 -2.015876e+01 -1.887777e+01 -1.771814e+01 -1.687550e+01 -1.613981e+01 -1.564120e+01 -1.521911e+01 -1.497594e+01 -1.479675e+01 
-1.518147e+01 -1.521055e+01 -1.540680e+01 -1.566395e+01 -1.611124e+01 -1.663122e+01 -1.738204e+01 -1.823139e+01 -1.935554e+01 -2.060257e+01 -2.210527e+01 -2.366085e+01 -2.510999e+01 -2.639435e+01 -2.653521e+01 -2.612337e+01 -2.597144e+01 -2.612337e+01 -2.653521e+01 -2.639435e+01 -2.510999e+01 -2.366085e+01 -2.210527e+01 -2.060257e+01 -1.935554e+01 -1.823139e+01 -1.738204e+01 -1.663122e+01 -1.611124e+01 -1.566395e+01 -1.540680e+01 -1.521055e+01 
-1.543893e+01 -1.546926e+01 -1.566414e+01 -1.592090e+01 -1.635853e+01 -1.686342e+01 -1.757618e+01 -1.836698e+01 -1.938985e+01 -2.049338e+01 -2.179088e+01 -2.308666e+01 -2.427067e+01 -2.524270e+01 -2.572755e+01 -2.622474e+01 -2.627091e+01 -2.622474e+01 -2.572755e+01 -2.524270e+01 -2.427067e+01 -2.308666e+01 -2.179088e+01 -2.049338e+01 -1.938985e+01 -1.836698e+01 -1.757618e+01 -1.686342e+01 -1.635853e+01 -1.592090e+01 -1.566414e+01 -1.546926e+01 
-1.564476e+01 -1.567422e+01 -1.587855e+01 -1.614342e+01 -1.659388e+01 -1.711071e+01 -1.782642e+01 -1.861921e+01 -1.960792e+01 -2.067900e+01 -2.186506e+01 -2.305812e+01 -2.405019e+01 -2.480980e+01 -2.495449e+01 -2.480397e+01 -2.469266e+01 -2.480397e+01 -2.495449e+01 -2.480980e+01 -2.405019e+01 -2.305812e+01 -2.186506e+01 -2.067900e+01 -1.960792e+01 -1.861921e+01 -1.782642e+01 -1.711071e+01 -1.659388e+01 -1.614342e+01 -1.587855e+01 -1.567422e+01 
