# vtk DataFile Version 2.0
Comment goes here
ASCII

DATASET STRUCTURED_POINTS
FIELD FieldData 1
TIME 1 1 double
0.52000000
DIMENSIONS    32   32   1

ORIGIN    0.000   0.000   0.000
SPACING   0.03125 0.03125   1.000

POINT_DATA   1024
SCALARS P double
LOOKUP_TABLE default

-1.489566e+01 -1.482107e+01 -1.498555e+01 -1.499383e+01 -1.522730e+01 -1.528952e+01 -1.554814e+01 -1.563178e+01 -1.585987e+01 -1.597847e+01 -1.614622e+01 -1.640479e+01 -1.647407e+01 -1.677623e+01 -1.649080e+01 -1.635259e+01 -1.586664e+01 -1.635259e+01 -1.649080e+01 -1.677623e+01 -1.647407e+01 -1.640479e+01 -1.614622e+01 -1.597847e+01 -1.585987e+01 -1.563178e+01 -1.554814e+01 -1.528952e+01 -1.522730e+01 -1.499383e+01 -1.498555e+01 -1.482107e+01 
-1.477034e+01 -1.470861e+01 -1.484719e+01 -1.485411e+01 -1.504583e+01 -1.508619e+01 -1.528132e+01 -1.530858e+01 -1.544105e+01 -1.544065e+01 -1.546172e+01 -1.549824e+01 -1.536834e+01 -1.535268e+01 -1.501260e+01 -1.489734e+01 -1.438520e+01 -1.489734e+01 -1.501260e+01 -1.535268e+01 -1.536834e+01 -1.549824e+01 -1.546172e+01 -1.544065e+01 -1.544105e+01 -1.530858e+01 -1.528132e+01 -1.508619e+01 -1.504583e+01 -1.485411e+01 -1.484719e+01 -1.470861e+01 
-1.484192e+01 -1.476864e+01 -1.493875e+01 -1.495367e+01 -1.520062e+01 -1.527257e+01 -1.555927e+01 -1.565415e+01 -1.593655e+01 -1.606548e+01 -1.630709e+01 -1.660397e+01 -1.671706e+01 -1.714995e+01 -1.685535e+01 -1.650614e+01 -1.587875e+01 -1.650614e+01 -1.685535e+01 -1.714995e+01 -1.671706e+01 -1.660397e+01 -1.630709e+01 -1.606548e+01 -1.593655e+01 -1.565415e+01 -1.555927e+01 -1.527257e+01 -1.520062e+01 -1.495367e+01 -1.493875e+01 -1.476864e+01 
-1.469260e+01 -1.463470e+01 -1.478835e+01 -1.481626e+01 -1.504344e+01 -1.512082e+01 -1.538516e+01 -1.546502e+01 -1.571753e+01 -1.576699e+01 -1.591590e+01 -1.598327e+01 -1.575629e+01 -1.559363e+01 -1.525109e+01 -1.498215e+01 -1.414695e+01 -1.498215e+01 -1.525109e+01 -1.559363e+01 -1.575629e+01 -1.598327e+01 -1.591590e+01 -1.576699e+01 -1.571753e+01 -1.546502e+01 -1.538516e+01 -1.512082e+01 -1.504344e+01 -1.481626e+01 -1.478835e+01 -1.463470e+01 
-1.468223e+01 -1.461441e+01 -1.480285e+01 -1.484388e+01 -1.513234e+01 -1.524628e+01 -1.561610e+01 -1.576180e+01 -1.619932e+01 -1.634307e+01 -1.678930e+01 -1.704566e+01 -1.722762e+01 -1.814362e+01 -1.755756e+01 -1.587709e+01 -1.442501e+01 -1.587709e+01 -1.755756e+01 -1.814362e+01 -1.722762e+01 -1.704566e+01 -1.678930e+01 -1.634307e+01 -1.619932e+01 -1.576180e+01 -1.561610e+01 -1.524628e+01 -1.513234e+01 -1.484388e+01 -1.480285e+01 -1.461441e+01 
-1.453023e+01 -1.448075e+01 -1.466621e+01 -1.474220e+01 -1.503940e+01 -1.520972e+01 -1.561836e+01 -1.585485e+01 -1.639361e+01 -1.663031e+01 -1.714472e+01 -1.720691e+01 -1.650833e+01 -1.576530e+01 -1.467350e+01 -1.346589e+01 -1.121737e+01 -1.346589e+01 -1.467350e+01 -1.576530e+01 -1.650833e+01 -1.720691e+01 -1.714472e+01 -1.663031e+01 -1.639361e+01 -1.585485e+01 -1.561836e+01 -1.520972e+01 -1.503940e+01 -1.474220e+01 -1.466621e+01 -1.448075e+01 
-1.441547e+01 -1.435754e+01 -1.457821e+01 -1.467144e+01 -1.502271e+01 -1.523842e+01 -1.574813e+01 -1.607351e+01 -1.683649e+01 -1.715803e+01 -1.795810e+01 -1.761870e+01 -1.906126e+01 -2.026212e+01 -1.617272e+01 -1.282765e+01 -1.023660e+01 -1.282765e+01 -1.617272e+01 -2.026212e+01 -1.906126e+01 -1.761870e+01 -1.795810e+01 -1.715803e+01 -1.683649e+01 -1.607351e+01 -1.574813e+01 -1.523842e+01 -1.502271e+01 -1.467144e+01 -1.457821e+01 -1.435754e+01 
-1.426414e+01 -1.422164e+01 -1.445113e+01 -1.458988e+01 -1.495990e+01 -1.527669e+01 -1.587628e+01 -1.647068e+01 -1.769165e+01 -1.872397e+01 -2.069605e+01 -2.068457e+01 -1.625238e+01 -8.756818e+00 2.100232e+00 1.037733e+01 1.405031e+01 1.037733e+01 2.100232e+00 -8.756818e+00 -1.625238e+01 -2.068457e+01 -2.069605e+01 -1.872397e+01 -1.769165e+01 -1.647068e+01 -1.587628e+01 -1.527669e+01 -1.495990e+01 -1.458988e+01 -1.445113e+01 -1.422164e+01 
-1.403025e+01 -1.397485e+01 -1.423426e+01 -1.437883e+01 -1.476207e+01 -1.513047e+01 -1.578381e+01 -1.667741e+01 -1.832885e+01 -1.995636e+01 -1.970689e+01 -9.342590e+00 1.263159e+01 3.053350e+01 4.310279e+01 4.955756e+01 4.986823e+01 4.955756e+01 4.310279e+01 3.053350e+01 1.263159e+01 -9.342590e+00 -1.970689e+01 -1.995636e+01 -1.832885e+01 -1.667741e+01 -1.578381e+01 -1.513047e+01 -1.476207e+01 -1.437883e+01 -1.423426e+01 -1.397485e+01 
-1.386564e+01 -1.380711e+01 -1.407961e+01 -1.423439e+01 -1.457566e+01 -1.499534e+01 -1.558355e+01 -1.677490e+01 -1.847746e+01 -1.814354e+01 -4.360834e+00 2.114925e+01 4.246903e+01 4.979108e+01 5.074268e+01 5.135779e+01 5.061908e+01 5.135779e+01 5.074268e+01 4.979108e+01 4.246903e+01 2.114925e+01 -4.360834e+00 -1.814354e+01 -1.847746e+01 -1.677490e+01 -1.558355e+01 -1.499534e+01 -1.457566e+01 -1.423439e+01 -1.407961e+01 -1.380711e+01 
-1.349257e+01 -1.340481e+01 -1.370294e+01 -1.380589e+01 -1.406487e+01 -1.438968e+01 -1.478610e+01 -1.591835e+01 -1.718993e+01 -6.642463e+00 2.482546e+01 4.648435e+01 4.946755e+01 4.947829e+01 4.955728e+01 5.015417e+01 4.995186e+01 5.015417e+01 4.955728e+01 4.947829e+01 4.946755e+01 4.648435e+01 2.482546e+01 -6.642463e+00 -1.718993e+01 -1.591835e+01 -1.478610e+01 -1.438968e+01 -1.406487e+01 -1.380589e+01 -1.370294e+01 -1.340481e+01 
-1.326212e+01 -1.314116e+01 -1.348309e+01 -1.352776e+01 -1.367030e+01 -1.391907e+01 -1.380901e+01 -1.533883e+01 -1.149048e+01 1.486065e+01 4.305707e+01 4.922708e+01 4.944065e+01 5.028670e+01 5.031677e+01 5.089744e+01 5.055976e+01 5.089744e+01 5.031677e+01 5.028670e+01 4.944065e+01 4.922708e+01 4.305707e+01 1.486065e+01 -1.149048e+01 -1.533883e+01 -1.380901e+01 -1.391907e+01 -1.367030e+01 -1.352776e+01 -1.348309e+01 -1.314116e+01 
-1.267152e+01 -1.251708e+01 -1.292690e+01 -1.291140e+01 -1.293604e+01 -1.309202e+01 -1.236941e+01 -1.452167e+01 3.629073e-01 3.464971e+01 4.940768e+01 4.909281e+01 4.979088e+01 4.987861e+01 5.002462e+01 5.036360e+01 5.027530e+01 5.036360e+01 5.002462e+01 4.987861e+01 4.979088e+01 4.909281e+01 4.940768e+01 3.464971e+01 3.629073e-01 -1.452167e+01 -1.236941e+01 -1.309202e+01 -1.293604e+01 -1.291140e+01 -1.292690e+01 -1.251708e+01 
-1.222937e+01 -1.203006e+01 -1.260436e+01 -1.249833e+01 -1.266157e+01 -1.231259e+01 -1.193204e+01 -1.239772e+01 1.280609e+01 4.470939e+01 5.010821e+01 4.934746e+01 4.994643e+01 5.036350e+01 5.045209e+01 5.094173e+01 5.069812e+01 5.094173e+01 5.045209e+01 5.036350e+01 4.994643e+01 4.934746e+01 5.010821e+01 4.470939e+01 1.280609e+01 -1.239772e+01 -1.193204e+01 -1.231259e+01 -1.266157e+01 -1.249833e+01 -1.260436e+01 -1.203006e+01 
-1.129847e+01 -1.107124e+01 -1.186320e+01 -1.168074e+01 -1.213227e+01 -1.119175e+01 -1.171917e+01 -8.940098e+00 2.345727e+01 5.021951e+01 5.005800e+01 4.990471e+01 4.996763e+01 5.025402e+01 5.021716e+01 5.055412e+01 5.038356e+01 5.055412e+01 5.021716e+01 5.025402e+01 4.996763e+01 4.990471e+01 5.005800e+01 5.021951e+01 2.345727e+01 -8.940098e+00 -1.171917e+01 -1.119175e+01 -1.213227e+01 -1.168074e+01 -1.186320e+01 -1.107124e+01 
-1.062267e+01 -1.038726e+01 -1.137475e+01 -1.120087e+01 -1.191452e+01 -1.055364e+01 -1.136354e+01 -5.770218e+00 2.941162e+01 5.136371e+01 5.001281e+01 5.043517e+01 5.011123e+01 5.060869e+01 5.042418e+01 5.090526e+01 5.059741e+01 5.090526e+01 5.042418e+01 5.060869e+01 5.011123e+01 5.043517e+01 5.001281e+01 5.136371e+01 2.941162e+01 -5.770218e+00 -1.136354e+01 -1.055364e+01 -1.191452e+01 -1.120087e+01 -1.137475e+01 -1.038726e+01 
-9.981372e+00 -9.758600e+00 -1.084964e+01 -1.068068e+01 -1.146484e+01 -9.919872e+00 -1.063636e+01 -3.640254e+00 3.176643e+01 5.154919e+01 5.002688e+01 5.064614e+01 5.006619e+01 5.044296e+01 5.022351e+01 5.057049e+01 5.034404e+01 5.057049e+01 5.022351e+01 5.044296e+01 5.006619e+01 5.064614e+01 5.002688e+01 5.154919e+01 3.176643e+01 -3.640254e+00 -1.063636e+01 -9.919872e+00 -1.146484e+01 -1.068068e+01 -1.084964e+01 -9.758600e+00 
-1.062267e+01 -1.038726e+01 -1.137475e+01 -1.120087e+01 -1.191452e+01 -1.055364e+01 -1.136354e+01 -5.770218e+00 2.941162e+01 5.136371e+01 5.001281e+01 5.043517e+01 5.011123e+01 5.060869e+01 5.042418e+01 5.090526e+01 5.059741e+01 5.090526e+01 5.042418e+01 5.060869e+01 5.011123e+01 5.043517e+01 5.001281e+01 5.136371e+01 2.941162e+01 -5.770218e+00 -1.136354e+01 -1.055364e+01 -1.191452e+01 -1.120087e+01 -1.137475e+01 -1.038726e+01 
-1.129847e+01 -1.107124e+01 -1.186320e+01 -1.168074e+01 -1.213227e+01 -1.119175e+01 -1.171917e+01 -8.940098e+00 2.345727e+01 5.021951e+01 5.005800e+01 4.990471e+01 4.996763e+01 5.025402e+01 5.021716e+01 5.055412e+01 5.038356e+01 5.055412e+01 5.021716e+01 5.025402e+01 4.996763e+01 4.990471e+01 5.005800e+01 5.021951e+01 2.345727e+01 -8.940098e+00 -1.171917e+01 -1.119175e+01 -1.213227e+01 -1.168074e+01 -1.186320e+01 -1.107124e+01 
-1.222937e+01 -1.203006e+01 -1.260436e+01 -1.249833e+01 -1.266157e+01 -1.231259e+01 -1.193204e+01 -1.239772e+01 1.280609e+01 4.470939e+01 5.010821e+01 4.934746e+01 4.994643e+01 5.036350e+01 5.045209e+01 5.094173e+01 5.069812e+01 5.094173e+01 5.045209e+01 5.036350e+01 4.994643e+01 4.934746e+01 5.010821e+01 4.470939e+01 1.280609e+01 -1.239772e+01 -1.193204e+01 -1.231259e+01 -1.266157e+01 -1.249833e+01 -1.260436e+01 -1.203006e+01 
-1.267152e+01 -1.251708e+01 -1.292690e+01 -1.291140e+01 -1.293604e+01 -1.309202e+01 -1.236941e+01 -1.452167e+01 3.629073e-01 3.464971e+01 4.940768e+01 4.909281e+01 4.979088e+01 4.987861e+01 5.002462e+01 5.036360e+01 5.027530e+01 5.036360e+01 5.002462e+01 4.987861e+01 4.979088e+01 4.909281e+01 4.940768e+01 3.464971e+01 3.629073e-01 -1.452167e+01 -1.236941e+01 -1.309202e+01 -1.293604e+01 -1.291140e+01 -1.292690e+01 -1.251708e+01 
-1.326212e+01 -1.314116e+01 -1.348309e+01 -1.352776e+01 -1.367030e+01 -1.391907e+01 -1.380901e+01 -1.533883e+01 -1.149048e+01 1.486065e+01 4.305707e+01 4.922708e+01 4.944065e+01 5.028670e+01 5.031677e+01 5.089744e+01 5.055976e+01 5.089744e+01 5.031677e+01 5.028670e+01 4.944065e+01 4.922708e+01 4.305707e+01 1.486065e+01 -1.149048e+01 -1.533883e+01 -1.380901e+01 -1.391907e+01 -1.367030e+01 -1.352776e+01 -1.348309e+01 -1.314116e+01 
-1.349257e+01 -1.340481e+01 -1.370294e+01 -1.380589e+01 -1.406487e+01 -1.438968e+01 -1.478610e+01 -1.591835e+01 -1.718993e+01 -6.642463e+00 2.482546e+01 4.648435e+01 4.946755e+01 4.947829e+01 4.955728e+01 5.015417e+01 4.995186e+01 5.015417e+01 4.955728e+01 4.947829e+01 4.946755e+01 4.648435e+01 2.482546e+01 -6.642463e+00 -1.718993e+01 -1.591835e+01 -1.478610e+01 -1.438968e+01 -1.406487e+01 -1.380589e+01 -1.370294e+01 -1.340481e+01 
-1.386564e+01 -1.380711e+01 -1.407961e+01 -1.423439e+01 -1.457566e+01 -1.499534e+01 -1.558355e+01 -1.677490e+01 -1.847746e+01 -1.814354e+01 -4.360834e+00 2.114925e+01 4.246903e+01 4.979108e+01 5.074268e+01 5.135779e+01 5.061908e+01 5.135779e+01 5.074268e+01 4.979108e+01 4.246903e+01 2.114925e+01 -4.360834e+00 -1.814354e+01 -1.847746e+01 -1.677490e+01 -1.558355e+01 -1.499534e+01 -1.457566e+01 -1.423439e+01 -1.407961e+01 -1.380711e+01 
-1.403025e+01 -1.397485e+01 -1.423426e+01 -1.437883e+01 -1.476207e+01 -1.513047e+01 -1.578381e+01 -1.667741e+01 -1.832885e+01 -1.995636e+01 -1.970689e+01 -9.342590e+00 1.263159e+01 3.053350e+01 4.310279e+01 4.955756e+01 4.986823e+01 4.955756e+01 4.310279e+01 3.053350e+01 1.263159e+01 -9.342590e+00 -1.970689e+01 -1.995636e+01 -1.832885e+01 -1.667741e+01 -1.578381e+01 -1.513047e+01 -1.476207e+01 -1.437883e+01 -1.423426e+01 -1.397485e+01 
-1.426414e+01 -1.422164e+01 -1.445113e+01 -1.458988e+01 -1.495990e+01 -1.527669e+01 -1.587628e+01 -1.647068e+01 -1.769165e+01 -1.872397e+01 -2.069605e+01 -2.068457e+01 -1.625238e+01 -8.756818e+00 2.100232e+00 1.037733e+01 1.405031e+01 1.037733e+01 2.100232e+00 -8.756818e+00 -1.625238e+01 -2.068457e+01 -2.069605e+01 -1.872397e+01 -1.769165e+01 -1.647068e+01 -1.587628e+01 -1.527669e+01 -1.495990e+01 -1.458988e+01 -1.445113e+01 -1.422164e+01 
-1.441547e+01 -1.435754e+01 -1.457821e+01 -1.467144e+01 -1.502271e+01 -1.523842e+01 -1.574813e+01 -1.607351e+01 -1.683649e+01 -1.715803e+01 -1.795810e+01 -1.761870e+01 -1.906126e+01 -2.026212e+01 -1.617272e+01 -1.282765e+01 -1.023660e+01 -1.282765e+01 -1.617272e+01 -2.026212e+01 -1.906126e+01 -1.761870e+01 -1.795810e+01 -1.715803e+01 -1.683649e+01 -1.607351e+01 -1.574813e+01 -1.523842e+01 -1.502271e+01 -1.467144e+01 -1.457821e+01 -1.435754e+01 
-1.453023e+01 -1.448075e+01 -1.466621e+01 -1.474220e+01 -1.503940e+01 -1.520972e+01 -1.561836e+01 -1.585485e+01 -1.639361e+01 -1.663031e+01 -1.714472e+01 -1.720691e+01 -1.650833e+01 -1.576530e+01 -1.467350e+01 -1.346589e+01 -1.121737e+01 -1.346589e+01 -1.467350e+01 -1.576530e+01 -1.650833e+01 -1.720691e+01 -1.714472e+01 -1.663031e+01 -1.639361e+01 -1.585485e+01 -1.561836e+01 -1.520972e+01 -1.503940e+01 -1.474220e+01 -1.466621e+01 -1.448075e+01 
-1.468223e+01 -1.461441e+01 -1.480285e+01 -1.484388e+01 -1.513234e+01 -1.524628e+01 -1.561610e+01 -1.576180e+01 -1.619932e+01 -1.634307e+01 -1.678930e+01 -1.704566e+01 -1.722762e+01 -1.814362e+01 -1.755756e+01 -1.587709e+01 -1.442501e+01 -1.587709e+01 -1.755756e+01 -1.814362e+01 -1.722762e+01 -1.704566e+01 -1.678930e+01 -1.634307e+01 -1.619932e+01 -1.576180e+01 -1.561610e+01 -1.524628e+01 -1.513234e+01 -1.484388e+01 -1.480285e+01 -1.461441e+01 
-1.469260e+01 -1.463470e+01 -1.478835e+01 -1.481626e+01 -1.504344e+01 -1.512082e+01 -1.538516e+01 -1.546502e+01 -1.571753e+01 -1.576699e+01 -1.591590e+01 -1.598327e+01 -1.575629e+01 -1.559363e+01 -1.525109e+01 -1.498215e+01 -1.414695e+01 -1.498215e+01 -1.525109e+01 -1.559363e+01 -1.575629e+01 -1.598327e+01 -1.591590e+01 -1.576699e+01 -1.571753e+01 -1.546502e+01 -1.538516e+01 -1.512082e+01 -1.504344e+01 -1.481626e+01 -1.478835e+01 -1.463470e+01 
-1.484192e+01 -1.476864e+01 -1.493875e+01 -1.495367e+01 -1.520062e+01 -1.527257e+01 -1.555927e+01 -1.565415e+01 -1.593655e+01 -1.606548e+01 -1.630709e+01 -1.660397e+01 -1.671706e+01 -1.714995e+01 -1.685535e+01 -1.650614e+01 -1.587875e+01 -1.650614e+01 -1.685535e+01 -1.714995e+01 -1.671706e+01 -1.660397e+01 -1.630709e+01 -1.606548e+01 -1.593655e+01 -1.565415e+01 -1.555927e+01 -1.527257e+01 -1.520062e+01 -1.495367e+01 -1.493875e+01 -1.476864e+01 
-1.477034e+01 -1.470861e+01 -1.484719e+01 -1.485411e+01 -1.504583e+01 -1.508619e+01 -1.528132e+01 -1.530858e+01 -1.544105e+01 -1.544065e+01 -1.546172e+01 -1.549824e+01 -1.536834e+01 -1.535268e+01 -1.501260e+01 -1.489734e+01 -1.438520e+01 -1.489734e+01 -1.501260e+01 -1.535268e+01 -1.536834e+01 -1.549824e+01 -1.546172e+01 -1.544065e+01 -1.544105e+01 -1.530858e+01 -1.528132e+01 -1.508619e+01 -1.504583e+01 -1.485411e+01 -1.484719e+01 -1.470861e+01 
