# vtk DataFile Version 2.0
Comment goes here
ASCII

DATASET STRUCTURED_POINTS
FIELD FieldData 1
TIME 1 1 double
0.02000000
DIMENSIONS    32   32   1

ORIGIN    0.000   0.000   0.000
SPACING   0.03125 0.03125   1.000

POINT_DATA   1024
SCALARS P double
LOOKUP_TABLE default

-1.776655e+01 -1.783363e+01 -1.827117e+01 -1.884989e+01 -1.982790e+01 -2.095488e+01 -2.252790e+01 -2.420721e+01 -2.634203e+01 -2.836767e+01 -3.063928e+01 -3.222878e+01 -3.334848e+01 -3.307604e+01 -3.186697e+01 -3.134298e+01 -3.058795e+01 -3.134298e+01 -3.186697e+01 -3.307604e+01 -3.334848e+01 -3.222878e+01 -3.063928e+01 -2.836767e+01 -2.634203e+01 -2.420721e+01 -2.252790e+01 -2.095488e+01 -1.982790e+01 -1.884989e+01 -1.827117e+01 -1.783363e+01 
-1.746698e+01 -1.758494e+01 -1.796842e+01 -1.860867e+01 -1.952781e+01 -2.075912e+01 -2.228779e+01 -2.418804e+01 -2.636494e+01 -2.889004e+01 -3.147034e+01 -3.410727e+01 -3.605539e+01 -3.733481e+01 -3.812614e+01 -3.655075e+01 -3.553001e+01 -3.655075e+01 -3.812614e+01 -3.733481e+01 -3.605539e+01 -3.410727e+01 -3.147034e+01 -2.889004e+01 -2.636494e+01 -2.418804e+01 -2.228779e+01 -2.075912e+01 -1.952781e+01 -1.860867e+01 -1.796842e+01 -1.758494e+01 
-1.736166e+01 -1.742853e+01 -1.785673e+01 -1.843277e+01 -1.940501e+01 -2.055798e+01 -2.217813e+01 -2.398877e+01 -2.634744e+01 -2.874871e+01 -3.161092e+01 -3.385660e+01 -3.560686e+01 -3.514917e+01 -3.321019e+01 -3.225432e+01 -3.149114e+01 -3.225432e+01 -3.321019e+01 -3.514917e+01 -3.560686e+01 -3.385660e+01 -3.161092e+01 -2.874871e+01 -2.634744e+01 -2.398877e+01 -2.217813e+01 -2.055798e+01 -1.940501e+01 -1.843277e+01 -1.785673e+01 -1.742853e+01 
-1.666064e+01 -1.676388e+01 -1.713292e+01 -1.773735e+01 -1.863225e+01 -1.984740e+01 -2.141289e+01 -2.342467e+01 -2.588858e+01 -2.889915e+01 -3.241385e+01 -3.643029e+01 -3.969561e+01 -4.404547e+01 -4.549712e+01 -4.016233e+01 -3.726115e+01 -4.016233e+01 -4.549712e+01 -4.404547e+01 -3.969561e+01 -3.643029e+01 -3.241385e+01 -2.889915e+01 -2.588858e+01 -2.342467e+01 -2.141289e+01 -1.984740e+01 -1.863225e+01 -1.773735e+01 -1.713292e+01 -1.676388e+01 
-1.614432e+01 -1.620421e+01 -1.659387e+01 -1.713596e+01 -1.805106e+01 -1.922230e+01 -2.089043e+01 -2.300797e+01 -2.593935e+01 -2.963906e+01 -3.503222e+01 -4.126530e+01 -4.653575e+01 -4.119557e+01 -2.448096e+01 -4.342335e+00 5.160000e+00 -4.342335e+00 -2.448096e+01 -4.119557e+01 -4.653575e+01 -4.126530e+01 -3.503222e+01 -2.963906e+01 -2.593935e+01 -2.300797e+01 -2.089043e+01 -1.922230e+01 -1.805106e+01 -1.713596e+01 -1.659387e+01 -1.620421e+01 
-1.506313e+01 -1.513024e+01 -1.545502e+01 -1.595625e+01 -1.674832e+01 -1.785590e+01 -1.937063e+01 -2.147819e+01 -2.438366e+01 -2.839049e+01 -3.451167e+01 -3.938111e+01 -3.014784e+01 3.472235e+00 4.605518e+01 7.171387e+01 7.931414e+01 7.171387e+01 4.605518e+01 3.472235e+00 -3.014784e+01 -3.938111e+01 -3.451167e+01 -2.839049e+01 -2.438366e+01 -2.147819e+01 -1.937063e+01 -1.785590e+01 -1.674832e+01 -1.595625e+01 -1.545502e+01 -1.513024e+01 
-1.414570e+01 -1.417450e+01 -1.447528e+01 -1.488521e+01 -1.559081e+01 -1.658482e+01 -1.797563e+01 -2.005107e+01 -2.293419e+01 -2.734181e+01 -3.350557e+01 -2.961154e+01 6.451318e+00 5.082927e+01 7.108304e+01 7.686582e+01 7.840672e+01 7.686582e+01 7.108304e+01 5.082927e+01 6.451318e+00 -2.961154e+01 -3.350557e+01 -2.734181e+01 -2.293419e+01 -2.005107e+01 -1.797563e+01 -1.658482e+01 -1.559081e+01 -1.488521e+01 -1.447528e+01 -1.417450e+01 
-1.276329e+01 -1.276044e+01 -1.299397e+01 -1.327264e+01 -1.379096e+01 -1.454127e+01 -1.555157e+01 -1.725755e+01 -1.931861e+01 -2.310788e+01 -2.561052e+01 -1.318300e+00 3.882968e+01 5.895111e+01 6.321534e+01 6.607217e+01 6.669727e+01 6.607217e+01 6.321534e+01 5.895111e+01 3.882968e+01 -1.318300e+00 -2.561052e+01 -2.310788e+01 -1.931861e+01 -1.725755e+01 -1.555157e+01 -1.454127e+01 -1.379096e+01 -1.327264e+01 -1.299397e+01 -1.276044e+01 
-1.153355e+01 -1.148750e+01 -1.165497e+01 -1.178677e+01 -1.209242e+01 -1.258499e+01 -1.310818e+01 -1.445220e+01 -1.527513e+01 -1.869873e+01 -1.102432e+01 2.394258e+01 4.928779e+01 5.400468e+01 5.898982e+01 6.111580e+01 6.240331e+01 6.111580e+01 5.898982e+01 5.400468e+01 4.928779e+01 2.394258e+01 -1.102432e+01 -1.869873e+01 -1.527513e+01 -1.445220e+01 -1.310818e+01 -1.258499e+01 -1.209242e+01 -1.178677e+01 -1.165497e+01 -1.148750e+01 
-1.002307e+01 -9.905598e+00 -1.002748e+01 -9.948803e+00 -1.008401e+01 -1.015944e+01 -1.034360e+01 -1.089440e+01 -1.106135e+01 -1.278401e+01 4.573928e+00 3.572478e+01 4.867786e+01 4.975649e+01 5.386439e+01 5.485363e+01 5.585357e+01 5.485363e+01 5.386439e+01 4.975649e+01 4.867786e+01 3.572478e+01 4.573928e+00 -1.278401e+01 -1.106135e+01 -1.089440e+01 -1.034360e+01 -1.015944e+01 -1.008401e+01 -9.948803e+00 -1.002748e+01 -9.905598e+00 
-8.688199e+00 -8.514664e+00 -8.569399e+00 -8.292133e+00 -8.226014e+00 -7.881612e+00 -7.707680e+00 -7.362454e+00 -7.058860e+00 -5.887999e+00 1.697605e+01 4.078371e+01 4.562519e+01 4.770330e+01 5.075630e+01 5.197316e+01 5.274557e+01 5.197316e+01 5.075630e+01 4.770330e+01 4.562519e+01 4.078371e+01 1.697605e+01 -5.887999e+00 -7.058860e+00 -7.362454e+00 -7.707680e+00 -7.881612e+00 -8.226014e+00 -8.292133e+00 -8.569399e+00 -8.514664e+00 
-7.292023e+00 -7.027351e+00 -7.068888e+00 -6.566824e+00 -6.395972e+00 -5.626182e+00 -5.282942e+00 -4.155735e+00 -3.764497e+00 2.576660e-01 2.405676e+01 4.100734e+01 4.238368e+01 4.548756e+01 4.716009e+01 4.846880e+01 4.873756e+01 4.846880e+01 4.716009e+01 4.548756e+01 4.238368e+01 4.100734e+01 2.405676e+01 2.576660e-01 -3.764497e+00 -4.155735e+00 -5.282942e+00 -5.626182e+00 -6.395972e+00 -6.566824e+00 -7.068888e+00 -7.027351e+00 
-6.121342e+00 -5.805766e+00 -5.791501e+00 -5.113047e+00 -4.776152e+00 -3.651585e+00 -3.014938e+00 -1.246300e+00 -4.054806e-01 6.256702e+00 2.912988e+01 4.071644e+01 4.115923e+01 4.449308e+01 4.549780e+01 4.698495e+01 4.695720e+01 4.698495e+01 4.549780e+01 4.449308e+01 4.115923e+01 4.071644e+01 2.912988e+01 6.256702e+00 -4.054806e-01 -1.246300e+00 -3.014938e+00 -3.651585e+00 -4.776152e+00 -5.113047e+00 -5.791501e+00 -5.805766e+00 
-5.085730e+00 -4.688983e+00 -4.680462e+00 -3.827743e+00 -3.421818e+00 -1.996170e+00 -1.186773e+00 1.051770e+00 2.311515e+00 1.073018e+01 3.234287e+01 4.006062e+01 4.025823e+01 4.315141e+01 4.358583e+01 4.505784e+01 4.473271e+01 4.505784e+01 4.358583e+01 4.315141e+01 4.025823e+01 4.006062e+01 3.234287e+01 1.073018e+01 2.311515e+00 1.051770e+00 -1.186773e+00 -1.996170e+00 -3.421818e+00 -3.827743e+00 -4.680462e+00 -4.688983e+00 
-4.334789e+00 -3.913196e+00 -3.861302e+00 -2.908718e+00 -2.387478e+00 -7.776832e-01 2.399718e-01 2.718677e+00 4.364291e+00 1.350117e+01 3.407544e+01 3.980400e+01 4.018579e+01 4.275539e+01 4.302565e+01 4.450043e+01 4.405642e+01 4.450043e+01 4.302565e+01 4.275539e+01 4.018579e+01 3.980400e+01 3.407544e+01 1.350117e+01 4.364291e+00 2.718677e+00 2.399718e-01 -7.776832e-01 -2.387478e+00 -2.908718e+00 -3.861302e+00 -3.913196e+00 
-3.854922e+00 -3.383290e+00 -3.351937e+00 -2.315229e+00 -1.784647e+00 -5.656153e-02 1.015321e+00 3.612613e+00 5.418398e+00 1.487226e+01 3.456423e+01 3.925965e+01 3.971680e+01 4.200806e+01 4.211527e+01 4.355069e+01 4.299734e+01 4.355069e+01 4.211527e+01 4.200806e+01 3.971680e+01 3.925965e+01 3.456423e+01 1.487226e+01 5.418398e+00 3.612613e+00 1.015321e+00 -5.656153e-02 -1.784647e+00 -2.315229e+00 -3.351937e+00 -3.383290e+00 
-3.694930e+00 -3.235083e+00 -3.171007e+00 -2.124695e+00 -1.536791e+00 2.249015e-01 1.392078e+00 4.047908e+00 6.028355e+00 1.565039e+01 3.504796e+01 3.937795e+01 3.993326e+01 4.217159e+01 4.230504e+01 4.373753e+01 4.318867e+01 4.373753e+01 4.230504e+01 4.217159e+01 3.993326e+01 3.937795e+01 3.504796e+01 1.565039e+01 6.028355e+00 4.047908e+00 1.392078e+00 2.249015e-01 -1.536791e+00 -2.124695e+00 -3.171007e+00 -3.235083e+00 
-3.854922e+00 -3.383290e+00 -3.351937e+00 -2.315229e+00 -1.784647e+00 -5.656153e-02 1.015321e+00 3.612613e+00 5.418398e+00 1.487226e+01 3.456423e+01 3.925965e+01 3.971680e+01 4.200806e+01 4.211527e+01 4.355069e+01 4.299734e+01 4.355069e+01 4.211527e+01 4.200806e+01 3.971680e+01 3.925965e+01 3.456423e+01 1.487226e+01 5.418398e+00 3.612613e+00 1.015321e+00 -5.656153e-02 -1.784647e+00 -2.315229e+00 -3.351937e+00 -3.383290e+00 
-4.334789e+00 -3.913196e+00 -3.861302e+00 -2.908718e+00 -2.387478e+00 -7.776832e-01 2.399718e-01 2.718677e+00 4.364291e+00 1.350117e+01 3.407544e+01 3.980400e+01 4.018579e+01 4.275539e+01 4.302565e+01 4.450043e+01 4.405642e+01 4.450043e+01 4.302565e+01 4.275539e+01 4.018579e+01 3.980400e+01 3.407544e+01 1.350117e+01 4.364291e+00 2.718677e+00 2.399718e-01 -7.776832e-01 -2.387478e+00 -2.908718e+00 -3.861302e+00 -3.913196e+00 
-5.085730e+00 -4.688983e+00 -4.680462e+00 -3.827743e+00 -3.421818e+00 -1.996170e+00 -1.186773e+00 1.051770e+00 2.311515e+00 1.073018e+01 3.234287e+01 4.006062e+01 4.025823e+01 4.315141e+01 4.358583e+01 4.505784e+01 4.473271e+01 4.505784e+01 4.358583e+01 4.315141e+01 4.025823e+01 4.006062e+01 3.234287e+01 1.073018e+01 2.311515e+00 1.051770e+00 -1.186773e+00 -1.996170e+00 -3.421818e+00 -3.827743e+00 -4.680462e+00 -4.688983e+00 
-6.121342e+00 -5.805766e+00 -5.791501e+00 -5.113047e+00 -4.776152e+00 -3.651585e+00 -3.014938e+00 -1.246300e+00 -4.054806e-01 6.256702e+00 2.912988e+01 4.071644e+01 4.115923e+01 4.449308e+01 4.549780e+01 4.698495e+01 4.695720e+01 4.698495e+01 4.549780e+01 4.449308e+01 4.115923e+01 4.071644e+01 2.912988e+01 6.256702e+00 -4.054806e-01 -1.246300e+00 -3.014938e+00 -3.651585e+00 -4.776152e+00 -5.113047e+00 -5.791501e+00 -5.805766e+00 
-7.292023e+00 -7.027351e+00 -7.068888e+00 -6.566824e+00 -6.395972e+00 -5.626182e+00 -5.282942e+00 -4.155735e+00 -3.764497e+00 2.576660e-01 2.405676e+01 4.100734e+01 4.238368e+01 4.548756e+01 4.716009e+01 4.846880e+01 4.873756e+01 4.846880e+01 4.716009e+01 4.548756e+01 4.238368e+01 4.100734e+01 2.405676e+01 2.576660e-01 -3.764497e+00 -4.155735e+00 -5.282942e+00 -5.626182e+00 -6.395972e+00 -6.566824e+00 -7.068888e+00 -7.027351e+00 
-8.688199e+00 -8.514664e+00 -8.569399e+00 -8.292133e+00 -8.226014e+00 -7.881612e+00 -7.707680e+00 -7.362454e+00 -7.058860e+00 -5.887999e+00 1.697605e+01 4.078371e+01 4.562519e+01 4.770330e+01 5.075630e+01 5.197316e+01 5.274557e+01 5.197316e+01 5.075630e+01 4.770330e+01 4.562519e+01 4.078371e+01 1.697605e+01 -5.887999e+00 -7.058860e+00 -7.362454e+00 -7.707680e+00 -7.881612e+00 -8.226014e+00 -8.292133e+00 -8.569399e+00 -8.514664e+00 
-1.002307e+01 -9.905598e+00 -1.002748e+01 -9.948803e+00 -1.008401e+01 -1.015944e+01 -1.034360e+01 -1.089440e+01 -1.106135e+01 -1.278401e+01 4.573928e+00 3.572478e+01 4.867786e+01 4.975649e+01 5.386439e+01 5.485363e+01 5.585357e+01 5.485363e+01 5.386439e+01 4.975649e+01 4.867786e+01 3.572478e+01 4.573928e+00 -1.278401e+01 -1.106135e+01 -1.089440e+01 -1.034360e+01 -1.015944e+01 -1.008401e+01 -9.948803e+00 -1.002748e+01 -9.905598e+00 
-1.153355e+01 -1.148750e+01 -1.165497e+01 -1.178677e+01 -1.209242e+01 -1.258499e+01 -1.310818e+01 -1.445220e+01 -1.527513e+01 -1.869873e+01 -1.102432e+01 2.394258e+01 4.928779e+01 5.400468e+01 5.898982e+01 6.111580e+01 6.240331e+01 6.111580e+01 5.898982e+01 5.400468e+01 4.928779e+01 2.394258e+01 -1.102432e+01 -1.869873e+01 -1.527513e+01 -1.445220e+01 -1.310818e+01 -1.258499e+01 -1.209242e+01 -1.178677e+01 -1.165497e+01 -1.148750e+01 
-1.276329e+01 -1.276044e+01 -1.299397e+01 -1.327264e+01 -1.379096e+01 -1.454127e+01 -1.555157e+01 -1.725755e+01 -1.931861e+01 -2.310788e+01 -2.561052e+01 -1.318300e+00 3.882968e+01 5.895111e+01 6.321534e+01 6.607217e+01 6.669727e+01 6.607217e+01 6.321534e+01 5.895111e+01 3.882968e+01 -1.318300e+00 -2.561052e+01 -2.310788e+01 -1.931861e+01 -1.725755e+01 -1.555157e+01 -1.454127e+01 -1.379096e+01 -1.327264e+01 -1.299397e+01 -1.276044e+01 
-1.414570e+01 -1.417450e+01 -1.447528e+01 -1.488521e+01 -1.559081e+01 -1.658482e+01 -1.797563e+01 -2.005107e+01 -2.293419e+01 -2.734181e+01 -3.350557e+01 -2.961154e+01 6.451318e+00 5.082927e+01 7.108304e+01 7.686582e+01 7.840672e+01 7.686582e+01 7.108304e+01 5.082927e+01 6.451318e+00 -2.961154e+01 -3.350557e+01 -2.734181e+01 -2.293419e+01 -2.005107e+01 -1.797563e+01 -1.658482e+01 -1.559081e+01 -1.488521e+01 -1.447528e+01 -1.417450e+01 
-1.506313e+01 -1.513024e+01 -1.545502e+01 -1.595625e+01 -1.674832e+01 -1.785590e+01 -1.937063e+01 -2.147819e+01 -2.438366e+01 -2.839049e+01 -3.451167e+01 -3.938111e+01 -3.014784e+01 3.472235e+00 4.605518e+01 7.171387e+01 7.931414e+01 7.171387e+01 4.605518e+01 3.472235e+00 -3.014784e+01 -3.938111e+01 -3.451167e+01 -2.839049e+01 -2.438366e+01 -2.147819e+01 -1.937063e+01 -1.785590e+01 -1.674832e+01 -1.595625e+01 -1.545502e+01 -1.513024e+01 
-1.614432e+01 -1.620421e+01 -1.659387e+01 -1.713596e+01 -1.805106e+01 -1.922230e+01 -2.089043e+01 -2.300797e+01 -2.593935e+01 -2.963906e+01 -3.503222e+01 -4.126530e+01 -4.653575e+01 -4.119557e+01 -2.448096e+01 -4.342335e+00 5.160000e+00 -4.342335e+00 -2.448096e+01 -4.119557e+01 -4.653575e+01 -4.126530e+01 -3.503222e+01 -2.963906e+01 -2.593935e+01 -2.300797e+01 -2.089043e+01 -1.922230e+01 -1.805106e+01 -1.713596e+01 -1.659387e+01 -1.620421e+01 
-1.666064e+01 -1.676388e+01 -1.713292e+01 -1.773735e+01 -1.863225e+01 -1.984740e+01 -2.141289e+01 -2.342467e+01 -2.588858e+01 -2.889915e+01 -3.241385e+01 -3.643029e+01 -3.969561e+01 -4.404547e+01 -4.549712e+01 -4.016233e+01 -3.726115e+01 -4.016233e+01 -4.549712e+01 -4.404547e+01 -3.969561e+01 -3.643029e+01 -3.241385e+01 -2.889915e+01 -2.588858e+01 -2.342467e+01 -2.141289e+01 -1.984740e+01 -1.863225e+01 -1.773735e+01 -1.713292e+01 -1.676388e+01 
-1.736166e+01 -1.742853e+01 -1.785673e+01 -1.843277e+01 -1.940501e+01 -2.055798e+01 -2.217813e+01 -2.398877e+01 -2.634744e+01 -2.874871e+01 -3.161092e+01 -3.385660e+01 -3.560686e+01 -3.514917e+01 -3.321019e+01 -3.225432e+01 -3.149114e+01 -3.225432e+01 -3.321019e+01 -3.514917e+01 -3.560686e+01 -3.385660e+01 -3.161092e+01 -2.874871e+01 -2.634744e+01 -2.398877e+01 -2.217813e+01 -2.055798e+01 -1.940501e+01 -1.843277e+01 -1.785673e+01 -1.742853e+01 
-1.746698e+01 -1.758494e+01 -1.796842e+01 -1.860867e+01 -1.952781e+01 -2.075912e+01 -2.228779e+01 -2.418804e+01 -2.636494e+01 -2.889004e+01 -3.147034e+01 -3.410727e+01 -3.605539e+01 -3.733481e+01 -3.812614e+01 -3.655075e+01 -3.553001e+01 -3.655075e+01 -3.812614e+01 -3.733481e+01 -3.605539e+01 -3.410727e+01 -3.147034e+01 -2.889004e+01 -2.636494e+01 -2.418804e+01 -2.228779e+01 -2.075912e+01 -1.952781e+01 -1.860867e+01 -1.796842e+01 -1.758494e+01 
