# vtk DataFile Version 2.0
Comment goes here
ASCII

DATASET STRUCTURED_POINTS
FIELD FieldData 1
TIME 1 1 double
0.54000000
DIMENSIONS    32   32   1

ORIGIN    0.000   0.000   0.000
SPACING   0.03125 0.03125   1.000

POINT_DATA   1024
SCALARS P double
LOOKUP_TABLE default

-1.485188e+01 -1.455200e+01 -1.476351e+01 -1.438141e+01 -1.446637e+01 -1.399126e+01 -1.389409e+01 -1.333675e+01 -1.301956e+01 -1.247468e+01 -1.197959e+01 -1.165301e+01 -1.108328e+01 -1.100851e+01 -1.030409e+01 -1.027276e+01 -9.478780e+00 -1.027276e+01 -1.030409e+01 -1.100851e+01 -1.108328e+01 -1.165301e+01 -1.197959e+01 -1.247468e+01 -1.301956e+01 -1.333675e+01 -1.389409e+01 -1.399126e+01 -1.446637e+01 -1.438141e+01 -1.476351e+01 -1.455200e+01 
-1.483985e+01 -1.454994e+01 -1.475841e+01 -1.439306e+01 -1.448445e+01 -1.403592e+01 -1.396104e+01 -1.344734e+01 -1.317918e+01 -1.270555e+01 -1.229637e+01 -1.208009e+01 -1.161895e+01 -1.165161e+01 -1.094705e+01 -1.090584e+01 -1.009357e+01 -1.090584e+01 -1.094705e+01 -1.165161e+01 -1.161895e+01 -1.208009e+01 -1.229637e+01 -1.270555e+01 -1.317918e+01 -1.344734e+01 -1.396104e+01 -1.403592e+01 -1.448445e+01 -1.439306e+01 -1.475841e+01 -1.454994e+01 
-1.497197e+01 -1.466709e+01 -1.489166e+01 -1.450742e+01 -1.461175e+01 -1.412780e+01 -1.405251e+01 -1.347022e+01 -1.317205e+01 -1.258302e+01 -1.208579e+01 -1.173510e+01 -1.112696e+01 -1.107203e+01 -1.044603e+01 -1.041542e+01 -9.543767e+00 -1.041542e+01 -1.044603e+01 -1.107203e+01 -1.112696e+01 -1.173510e+01 -1.208579e+01 -1.258302e+01 -1.317205e+01 -1.347022e+01 -1.405251e+01 -1.412780e+01 -1.461175e+01 -1.450742e+01 -1.489166e+01 -1.466709e+01 
-1.507036e+01 -1.477077e+01 -1.500340e+01 -1.463211e+01 -1.475780e+01 -1.428759e+01 -1.424807e+01 -1.367854e+01 -1.343546e+01 -1.286137e+01 -1.244508e+01 -1.217130e+01 -1.169394e+01 -1.181595e+01 -1.110945e+01 -1.093748e+01 -9.970540e+00 -1.093748e+01 -1.110945e+01 -1.181595e+01 -1.169394e+01 -1.217130e+01 -1.244508e+01 -1.286137e+01 -1.343546e+01 -1.367854e+01 -1.424807e+01 -1.428759e+01 -1.475780e+01 -1.463211e+01 -1.500340e+01 -1.477077e+01 
-1.533426e+01 -1.501997e+01 -1.528657e+01 -1.490879e+01 -1.508024e+01 -1.458758e+01 -1.458848e+01 -1.394345e+01 -1.369924e+01 -1.292943e+01 -1.238392e+01 -1.182750e+01 -1.087636e+01 -1.078842e+01 -1.027188e+01 -1.004442e+01 -8.682630e+00 -1.004442e+01 -1.027188e+01 -1.078842e+01 -1.087636e+01 -1.182750e+01 -1.238392e+01 -1.292943e+01 -1.369924e+01 -1.394345e+01 -1.458848e+01 -1.458758e+01 -1.508024e+01 -1.490879e+01 -1.528657e+01 -1.501997e+01 
-1.554080e+01 -1.523264e+01 -1.551852e+01 -1.515822e+01 -1.536874e+01 -1.488421e+01 -1.493531e+01 -1.427523e+01 -1.407499e+01 -1.323458e+01 -1.272808e+01 -1.211632e+01 -1.149744e+01 -1.177022e+01 -1.016046e+01 -9.136545e+00 -7.234251e+00 -9.136545e+00 -1.016046e+01 -1.177022e+01 -1.149744e+01 -1.211632e+01 -1.272808e+01 -1.323458e+01 -1.407499e+01 -1.427523e+01 -1.493531e+01 -1.488421e+01 -1.536874e+01 -1.515822e+01 -1.551852e+01 -1.523264e+01 
-1.593552e+01 -1.562256e+01 -1.596443e+01 -1.563177e+01 -1.593870e+01 -1.548516e+01 -1.566115e+01 -1.499513e+01 -1.490128e+01 -1.382592e+01 -1.326731e+01 -1.193724e+01 -9.819228e+00 -9.264316e+00 -8.050093e+00 -6.729352e+00 -4.079697e+00 -6.729352e+00 -8.050093e+00 -9.264316e+00 -9.819228e+00 -1.193724e+01 -1.326731e+01 -1.382592e+01 -1.490128e+01 -1.499513e+01 -1.566115e+01 -1.548516e+01 -1.593870e+01 -1.563177e+01 -1.596443e+01 -1.562256e+01 
-1.625103e+01 -1.595536e+01 -1.632545e+01 -1.602647e+01 -1.639522e+01 -1.595675e+01 -1.622591e+01 -1.555117e+01 -1.550397e+01 -1.418799e+01 -1.337856e+01 -1.163825e+01 -1.193660e+01 -1.096903e+01 -7.363635e+00 -6.374065e+00 -2.760832e+00 -6.374065e+00 -7.363635e+00 -1.096903e+01 -1.193660e+01 -1.163825e+01 -1.337856e+01 -1.418799e+01 -1.550397e+01 -1.555117e+01 -1.622591e+01 -1.595675e+01 -1.639522e+01 -1.602647e+01 -1.632545e+01 -1.595536e+01 
-1.673671e+01 -1.645764e+01 -1.689923e+01 -1.667349e+01 -1.719073e+01 -1.687754e+01 -1.741767e+01 -1.703144e+01 -1.731743e+01 -1.604024e+01 -1.642478e+01 -1.188395e+01 -3.802674e+00 1.336175e+00 9.400989e+00 1.406544e+01 1.797411e+01 1.406544e+01 9.400989e+00 1.336175e+00 -3.802674e+00 -1.188395e+01 -1.642478e+01 -1.604024e+01 -1.731743e+01 -1.703144e+01 -1.741767e+01 -1.687754e+01 -1.719073e+01 -1.667349e+01 -1.689923e+01 -1.645764e+01 
-1.712878e+01 -1.689635e+01 -1.736069e+01 -1.719620e+01 -1.778947e+01 -1.751497e+01 -1.831608e+01 -1.812277e+01 -1.862962e+01 -1.600414e+01 -7.954397e+00 8.738100e+00 2.818322e+01 3.755177e+01 4.378675e+01 4.644464e+01 4.731895e+01 4.644464e+01 4.378675e+01 3.755177e+01 2.818322e+01 8.738100e+00 -7.954397e+00 -1.600414e+01 -1.862962e+01 -1.812277e+01 -1.831608e+01 -1.751497e+01 -1.778947e+01 -1.719620e+01 -1.736069e+01 -1.689635e+01 
-1.755660e+01 -1.737601e+01 -1.789992e+01 -1.783362e+01 -1.858785e+01 -1.847779e+01 -1.974356e+01 -2.014487e+01 -1.847498e+01 -3.611602e+00 2.249706e+01 4.017030e+01 4.882084e+01 5.003186e+01 4.957162e+01 4.915505e+01 4.884954e+01 4.915505e+01 4.957162e+01 5.003186e+01 4.882084e+01 4.017030e+01 2.249706e+01 -3.611602e+00 -1.847498e+01 -2.014487e+01 -1.974356e+01 -1.847779e+01 -1.858785e+01 -1.783362e+01 -1.789992e+01 -1.737601e+01 
-1.784357e+01 -1.776928e+01 -1.827909e+01 -1.832539e+01 -1.907870e+01 -1.892013e+01 -2.035984e+01 -1.928216e+01 -4.747574e+00 2.372026e+01 4.553090e+01 4.973996e+01 4.926961e+01 4.864540e+01 4.851446e+01 4.849462e+01 4.869598e+01 4.849462e+01 4.851446e+01 4.864540e+01 4.926961e+01 4.973996e+01 4.553090e+01 2.372026e+01 -4.747574e+00 -1.928216e+01 -2.035984e+01 -1.892013e+01 -1.907870e+01 -1.832539e+01 -1.827909e+01 -1.776928e+01 
-1.787368e+01 -1.791397e+01 -1.842770e+01 -1.857499e+01 -1.944328e+01 -1.899932e+01 -2.154895e+01 -1.204272e+01 2.164320e+01 4.563385e+01 4.910521e+01 4.943077e+01 4.990291e+01 4.998194e+01 5.005947e+01 4.996871e+01 4.999630e+01 4.996871e+01 5.005947e+01 4.998194e+01 4.990291e+01 4.943077e+01 4.910521e+01 4.563385e+01 2.164320e+01 -1.204272e+01 -2.154895e+01 -1.899932e+01 -1.944328e+01 -1.857499e+01 -1.842770e+01 -1.791397e+01 
-1.770906e+01 -1.794572e+01 -1.842287e+01 -1.889414e+01 -1.966877e+01 -1.970927e+01 -2.210780e+01 2.019972e+00 4.067126e+01 5.157410e+01 5.004216e+01 5.014781e+01 4.992035e+01 4.965751e+01 4.965510e+01 4.953379e+01 4.967757e+01 4.953379e+01 4.965510e+01 4.965751e+01 4.992035e+01 5.014781e+01 5.004216e+01 5.157410e+01 4.067126e+01 2.019972e+00 -2.210780e+01 -1.970927e+01 -1.966877e+01 -1.889414e+01 -1.842287e+01 -1.794572e+01 
-1.705401e+01 -1.753784e+01 -1.787614e+01 -1.884475e+01 -1.894373e+01 -2.026221e+01 -1.876643e+01 1.747366e+01 5.001959e+01 5.124030e+01 5.062394e+01 5.009929e+01 5.050406e+01 5.027080e+01 5.052961e+01 5.038418e+01 5.055414e+01 5.038418e+01 5.052961e+01 5.027080e+01 5.050406e+01 5.009929e+01 5.062394e+01 5.124030e+01 5.001959e+01 1.747366e+01 -1.876643e+01 -2.026221e+01 -1.894373e+01 -1.884475e+01 -1.787614e+01 -1.753784e+01 
-1.644985e+01 -1.715355e+01 -1.740565e+01 -1.884042e+01 -1.841361e+01 -2.068054e+01 -1.486178e+01 2.677460e+01 5.334522e+01 5.129361e+01 5.164659e+01 5.037426e+01 5.057346e+01 5.002325e+01 5.016031e+01 4.991291e+01 5.009620e+01 4.991291e+01 5.016031e+01 5.002325e+01 5.057346e+01 5.037426e+01 5.164659e+01 5.129361e+01 5.334522e+01 2.677460e+01 -1.486178e+01 -2.068054e+01 -1.841361e+01 -1.884042e+01 -1.740565e+01 -1.715355e+01 
-1.603648e+01 -1.682039e+01 -1.706504e+01 -1.864676e+01 -1.809909e+01 -2.053358e+01 -1.305023e+01 3.006814e+01 5.393906e+01 5.121242e+01 5.196108e+01 5.048729e+01 5.091311e+01 5.038127e+01 5.067968e+01 5.044351e+01 5.066927e+01 5.044351e+01 5.067968e+01 5.038127e+01 5.091311e+01 5.048729e+01 5.196108e+01 5.121242e+01 5.393906e+01 3.006814e+01 -1.305023e+01 -2.053358e+01 -1.809909e+01 -1.864676e+01 -1.706504e+01 -1.682039e+01 
-1.644985e+01 -1.715355e+01 -1.740565e+01 -1.884042e+01 -1.841361e+01 -2.068054e+01 -1.486178e+01 2.677460e+01 5.334522e+01 5.129361e+01 5.164659e+01 5.037426e+01 5.057346e+01 5.002325e+01 5.016031e+01 4.991291e+01 5.009620e+01 4.991291e+01 5.016031e+01 5.002325e+01 5.057346e+01 5.037426e+01 5.164659e+01 5.129361e+01 5.334522e+01 2.677460e+01 -1.486178e+01 -2.068054e+01 -1.841361e+01 -1.884042e+01 -1.740565e+01 -1.715355e+01 
-1.705401e+01 -1.753784e+01 -1.787614e+01 -1.884475e+01 -1.894373e+01 -2.026221e+01 -1.876643e+01 1.747366e+01 5.001959e+01 5.124030e+01 5.062394e+01 5.009929e+01 5.050406e+01 5.027080e+01 5.052961e+01 5.038418e+01 5.055414e+01 5.038418e+01 5.052961e+01 5.027080e+01 5.050406e+01 5.009929e+01 5.062394e+01 5.124030e+01 5.001959e+01 1.747366e+01 -1.876643e+01 -2.026221e+01 -1.894373e+01 -1.884475e+01 -1.787614e+01 -1.753784e+01 
-1.770906e+01 -1.794572e+01 -1.842287e+01 -1.889414e+01 -1.966877e+01 -1.970927e+01 -2.210780e+01 2.019972e+00 4.067126e+01 5.157410e+01 5.004216e+01 5.014781e+01 4.992035e+01 4.965751e+01 4.965510e+01 4.953379e+01 4.967757e+01 4.953379e+01 4.965510e+01 4.965751e+01 4.992035e+01 5.014781e+01 5.004216e+01 5.157410e+01 4.067126e+01 2.019972e+00 -2.210780e+01 -1.970927e+01 -1.966877e+01 -1.889414e+01 -1.842287e+01 -1.794572e+01 
-1.787368e+01 -1.791397e+01 -1.842770e+01 -1.857499e+01 -1.944328e+01 -1.899932e+01 -2.154895e+01 -1.204272e+01 2.164320e+01 4.563385e+01 4.910521e+01 4.943077e+01 4.990291e+01 4.998194e+01 5.005947e+01 4.996871e+01 4.999630e+01 4.996871e+01 5.005947e+01 4.998194e+01 4.990291e+01 4.943077e+01 4.910521e+01 4.563385e+01 2.164320e+01 -1.204272e+01 -2.154895e+01 -1.899932e+01 -1.944328e+01 -1.857499e+01 -1.842770e+01 -1.791397e+01 
-1.784357e+01 -1.776928e+01 -1.827909e+01 -1.832539e+01 -1.907870e+01 -1.892013e+01 -2.035984e+01 -1.928216e+01 -4.747574e+00 2.372026e+01 4.553090e+01 4.973996e+01 4.926961e+01 4.864540e+01 4.851446e+01 4.849462e+01 4.869598e+01 4.849462e+01 4.851446e+01 4.864540e+01 4.926961e+01 4.973996e+01 4.553090e+01 2.372026e+01 -4.747574e+00 -1.928216e+01 -2.035984e+01 -1.892013e+01 -1.907870e+01 -1.832539e+01 -1.827909e+01 -1.776928e+01 
-1.755660e+01 -1.737601e+01 -1.789992e+01 -1.783362e+01 -1.858785e+01 -1.847779e+01 -1.974356e+01 -2.014487e+01 -1.847498e+01 -3.611602e+00 2.249706e+01 4.017030e+01 4.882084e+01 5.003186e+01 4.957162e+01 4.915505e+01 4.884954e+01 4.915505e+01 4.957162e+01 5.003186e+01 4.882084e+01 4.017030e+01 2.249706e+01 -3.611602e+00 -1.847498e+01 -2.014487e+01 -1.974356e+01 -1.847779e+01 -1.858785e+01 -1.783362e+01 -1.789992e+01 -1.737601e+01 
-1.712878e+01 -1.689635e+01 -1.736069e+01 -1.719620e+01 -1.778947e+01 -1.751497e+01 -1.831608e+01 -1.812277e+01 -1.862962e+01 -1.600414e+01 -7.954397e+00 8.738100e+00 2.818322e+01 3.755177e+01 4.378675e+01 4.644464e+01 4.731895e+01 4.644464e+01 4.378675e+01 3.755177e+01 2.818322e+01 8.738100e+00 -7.954397e+00 -1.600414e+01 -1.862962e+01 -1.812277e+01 -1.831608e+01 -1.751497e+01 -1.778947e+01 -1.719620e+01 -1.736069e+01 -1.689635e+01 
-1.673671e+01 -1.645764e+01 -1.689923e+01 -1.667349e+01 -1.719073e+01 -1.687754e+01 -1.741767e+01 -1.703144e+01 -1.731743e+01 -1.604024e+01 -1.642478e+01 -1.188395e+01 -3.802674e+00 1.336175e+00 9.400989e+00 1.406544e+01 1.797411e+01 1.406544e+01 9.400989e+00 1.336175e+00 -3.802674e+00 -1.188395e+01 -1.642478e+01 -1.604024e+01 -1.731743e+01 -1.703144e+01 -1.741767e+01 -1.687754e+01 -1.719073e+01 -1.667349e+01 -1.689923e+01 -1.645764e+01 
-1.625103e+01 -1.595536e+01 -1.632545e+01 -1.602647e+01 -1.639522e+01 -1.595675e+01 -1.622591e+01 -1.555117e+01 -1.550397e+01 -1.418799e+01 -1.337856e+01 -1.163825e+01 -1.193660e+01 -1.096903e+01 -7.363635e+00 -6.374065e+00 -2.760832e+00 -6.374065e+00 -7.363635e+00 -1.096903e+01 -1.193660e+01 -1.163825e+01 -1.337856e+01 -1.418799e+01 -1.550397e+01 -1.555117e+01 -1.622591e+01 -1.595675e+01 -1.639522e+01 -1.602647e+01 -1.632545e+01 -1.595536e+01 
-1.593552e+01 -1.562256e+01 -1.596443e+01 -1.563177e+01 -1.593870e+01 -1.548516e+01 -1.566115e+01 -1.499513e+01 -1.490128e+01 -1.382592e+01 -1.326731e+01 -1.193724e+01 -9.819228e+00 -9.264316e+00 -8.050093e+00 -6.729352e+00 -4.079697e+00 -6.729352e+00 -8.050093e+00 -9.264316e+00 -9.819228e+00 -1.193724e+01 -1.326731e+01 -1.382592e+01 -1.490128e+01 -1.499513e+01 -1.566115e+01 -1.548516e+01 -1.593870e+01 -1.563177e+01 -1.596443e+01 -1.562256e+01 
-1.554080e+01 -1.523264e+01 -1.551852e+01 -1.515822e+01 -1.536874e+01 -1.488421e+01 -1.493531e+01 -1.427523e+01 -1.407499e+01 -1.323458e+01 -1.272808e+01 -1.211632e+01 -1.149744e+01 -1.177022e+01 -1.016046e+01 -9.136545e+00 -7.234251e+00 -9.136545e+00 -1.016046e+01 -1.177022e+01 -1.149744e+01 -1.211632e+01 -1.272808e+01 -1.323458e+01 -1.407499e+01 -1.427523e+01 -1.493531e+01 -1.488421e+01 -1.536874e+01 -1.515822e+01 -1.551852e+01 -1.523264e+01 
-1.533426e+01 -1.501997e+01 -1.528657e+01 -1.490879e+01 -1.508024e+01 -1.458758e+01 -1.458848e+01 -1.394345e+01 -1.369924e+01 -1.292943e+01 -1.238392e+01 -1.182750e+01 -1.087636e+01 -1.078842e+01 -1.027188e+01 -1.004442e+01 -8.682630e+00 -1.004442e+01 -1.027188e+01 -1.078842e+01 -1.087636e+01 -1.182750e+01 -1.238392e+01 -1.292943e+01 -1.369924e+01 -1.394345e+01 -1.458848e+01 -1.458758e+01 -1.508024e+01 -1.490879e+01 -1.528657e+01 -1.501997e+01 
-1.507036e+01 -1.477077e+01 -1.500340e+01 -1.463211e+01 -1.475780e+01 -1.428759e+01 -1.424807e+01 -1.367854e+01 -1.343546e+01 -1.286137e+01 -1.244508e+01 -1.217130e+01 -1.169394e+01 -1.181595e+01 -1.110945e+01 -1.093748e+01 -9.970540e+00 -1.093748e+01 -1.110945e+01 -1.181595e+01 -1.169394e+01 -1.217130e+01 -1.244508e+01 -1.286137e+01 -1.343546e+01 -1.367854e+01 -1.424807e+01 -1.428759e+01 -1.475780e+01 -1.463211e+01 -1.500340e+01 -1.477077e+01 
-1.497197e+01 -1.466709e+01 -1.489166e+01 -1.450742e+01 -1.461175e+01 -1.412780e+01 -1.405251e+01 -1.347022e+01 -1.317205e+01 -1.258302e+01 -1.208579e+01 -1.173510e+01 -1.112696e+01 -1.107203e+01 -1.044603e+01 -1.041542e+01 -9.543767e+00 -1.041542e+01 -1.044603e+01 -1.107203e+01 -1.112696e+01 -1.173510e+01 -1.208579e+01 -1.258302e+01 -1.317205e+01 -1.347022e+01 -1.405251e+01 -1.412780e+01 -1.461175e+01 -1.450742e+01 -1.489166e+01 -1.466709e+01 
-1.483985e+01 -1.454994e+01 -1.475841e+01 -1.439306e+01 -1.448445e+01 -1.403592e+01 -1.396104e+01 -1.344734e+01 -1.317918e+01 -1.270555e+01 -1.229637e+01 -1.208009e+01 -1.161895e+01 -1.165161e+01 -1.094705e+01 -1.090584e+01 -1.009357e+01 -1.090584e+01 -1.094705e+01 -1.165161e+01 -1.161895e+01 -1.208009e+01 -1.229637e+01 -1.270555e+01 -1.317918e+01 -1.344734e+01 -1.396104e+01 -1.403592e+01 -1.448445e+01 -1.439306e+01 -1.475841e+01 -1.454994e+01 
