# vtk DataFile Version 2.0
Comment goes here
ASCII

DATASET STRUCTURED_POINTS
FIELD FieldData 1
TIME 1 1 double
1.14000000
DIMENSIONS    32   32   1

ORIGIN    0.000   0.000   0.000
SPACING   0.03125 0.03125   1.000

POINT_DATA   1024
SCALARS P double
LOOKUP_TABLE default

-9.670015e+00 -9.537713e+00 -9.680668e+00 -9.556665e+00 -9.694433e+00 -9.582888e+00 -9.714319e+00 -9.663804e+00 -9.793514e+00 -9.845928e+00 -9.901974e+00 -9.992897e+00 -9.808307e+00 -9.756373e+00 -9.238212e+00 -9.014098e+00 -8.658936e+00 -9.014098e+00 -9.238212e+00 -9.756373e+00 -9.808307e+00 -9.992897e+00 -9.901974e+00 -9.845928e+00 -9.793514e+00 -9.663804e+00 -9.714319e+00 -9.582888e+00 -9.694433e+00 -9.556665e+00 -9.680668e+00 -9.537713e+00 
-9.586874e+00 -9.481968e+00 -9.595942e+00 -9.495949e+00 -9.606391e+00 -9.513053e+00 -9.623497e+00 -9.579384e+00 -9.700407e+00 -9.741548e+00 -9.813013e+00 -9.888223e+00 -9.764479e+00 -9.741270e+00 -9.336339e+00 -9.181087e+00 -8.840431e+00 -9.181087e+00 -9.336339e+00 -9.741270e+00 -9.764479e+00 -9.888223e+00 -9.813013e+00 -9.741548e+00 -9.700407e+00 -9.579384e+00 -9.623497e+00 -9.513053e+00 -9.606391e+00 -9.495949e+00 -9.595942e+00 -9.481968e+00 
-9.665684e+00 -9.533325e+00 -9.682355e+00 -9.561690e+00 -9.716792e+00 -9.611585e+00 -9.776249e+00 -9.733786e+00 -9.907808e+00 -9.969962e+00 -1.006510e+01 -1.018485e+01 -1.001999e+01 -1.004146e+01 -9.526629e+00 -9.292173e+00 -8.930927e+00 -9.292173e+00 -9.526629e+00 -1.004146e+01 -1.001999e+01 -1.018485e+01 -1.006510e+01 -9.969962e+00 -9.907808e+00 -9.733786e+00 -9.776249e+00 -9.611585e+00 -9.716792e+00 -9.561690e+00 -9.682355e+00 -9.533325e+00 
-9.587648e+00 -9.485208e+00 -9.608976e+00 -9.518707e+00 -9.657021e+00 -9.576523e+00 -9.736962e+00 -9.701414e+00 -9.884047e+00 -9.919336e+00 -1.003620e+01 -1.010753e+01 -9.996031e+00 -1.006751e+01 -9.748723e+00 -9.651740e+00 -9.254295e+00 -9.651740e+00 -9.748723e+00 -1.006751e+01 -9.996031e+00 -1.010753e+01 -1.003620e+01 -9.919336e+00 -9.884047e+00 -9.701414e+00 -9.736962e+00 -9.576523e+00 -9.657021e+00 -9.518707e+00 -9.608976e+00 -9.485208e+00 
-9.668806e+00 -9.542055e+00 -9.708649e+00 -9.603892e+00 -9.802960e+00 -9.705315e+00 -9.941241e+00 -9.880441e+00 -1.014073e+01 -1.015582e+01 -1.031220e+01 -1.040612e+01 -1.019224e+01 -1.034175e+01 -9.634051e+00 -9.243351e+00 -8.822270e+00 -9.243351e+00 -9.634051e+00 -1.034175e+01 -1.019224e+01 -1.040612e+01 -1.031220e+01 -1.015582e+01 -1.014073e+01 -9.880441e+00 -9.941241e+00 -9.705315e+00 -9.802960e+00 -9.603892e+00 -9.708649e+00 -9.542055e+00 
-9.630610e+00 -9.542265e+00 -9.684954e+00 -9.623479e+00 -9.804533e+00 -9.733670e+00 -9.951767e+00 -9.879541e+00 -1.012276e+01 -1.005832e+01 -1.020089e+01 -1.010199e+01 -9.866412e+00 -1.000772e+01 -9.714706e+00 -9.579723e+00 -8.857542e+00 -9.579723e+00 -9.714706e+00 -1.000772e+01 -9.866412e+00 -1.010199e+01 -1.020089e+01 -1.005832e+01 -1.012276e+01 -9.879541e+00 -9.951767e+00 -9.733670e+00 -9.804533e+00 -9.623479e+00 -9.684954e+00 -9.542265e+00 
-9.744893e+00 -9.642781e+00 -9.831564e+00 -9.766183e+00 -1.001355e+01 -9.908806e+00 -1.021471e+01 -1.006204e+01 -1.043349e+01 -1.027577e+01 -1.056772e+01 -1.052004e+01 -1.025621e+01 -1.061446e+01 -8.804901e+00 -7.629750e+00 -6.984885e+00 -7.629750e+00 -8.804901e+00 -1.061446e+01 -1.025621e+01 -1.052004e+01 -1.056772e+01 -1.027577e+01 -1.043349e+01 -1.006204e+01 -1.021471e+01 -9.908806e+00 -1.001355e+01 -9.766183e+00 -9.831564e+00 -9.642781e+00 
-9.798899e+00 -9.747496e+00 -9.909678e+00 -9.902689e+00 -1.011722e+01 -1.004188e+01 -1.030053e+01 -1.013958e+01 -1.046807e+01 -1.024423e+01 -1.046072e+01 -9.852111e+00 -9.312744e+00 -9.453692e+00 -9.041376e+00 -8.416083e+00 -6.987789e+00 -8.416083e+00 -9.041376e+00 -9.453692e+00 -9.312744e+00 -9.852111e+00 -1.046072e+01 -1.024423e+01 -1.046807e+01 -1.013958e+01 -1.030053e+01 -1.004188e+01 -1.011722e+01 -9.902689e+00 -9.909678e+00 -9.747496e+00 
-9.953760e+00 -9.909041e+00 -1.010542e+01 -1.011170e+01 -1.037276e+01 -1.024933e+01 -1.059272e+01 -1.028033e+01 -1.085148e+01 -1.033217e+01 -1.105919e+01 -1.106989e+01 -1.196231e+01 -1.104508e+01 -3.375416e+00 -3.107822e-01 4.275707e-01 -3.107822e-01 -3.375416e+00 -1.104508e+01 -1.196231e+01 -1.106989e+01 -1.105919e+01 -1.033217e+01 -1.085148e+01 -1.028033e+01 -1.059272e+01 -1.024933e+01 -1.037276e+01 -1.011170e+01 -1.010542e+01 -9.909041e+00 
-1.008185e+01 -1.009863e+01 -1.026474e+01 -1.034291e+01 -1.055107e+01 -1.046524e+01 -1.073408e+01 -1.046945e+01 -1.104620e+01 -1.092910e+01 -1.150121e+01 -8.812077e+00 1.969663e+00 1.289791e+01 2.548824e+01 3.346221e+01 3.433278e+01 3.346221e+01 2.548824e+01 1.289791e+01 1.969663e+00 -8.812077e+00 -1.150121e+01 -1.092910e+01 -1.104620e+01 -1.046945e+01 -1.073408e+01 -1.046524e+01 -1.055107e+01 -1.034291e+01 -1.026474e+01 -1.009863e+01 
-1.016403e+01 -1.022036e+01 -1.039062e+01 -1.052261e+01 -1.072409e+01 -1.063812e+01 -1.092877e+01 -1.056177e+01 -1.141761e+01 -9.942069e+00 -7.703369e+00 5.390851e+00 2.949805e+01 4.307121e+01 4.726938e+01 4.867199e+01 4.924010e+01 4.867199e+01 4.726938e+01 4.307121e+01 2.949805e+01 5.390851e+00 -7.703369e+00 -9.942069e+00 -1.141761e+01 -1.056177e+01 -1.092877e+01 -1.063812e+01 -1.072409e+01 -1.052261e+01 -1.039062e+01 -1.022036e+01 
-1.020213e+01 -1.032961e+01 -1.047883e+01 -1.070516e+01 -1.085464e+01 -1.080255e+01 -1.100899e+01 -1.044015e+01 -1.148174e+01 -6.742034e+00 1.133456e+01 3.207329e+01 4.440003e+01 4.723511e+01 4.674174e+01 4.626796e+01 4.620830e+01 4.626796e+01 4.674174e+01 4.723511e+01 4.440003e+01 3.207329e+01 1.133456e+01 -6.742034e+00 -1.148174e+01 -1.044015e+01 -1.100899e+01 -1.080255e+01 -1.085464e+01 -1.070516e+01 -1.047883e+01 -1.032961e+01 
-9.995234e+00 -1.020628e+01 -1.033055e+01 -1.068830e+01 -1.076020e+01 -1.085413e+01 -1.093698e+01 -1.061480e+01 -1.201672e+01 2.826743e+00 3.301959e+01 4.669642e+01 4.633989e+01 4.718613e+01 4.740618e+01 4.783770e+01 4.804273e+01 4.783770e+01 4.740618e+01 4.718613e+01 4.633989e+01 4.669642e+01 3.301959e+01 2.826743e+00 -1.201672e+01 -1.061480e+01 -1.093698e+01 -1.085413e+01 -1.076020e+01 -1.068830e+01 -1.033055e+01 -1.020628e+01 
-9.736331e+00 -1.003687e+01 -1.016390e+01 -1.069503e+01 -1.072567e+01 -1.104884e+01 -1.082954e+01 -1.113333e+01 -1.044802e+01 1.726236e+01 4.444459e+01 4.710759e+01 4.704052e+01 4.692060e+01 4.698927e+01 4.667806e+01 4.689232e+01 4.667806e+01 4.698927e+01 4.692060e+01 4.704052e+01 4.710759e+01 4.444459e+01 1.726236e+01 -1.044802e+01 -1.113333e+01 -1.082954e+01 -1.104884e+01 -1.072567e+01 -1.069503e+01 -1.016390e+01 -1.003687e+01 
-9.160270e+00 -9.576934e+00 -9.666471e+00 -1.042637e+01 -1.028153e+01 -1.093920e+01 -9.925541e+00 -1.106745e+01 -4.066860e+00 2.879070e+01 4.855282e+01 4.717436e+01 4.775424e+01 4.737429e+01 4.780392e+01 4.764596e+01 4.796580e+01 4.764596e+01 4.780392e+01 4.737429e+01 4.775424e+01 4.717436e+01 4.855282e+01 2.879070e+01 -4.066860e+00 -1.106745e+01 -9.925541e+00 -1.093920e+01 -1.028153e+01 -1.042637e+01 -9.666471e+00 -9.576934e+00 
-8.709115e+00 -9.191070e+00 -9.261114e+00 -1.016548e+01 -9.926958e+00 -1.077677e+01 -9.359623e+00 -1.066681e+01 1.008856e+00 3.554824e+01 4.802131e+01 4.610505e+01 4.741492e+01 4.658196e+01 4.719707e+01 4.668569e+01 4.714006e+01 4.668569e+01 4.719707e+01 4.658196e+01 4.741492e+01 4.610505e+01 4.802131e+01 3.554824e+01 1.008856e+00 -1.066681e+01 -9.359623e+00 -1.077677e+01 -9.926958e+00 -1.016548e+01 -9.261114e+00 -9.191070e+00 
-8.353493e+00 -8.883650e+00 -8.939289e+00 -9.935299e+00 -9.657188e+00 -1.058188e+01 -9.099557e+00 -1.031327e+01 2.511482e+00 3.885849e+01 5.002339e+01 4.709939e+01 4.845728e+01 4.737892e+01 4.802835e+01 4.758316e+01 4.802021e+01 4.758316e+01 4.802835e+01 4.737892e+01 4.845728e+01 4.709939e+01 5.002339e+01 3.885849e+01 2.511482e+00 -1.031327e+01 -9.099557e+00 -1.058188e+01 -9.657188e+00 -9.935299e+00 -8.939289e+00 -8.883650e+00 
-8.709115e+00 -9.191070e+00 -9.261114e+00 -1.016548e+01 -9.926958e+00 -1.077677e+01 -9.359623e+00 -1.066681e+01 1.008856e+00 3.554824e+01 4.802131e+01 4.610505e+01 4.741492e+01 4.658196e+01 4.719707e+01 4.668569e+01 4.714006e+01 4.668569e+01 4.719707e+01 4.658196e+01 4.741492e+01 4.610505e+01 4.802131e+01 3.554824e+01 1.008856e+00 -1.066681e+01 -9.359623e+00 -1.077677e+01 -9.926958e+00 -1.016548e+01 -9.261114e+00 -9.191070e+00 
-9.160270e+00 -9.576934e+00 -9.666471e+00 -1.042637e+01 -1.028153e+01 -1.093920e+01 -9.925541e+00 -1.106745e+01 -4.066860e+00 2.879070e+01 4.855282e+01 4.717436e+01 4.775424e+01 4.737429e+01 4.780392e+01 4.764596e+01 4.796580e+01 4.764596e+01 4.780392e+01 4.737429e+01 4.775424e+01 4.717436e+01 4.855282e+01 2.879070e+01 -4.066860e+00 -1.106745e+01 -9.925541e+00 -1.093920e+01 -1.028153e+01 -1.042637e+01 -9.666471e+00 -9.576934e+00 
-9.736331e+00 -1.003687e+01 -1.016390e+01 -1.069503e+01 -1.072567e+01 -1.104884e+01 -1.082954e+01 -1.113333e+01 -1.044802e+01 1.726236e+01 4.444459e+01 4.710759e+01 4.704052e+01 4.692060e+01 4.698927e+01 4.667806e+01 4.689232e+01 4.667806e+01 4.698927e+01 4.692060e+01 4.704052e+01 4.710759e+01 4.444459e+01 1.726236e+01 -1.044802e+01 -1.113333e+01 -1.082954e+01 -1.104884e+01 -1.072567e+01 -1.069503e+01 -1.016390e+01 -1.003687e+01 
-9.995234e+00 -1.020628e+01 -1.033055e+01 -1.068830e+01 -1.076020e+01 -1.085413e+01 -1.093698e+01 -1.061480e+01 -1.201672e+01 2.826743e+00 3.301959e+01 4.669642e+01 4.633989e+01 4.718613e+01 4.740618e+01 4.783770e+01 4.804273e+01 4.783770e+01 4.740618e+01 4.718613e+01 4.633989e+01 4.669642e+01 3.301959e+01 2.826743e+00 -1.201672e+01 -1.061480e+01 -1.093698e+01 -1.085413e+01 -1.076020e+01 -1.068830e+01 -1.033055e+01 -1.020628e+01 
-1.020213e+01 -1.032961e+01 -1.047883e+01 -1.070516e+01 -1.085464e+01 -1.080255e+01 -1.100899e+01 -1.044015e+01 -1.148174e+01 -6.742034e+00 1.133456e+01 3.207329e+01 4.440003e+01 4.723511e+01 4.674174e+01 4.626796e+01 4.620830e+01 4.626796e+01 4.674174e+01 4.723511e+01 4.440003e+01 3.207329e+01 1.133456e+01 -6.742034e+00 -1.148174e+01 -1.044015e+01 -1.100899e+01 -1.080255e+01 -1.085464e+01 -1.070516e+01 -1.047883e+01 -1.032961e+01 
-1.016403e+01 -1.022036e+01 -1.039062e+01 -1.052261e+01 -1.072409e+01 -1.063812e+01 -1.092877e+01 -1.056177e+01 -1.141761e+01 -9.942069e+00 -7.703369e+00 5.390851e+00 2.949805e+01 4.307121e+01 4.726938e+01 4.867199e+01 4.924010e+01 4.867199e+01 4.726938e+01 4.307121e+01 2.949805e+01 5.390851e+00 -7.703369e+00 -9.942069e+00 -1.141761e+01 -1.056177e+01 -1.092877e+01 -1.063812e+01 -1.072409e+01 -1.052261e+01 -1.039062e+01 -1.022036e+01 
-1.008185e+01 -1.009863e+01 -1.026474e+01 -1.034291e+01 -1.055107e+01 -1.046524e+01 -1.073408e+01 -1.046945e+01 -1.104620e+01 -1.092910e+01 -1.150121e+01 -8.812077e+00 1.969663e+00 1.289791e+01 2.548824e+01 3.346221e+01 3.433278e+01 3.346221e+01 2.548824e+01 1.289791e+01 1.969663e+00 -8.812077e+00 -1.150121e+01 -1.092910e+01 -1.104620e+01 -1.046945e+01 -1.073408e+01 -1.046524e+01 -1.055107e+01 -1.034291e+01 -1.026474e+01 -1.009863e+01 
-9.953760e+00 -9.909041e+00 -1.010542e+01 -1.011170e+01 -1.037276e+01 -1.024933e+01 -1.059272e+01 -1.028033e+01 -1.085148e+01 -1.033217e+01 -1.105919e+01 -1.106989e+01 -1.196231e+01 -1.104508e+01 -3.375416e+00 -3.107822e-01 4.275707e-01 -3.107822e-01 -3.375416e+00 -1.104508e+01 -1.196231e+01 -1.106989e+01 -1.105919e+01 -1.033217e+01 -1.085148e+01 -1.028033e+01 -1.059272e+01 -1.024933e+01 -1.037276e+01 -1.011170e+01 -1.010542e+01 -9.909041e+00 
-9.798899e+00 -9.747496e+00 -9.909678e+00 -9.902689e+00 -1.011722e+01 -1.004188e+01 -1.030053e+01 -1.013958e+01 -1.046807e+01 -1.024423e+01 -1.046072e+01 -9.852111e+00 -9.312744e+00 -9.453692e+00 -9.041376e+00 -8.416083e+00 -6.987789e+00 -8.416083e+00 -9.041376e+00 -9.453692e+00 -9.312744e+00 -9.852111e+00 -1.046072e+01 -1.024423e+01 -1.046807e+01 -1.013958e+01 -1.030053e+01 -1.004188e+01 -1.011722e+01 -9.902689e+00 -9.909678e+00 -9.747496e+00 
-9.744893e+00 -9.642781e+00 -9.831564e+00 -9.766183e+00 -1.001355e+01 -9.908806e+00 -1.021471e+01 -1.006204e+01 -1.043349e+01 -1.027577e+01 -1.056772e+01 -1.052004e+01 -1.025621e+01 -1.061446e+01 -8.804901e+00 -7.629750e+00 -6.984885e+00 -7.629750e+00 -8.804901e+00 -1.061446e+01 -1.025621e+01 -1.052004e+01 -1.056772e+01 -1.027577e+01 -1.043349e+01 -1.006204e+01 -1.021471e+01 -9.908806e+00 -1.001355e+01 -9.766183e+00 -9.831564e+00 -9.642781e+00 
-9.630610e+00 -9.542265e+00 -9.684954e+00 -9.623479e+00 -9.804533e+00 -9.733670e+00 -9.951767e+00 -9.879541e+00 -1.012276e+01 -1.005832e+01 -1.020089e+01 -1.010199e+01 -9.866412e+00 -1.000772e+01 -9.714706e+00 -9.579723e+00 -8.857542e+00 -9.579723e+00 -9.714706e+00 -1.000772e+01 -9.866412e+00 -1.010199e+01 -1.020089e+01 -1.005832e+01 -1.012276e+01 -9.879541e+00 -9.951767e+00 -9.733670e+00 -9.804533e+00 -9.623479e+00 -9.684954e+00 -9.542265e+00 
-9.668806e+00 -9.542055e+00 -9.708649e+00 -9.603892e+00 -9.802960e+00 -9.705315e+00 -9.941241e+00 -9.880441e+00 -1.014073e+01 -1.015582e+01 -1.031220e+01 -1.040612e+01 -1.019224e+01 -1.034175e+01 -9.634051e+00 -9.243351e+00 -8.822270e+00 -9.243351e+00 -9.634051e+00 -1.034175e+01 -1.019224e+01 -1.040612e+01 -1.031220e+01 -1.015582e+01 -1.014073e+01 -9.880441e+00 -9.941241e+00 -9.705315e+00 -9.802960e+00 -9.603892e+00 -9.708649e+00 -9.542055e+00 
-9.587648e+00 -9.485208e+00 -9.608976e+00 -9.518707e+00 -9.657021e+00 -9.576523e+00 -9.736962e+00 -9.701414e+00 -9.884047e+00 -9.919336e+00 -1.003620e+01 -1.010753e+01 -9.996031e+00 -1.006751e+01 -9.748723e+00 -9.651740e+00 -9.254295e+00 -9.651740e+00 -9.748723e+00 -1.006751e+01 -9.996031e+00 -1.010753e+01 -1.003620e+01 -9.919336e+00 -9.884047e+00 -9.701414e+00 -9.736962e+00 -9.576523e+00 -9.657021e+00 -9.518707e+00 -9.608976e+00 -9.485208e+00 
-9.665684e+00 -9.533325e+00 -9.682355e+00 -9.561690e+00 -9.716792e+00 -9.611585e+00 -9.776249e+00 -9.733786e+00 -9.907808e+00 -9.969962e+00 -1.006510e+01 -1.018485e+01 -1.001999e+01 -1.004146e+01 -9.526629e+00 -9.292173e+00 -8.930927e+00 -9.292173e+00 -9.526629e+00 -1.004146e+01 -1.001999e+01 -1.018485e+01 -1.006510e+01 -9.969962e+00 -9.907808e+00 -9.733786e+00 -9.776249e+00 -9.611585e+00 -9.716792e+00 -9.561690e+00 -9.682355e+00 -9.533325e+00 
-9.586874e+00 -9.481968e+00 -9.595942e+00 -9.495949e+00 -9.606391e+00 -9.513053e+00 -9.623497e+00 -9.579384e+00 -9.700407e+00 -9.741548e+00 -9.813013e+00 -9.888223e+00 -9.764479e+00 -9.741270e+00 -9.336339e+00 -9.181087e+00 -8.840431e+00 -9.181087e+00 -9.336339e+00 -9.741270e+00 -9.764479e+00 -9.888223e+00 -9.813013e+00 -9.741548e+00 -9.700407e+00 -9.579384e+00 -9.623497e+00 -9.513053e+00 -9.606391e+00 -9.495949e+00 -9.595942e+00 -9.481968e+00 
