# vtk DataFile Version 2.0
Comment goes here
ASCII

DATASET STRUCTURED_POINTS
FIELD FieldData 1
TIME 1 1 double
0.34000000
DIMENSIONS    32   32   1

ORIGIN    0.000   0.000   0.000
SPACING   0.03125 0.03125   1.000

POINT_DATA   1024
SCALARS P double
LOOKUP_TABLE default

-1.660179e+01 -1.683586e+01 -1.688240e+01 -1.740401e+01 -1.773012e+01 -1.854453e+01 -1.914957e+01 -2.023264e+01 -2.109837e+01 -2.234701e+01 -2.342458e+01 -2.461523e+01 -2.580680e+01 -2.651551e+01 -2.756009e+01 -2.736385e+01 -2.775221e+01 -2.736385e+01 -2.756009e+01 -2.651551e+01 -2.580680e+01 -2.461523e+01 -2.342458e+01 -2.234701e+01 -2.109837e+01 -2.023264e+01 -1.914957e+01 -1.854453e+01 -1.773012e+01 -1.740401e+01 -1.688240e+01 -1.683586e+01 
-1.665554e+01 -1.685376e+01 -1.694483e+01 -1.743908e+01 -1.782030e+01 -1.861850e+01 -1.929058e+01 -2.037424e+01 -2.131381e+01 -2.258561e+01 -2.371943e+01 -2.495044e+01 -2.607009e+01 -2.669851e+01 -2.708244e+01 -2.632835e+01 -2.669833e+01 -2.632835e+01 -2.708244e+01 -2.669851e+01 -2.607009e+01 -2.495044e+01 -2.371943e+01 -2.258561e+01 -2.131381e+01 -2.037424e+01 -1.929058e+01 -1.861850e+01 -1.782030e+01 -1.743908e+01 -1.694483e+01 -1.685376e+01 
-1.633606e+01 -1.656632e+01 -1.661233e+01 -1.712951e+01 -1.745327e+01 -1.827630e+01 -1.888766e+01 -2.002288e+01 -2.092556e+01 -2.231683e+01 -2.349353e+01 -2.493420e+01 -2.623793e+01 -2.709464e+01 -2.840382e+01 -2.801354e+01 -2.824531e+01 -2.801354e+01 -2.840382e+01 -2.709464e+01 -2.623793e+01 -2.493420e+01 -2.349353e+01 -2.231683e+01 -2.092556e+01 -2.002288e+01 -1.888766e+01 -1.827630e+01 -1.745327e+01 -1.712951e+01 -1.661233e+01 -1.656632e+01 
-1.610754e+01 -1.629851e+01 -1.638662e+01 -1.686973e+01 -1.724553e+01 -1.805701e+01 -1.875089e+01 -1.994107e+01 -2.099721e+01 -2.258290e+01 -2.403679e+01 -2.583499e+01 -2.738792e+01 -2.838424e+01 -2.808581e+01 -2.608679e+01 -2.639352e+01 -2.608679e+01 -2.808581e+01 -2.838424e+01 -2.738792e+01 -2.583499e+01 -2.403679e+01 -2.258290e+01 -2.099721e+01 -1.994107e+01 -1.875089e+01 -1.805701e+01 -1.724553e+01 -1.686973e+01 -1.638662e+01 -1.629851e+01 
-1.555043e+01 -1.576581e+01 -1.580845e+01 -1.630046e+01 -1.661008e+01 -1.743442e+01 -1.805307e+01 -1.931025e+01 -2.031281e+01 -2.211095e+01 -2.359047e+01 -2.581090e+01 -2.710423e+01 -2.851845e+01 -3.096073e+01 -2.918715e+01 -2.845731e+01 -2.918715e+01 -3.096073e+01 -2.851845e+01 -2.710423e+01 -2.581090e+01 -2.359047e+01 -2.211095e+01 -2.031281e+01 -1.931025e+01 -1.805307e+01 -1.743442e+01 -1.661008e+01 -1.630046e+01 -1.580845e+01 -1.576581e+01 
-1.503734e+01 -1.520776e+01 -1.528328e+01 -1.571872e+01 -1.605914e+01 -1.683794e+01 -1.752140e+01 -1.882762e+01 -2.003391e+01 -2.221878e+01 -2.442801e+01 -2.781554e+01 -3.142965e+01 -3.223089e+01 -2.471648e+01 -1.307336e+01 -9.505333e+00 -1.307336e+01 -2.471648e+01 -3.223089e+01 -3.142965e+01 -2.781554e+01 -2.442801e+01 -2.221878e+01 -2.003391e+01 -1.882762e+01 -1.752140e+01 -1.683794e+01 -1.605914e+01 -1.571872e+01 -1.528328e+01 -1.520776e+01 
-1.428787e+01 -1.446917e+01 -1.449824e+01 -1.490948e+01 -1.516555e+01 -1.590039e+01 -1.647375e+01 -1.779028e+01 -1.893268e+01 -2.145587e+01 -2.407777e+01 -2.712910e+01 -1.790562e+01 5.298742e+00 2.449712e+01 4.132586e+01 4.884662e+01 4.132586e+01 2.449712e+01 5.298742e+00 -1.790562e+01 -2.712910e+01 -2.407777e+01 -2.145587e+01 -1.893268e+01 -1.779028e+01 -1.647375e+01 -1.590039e+01 -1.516555e+01 -1.490948e+01 -1.449824e+01 -1.446917e+01 
-1.351803e+01 -1.364750e+01 -1.368856e+01 -1.399722e+01 -1.422892e+01 -1.480779e+01 -1.533955e+01 -1.651779e+01 -1.768548e+01 -2.057285e+01 -2.223774e+01 -1.346971e+01 1.475727e+01 4.641274e+01 5.798855e+01 6.021592e+01 6.308195e+01 6.021592e+01 5.798855e+01 4.641274e+01 1.475727e+01 -1.346971e+01 -2.223774e+01 -2.057285e+01 -1.768548e+01 -1.651779e+01 -1.533955e+01 -1.480779e+01 -1.422892e+01 -1.399722e+01 -1.368856e+01 -1.364750e+01 
-1.265050e+01 -1.277451e+01 -1.276614e+01 -1.299660e+01 -1.311102e+01 -1.351220e+01 -1.383755e+01 -1.477606e+01 -1.553047e+01 -1.840001e+01 -1.277610e+01 1.717144e+01 4.621773e+01 5.477140e+01 5.470136e+01 5.487914e+01 5.575515e+01 5.487914e+01 5.470136e+01 5.477140e+01 4.621773e+01 1.717144e+01 -1.277610e+01 -1.840001e+01 -1.553047e+01 -1.477606e+01 -1.383755e+01 -1.351220e+01 -1.311102e+01 -1.299660e+01 -1.276614e+01 -1.277451e+01 
-1.170899e+01 -1.178172e+01 -1.175441e+01 -1.183217e+01 -1.185057e+01 -1.191688e+01 -1.212421e+01 -1.238199e+01 -1.308931e+01 -1.418896e+01 7.035442e+00 4.151930e+01 5.339126e+01 5.398798e+01 5.498811e+01 5.539365e+01 5.637535e+01 5.539365e+01 5.498811e+01 5.398798e+01 5.339126e+01 4.151930e+01 7.035442e+00 -1.418896e+01 -1.308931e+01 -1.238199e+01 -1.212421e+01 -1.191688e+01 -1.185057e+01 -1.183217e+01 -1.175441e+01 -1.178172e+01 
-1.084328e+01 -1.090629e+01 -1.082997e+01 -1.079195e+01 -1.068622e+01 -1.040254e+01 -1.052472e+01 -9.895799e+00 -1.111765e+01 -5.983112e+00 2.512908e+01 4.864022e+01 5.066552e+01 5.136912e+01 5.144099e+01 5.186184e+01 5.202643e+01 5.186184e+01 5.144099e+01 5.136912e+01 5.066552e+01 4.864022e+01 2.512908e+01 -5.983112e+00 -1.111765e+01 -9.895799e+00 -1.052472e+01 -1.040254e+01 -1.068622e+01 -1.079195e+01 -1.082997e+01 -1.090629e+01 
-9.886126e+00 -9.924472e+00 -9.803106e+00 -9.642295e+00 -9.322963e+00 -8.707492e+00 -8.373140e+00 -6.977470e+00 -7.804408e+00 5.893386e+00 3.661234e+01 4.930336e+01 4.916514e+01 5.093111e+01 5.127169e+01 5.209360e+01 5.229646e+01 5.209360e+01 5.127169e+01 5.093111e+01 4.916514e+01 4.930336e+01 3.661234e+01 5.893386e+00 -7.804408e+00 -6.977470e+00 -8.373140e+00 -8.707492e+00 -9.322963e+00 -9.642295e+00 -9.803106e+00 -9.924472e+00 
-9.153488e+00 -9.221379e+00 -9.062830e+00 -8.876023e+00 -8.331535e+00 -7.554833e+00 -6.735581e+00 -5.266269e+00 -4.676770e+00 1.537747e+01 4.259770e+01 4.752810e+01 4.716873e+01 4.886266e+01 4.904706e+01 4.975699e+01 4.972565e+01 4.975699e+01 4.904706e+01 4.886266e+01 4.716873e+01 4.752810e+01 4.259770e+01 1.537747e+01 -4.676770e+00 -5.266269e+00 -6.735581e+00 -7.554833e+00 -8.331535e+00 -8.876023e+00 -9.062830e+00 -9.221379e+00 
-8.307656e+00 -8.401252e+00 -8.251562e+00 -8.097741e+00 -7.348880e+00 -6.492161e+00 -4.995655e+00 -3.854415e+00 -1.181883e+00 2.213825e+01 4.405724e+01 4.612117e+01 4.686893e+01 4.842149e+01 4.900537e+01 4.974288e+01 4.981647e+01 4.974288e+01 4.900537e+01 4.842149e+01 4.686893e+01 4.612117e+01 4.405724e+01 2.213825e+01 -1.181883e+00 -3.854415e+00 -4.995655e+00 -6.492161e+00 -7.348880e+00 -8.097741e+00 -8.251562e+00 -8.401252e+00 
-7.667421e+00 -7.857070e+00 -7.772464e+00 -7.765951e+00 -6.808376e+00 -5.926822e+00 -3.876816e+00 -2.871950e+00 1.701578e+00 2.613751e+01 4.353464e+01 4.401861e+01 4.563763e+01 4.671748e+01 4.745235e+01 4.801362e+01 4.808237e+01 4.801362e+01 4.745235e+01 4.671748e+01 4.563763e+01 4.401861e+01 4.353464e+01 2.613751e+01 1.701578e+00 -2.871950e+00 -3.876816e+00 -5.926822e+00 -6.808376e+00 -7.765951e+00 -7.772464e+00 -7.857070e+00 
-6.824876e+00 -7.055488e+00 -7.027646e+00 -7.143371e+00 -6.183173e+00 -5.356602e+00 -3.191079e+00 -2.241357e+00 2.868508e+00 2.775013e+01 4.347357e+01 4.374304e+01 4.601491e+01 4.684488e+01 4.786366e+01 4.833015e+01 4.852184e+01 4.833015e+01 4.786366e+01 4.684488e+01 4.601491e+01 4.374304e+01 4.347357e+01 2.775013e+01 2.868508e+00 -2.241357e+00 -3.191079e+00 -5.356602e+00 -6.183173e+00 -7.143371e+00 -7.027646e+00 -7.055488e+00 
-6.368517e+00 -6.679580e+00 -6.706122e+00 -6.941411e+00 -5.921236e+00 -5.190513e+00 -3.094179e+00 -2.399189e+00 2.798372e+00 2.772239e+01 4.296360e+01 4.302199e+01 4.532900e+01 4.596418e+01 4.695767e+01 4.735289e+01 4.752400e+01 4.735289e+01 4.695767e+01 4.596418e+01 4.532900e+01 4.302199e+01 4.296360e+01 2.772239e+01 2.798372e+00 -2.399189e+00 -3.094179e+00 -5.190513e+00 -5.921236e+00 -6.941411e+00 -6.706122e+00 -6.679580e+00 
-6.824876e+00 -7.055488e+00 -7.027646e+00 -7.143371e+00 -6.183173e+00 -5.356602e+00 -3.191079e+00 -2.241357e+00 2.868508e+00 2.775013e+01 4.347357e+01 4.374304e+01 4.601491e+01 4.684488e+01 4.786366e+01 4.833015e+01 4.852184e+01 4.833015e+01 4.786366e+01 4.684488e+01 4.601491e+01 4.374304e+01 4.347357e+01 2.775013e+01 2.868508e+00 -2.241357e+00 -3.191079e+00 -5.356602e+00 -6.183173e+00 -7.143371e+00 -7.027646e+00 -7.055488e+00 
-7.667421e+00 -7.857070e+00 -7.772464e+00 -7.765951e+00 -6.808376e+00 -5.926822e+00 -3.876816e+00 -2.871950e+00 1.701578e+00 2.613751e+01 4.353464e+01 4.401861e+01 4.563763e+01 4.671748e+01 4.745235e+01 4.801362e+01 4.808237e+01 4.801362e+01 4.745235e+01 4.671748e+01 4.563763e+01 4.401861e+01 4.353464e+01 2.613751e+01 1.701578e+00 -2.871950e+00 -3.876816e+00 -5.926822e+00 -6.808376e+00 -7.765951e+00 -7.772464e+00 -7.857070e+00 
-8.307656e+00 -8.401252e+00 -8.251562e+00 -8.097741e+00 -7.348880e+00 -6.492161e+00 -4.995655e+00 -3.854415e+00 -1.181883e+00 2.213825e+01 4.405724e+01 4.612117e+01 4.686893e+01 4.842149e+01 4.900537e+01 4.974288e+01 4.981647e+01 4.974288e+01 4.900537e+01 4.842149e+01 4.686893e+01 4.612117e+01 4.405724e+01 2.213825e+01 -1.181883e+00 -3.854415e+00 -4.995655e+00 -6.492161e+00 -7.348880e+00 -8.097741e+00 -8.251562e+00 -8.401252e+00 
-9.153488e+00 -9.221379e+00 -9.062830e+00 -8.876023e+00 -8.331535e+00 -7.554833e+00 -6.735581e+00 -5.266269e+00 -4.676770e+00 1.537747e+01 4.259770e+01 4.752810e+01 4.716873e+01 4.886266e+01 4.904706e+01 4.975699e+01 4.972565e+01 4.975699e+01 4.904706e+01 4.886266e+01 4.716873e+01 4.752810e+01 4.259770e+01 1.537747e+01 -4.676770e+00 -5.266269e+00 -6.735581e+00 -7.554833e+00 -8.331535e+00 -8.876023e+00 -9.062830e+00 -9.221379e+00 
-9.886126e+00 -9.924472e+00 -9.803106e+00 -9.642295e+00 -9.322963e+00 -8.707492e+00 -8.373140e+00 -6.977470e+00 -7.804408e+00 5.893386e+00 3.661234e+01 4.930336e+01 4.916514e+01 5.093111e+01 5.127169e+01 5.209360e+01 5.229646e+01 5.209360e+01 5.127169e+01 5.093111e+01 4.916514e+01 4.930336e+01 3.661234e+01 5.893386e+00 -7.804408e+00 -6.977470e+00 -8.373140e+00 -8.707492e+00 -9.322963e+00 -9.642295e+00 -9.803106e+00 -9.924472e+00 
-1.084328e+01 -1.090629e+01 -1.082997e+01 -1.079195e+01 -1.068622e+01 -1.040254e+01 -1.052472e+01 -9.895799e+00 -1.111765e+01 -5.983112e+00 2.512908e+01 4.864022e+01 5.066552e+01 5.136912e+01 5.144099e+01 5.186184e+01 5.202643e+01 5.186184e+01 5.144099e+01 5.136912e+01 5.066552e+01 4.864022e+01 2.512908e+01 -5.983112e+00 -1.111765e+01 -9.895799e+00 -1.052472e+01 -1.040254e+01 -1.068622e+01 -1.079195e+01 -1.082997e+01 -1.090629e+01 
-1.170899e+01 -1.178172e+01 -1.175441e+01 -1.183217e+01 -1.185057e+01 -1.191688e+01 -1.212421e+01 -1.238199e+01 -1.308931e+01 -1.418896e+01 7.035442e+00 4.151930e+01 5.339126e+01 5.398798e+01 5.498811e+01 5.539365e+01 5.637535e+01 5.539365e+01 5.498811e+01 5.398798e+01 5.339126e+01 4.151930e+01 7.035442e+00 -1.418896e+01 -1.308931e+01 -1.238199e+01 -1.212421e+01 -1.191688e+01 -1.185057e+01 -1.183217e+01 -1.175441e+01 -1.178172e+01 
-1.265050e+01 -1.277451e+01 -1.276614e+01 -1.299660e+01 -1.311102e+01 -1.351220e+01 -1.383755e+01 -1.477606e+01 -1.553047e+01 -1.840001e+01 -1.277610e+01 1.717144e+01 4.621773e+01 5.477140e+01 5.470136e+01 5.487914e+01 5.575515e+01 5.487914e+01 5.470136e+01 5.477140e+01 4.621773e+01 1.717144e+01 -1.277610e+01 -1.840001e+01 -1.553047e+01 -1.477606e+01 -1.383755e+01 -1.351220e+01 -1.311102e+01 -1.299660e+01 -1.276614e+01 -1.277451e+01 
-1.351803e+01 -1.364750e+01 -1.368856e+01 -1.399722e+01 -1.422892e+01 -1.480779e+01 -1.533955e+01 -1.651779e+01 -1.768548e+01 -2.057285e+01 -2.223774e+01 -1.346971e+01 1.475727e+01 4.641274e+01 5.798855e+01 6.021592e+01 6.308195e+01 6.021592e+01 5.798855e+01 4.641274e+01 1.475727e+01 -1.346971e+01 -2.223774e+01 -2.057285e+01 -1.768548e+01 -1.651779e+01 -1.533955e+01 -1.480779e+01 -1.422892e+01 -1.399722e+01 -1.368856e+01 -1.364750e+01 
-1.428787e+01 -1.446917e+01 -1.449824e+01 -1.490948e+01 -1.516555e+01 -1.590039e+01 -1.647375e+01 -1.779028e+01 -1.893268e+01 -2.145587e+01 -2.407777e+01 -2.712910e+01 -1.790562e+01 5.298742e+00 2.449712e+01 4.132586e+01 4.884662e+01 4.132586e+01 2.449712e+01 5.298742e+00 -1.790562e+01 -2.712910e+01 -2.407777e+01 -2.145587e+01 -1.893268e+01 -1.779028e+01 -1.647375e+01 -1.590039e+01 -1.516555e+01 -1.490948e+01 -1.449824e+01 -1.446917e+01 
-1.503734e+01 -1.520776e+01 -1.528328e+01 -1.571872e+01 -1.605914e+01 -1.683794e+01 -1.752140e+01 -1.882762e+01 -2.003391e+01 -2.221878e+01 -2.442801e+01 -2.781554e+01 -3.142965e+01 -3.223089e+01 -2.471648e+01 -1.307336e+01 -9.505333e+00 -1.307336e+01 -2.471648e+01 -3.223089e+01 -3.142965e+01 -2.781554e+01 -2.442801e+01 -2.221878e+01 -2.003391e+01 -1.882762e+01 -1.752140e+01 -1.683794e+01 -1.605914e+01 -1.571872e+01 -1.528328e+01 -1.520776e+01 
-1.555043e+01 -1.576581e+01 -1.580845e+01 -1.630046e+01 -1.661008e+01 -1.743442e+01 -1.805307e+01 -1.931025e+01 -2.031281e+01 -2.211095e+01 -2.359047e+01 -2.581090e+01 -2.710423e+01 -2.851845e+01 -3.096073e+01 -2.918715e+01 -2.845731e+01 -2.918715e+01 -3.096073e+01 -2.851845e+01 -2.710423e+01 -2.581090e+01 -2.359047e+01 -2.211095e+01 -2.031281e+01 -1.931025e+01 -1.805307e+01 -1.743442e+01 -1.661008e+01 -1.630046e+01 -1.580845e+01 -1.576581e+01 
-1.610754e+01 -1.629851e+01 -1.638662e+01 -1.686973e+01 -1.724553e+01 -1.805701e+01 -1.875089e+01 -1.994107e+01 -2.099721e+01 -2.258290e+01 -2.403679e+01 -2.583499e+01 -2.738792e+01 -2.838424e+01 -2.808581e+01 -2.608679e+01 -2.639352e+01 -2.608679e+01 -2.808581e+01 -2.838424e+01 -2.738792e+01 -2.583499e+01 -2.403679e+01 -2.258290e+01 -2.099721e+01 -1.994107e+01 -1.875089e+01 -1.805701e+01 -1.724553e+01 -1.686973e+01 -1.638662e+01 -1.629851e+01 
-1.633606e+01 -1.656632e+01 -1.661233e+01 -1.712951e+01 -1.745327e+01 -1.827630e+01 -1.888766e+01 -2.002288e+01 -2.092556e+01 -2.231683e+01 -2.349353e+01 -2.493420e+01 -2.623793e+01 -2.709464e+01 -2.840382e+01 -2.801354e+01 -2.824531e+01 -2.801354e+01 -2.840382e+01 -2.709464e+01 -2.623793e+01 -2.493420e+01 -2.349353e+01 -2.231683e+01 -2.092556e+01 -2.002288e+01 -1.888766e+01 -1.827630e+01 -1.745327e+01 -1.712951e+01 -1.661233e+01 -1.656632e+01 
-1.665554e+01 -1.685376e+01 -1.694483e+01 -1.743908e+01 -1.782030e+01 -1.861850e+01 -1.929058e+01 -2.037424e+01 -2.131381e+01 -2.258561e+01 -2.371943e+01 -2.495044e+01 -2.607009e+01 -2.669851e+01 -2.708244e+01 -2.632835e+01 -2.669833e+01 -2.632835e+01 -2.708244e+01 -2.669851e+01 -2.607009e+01 -2.495044e+01 -2.371943e+01 -2.258561e+01 -2.131381e+01 -2.037424e+01 -1.929058e+01 -1.861850e+01 -1.782030e+01 -1.743908e+01 -1.694483e+01 -1.685376e+01 
