# vtk DataFile Version 2.0
Comment goes here
ASCII

DATASET STRUCTURED_POINTS
FIELD FieldData 1
TIME 1 1 double
1.18000000
DIMENSIONS    32   32   1

ORIGIN    0.000   0.000   0.000
SPACING   0.03125 0.03125   1.000

POINT_DATA   1024
SCALARS P double
LOOKUP_TABLE default

-9.447611e+00 -9.377300e+00 -9.385901e+00 -9.244864e+00 -9.199039e+00 -8.997903e+00 -8.931744e+00 -8.729742e+00 -8.683405e+00 -8.532103e+00 -8.457475e+00 -8.310674e+00 -8.048034e+00 -7.780085e+00 -7.243461e+00 -6.915511e+00 -6.573246e+00 -6.915511e+00 -7.243461e+00 -7.780085e+00 -8.048034e+00 -8.310674e+00 -8.457475e+00 -8.532103e+00 -8.683405e+00 -8.729742e+00 -8.931744e+00 -8.997903e+00 -9.199039e+00 -9.244864e+00 -9.385901e+00 -9.377300e+00 
-9.428763e+00 -9.360387e+00 -9.362592e+00 -9.220106e+00 -9.163156e+00 -8.958206e+00 -8.875924e+00 -8.665964e+00 -8.597227e+00 -8.426593e+00 -8.322782e+00 -8.134486e+00 -7.844422e+00 -7.514679e+00 -6.983119e+00 -6.604660e+00 -6.292512e+00 -6.604660e+00 -6.983119e+00 -7.514679e+00 -7.844422e+00 -8.134486e+00 -8.322782e+00 -8.426593e+00 -8.597227e+00 -8.665964e+00 -8.875924e+00 -8.958206e+00 -9.163156e+00 -9.220106e+00 -9.362592e+00 -9.360387e+00 
-9.510280e+00 -9.444509e+00 -9.452443e+00 -9.317692e+00 -9.279265e+00 -9.084414e+00 -9.037014e+00 -8.835648e+00 -8.816285e+00 -8.656422e+00 -8.610979e+00 -8.469462e+00 -8.246016e+00 -8.045844e+00 -7.565403e+00 -7.272757e+00 -6.925733e+00 -7.272757e+00 -7.565403e+00 -8.045844e+00 -8.246016e+00 -8.469462e+00 -8.610979e+00 -8.656422e+00 -8.816285e+00 -8.835648e+00 -9.037014e+00 -9.084414e+00 -9.279265e+00 -9.317692e+00 -9.452443e+00 -9.444509e+00 
-9.566573e+00 -9.507092e+00 -9.511148e+00 -9.383238e+00 -9.342223e+00 -9.149246e+00 -9.096000e+00 -8.879807e+00 -8.841181e+00 -8.635863e+00 -8.549251e+00 -8.331149e+00 -8.056417e+00 -7.783456e+00 -7.339802e+00 -7.028918e+00 -6.718279e+00 -7.028918e+00 -7.339802e+00 -7.783456e+00 -8.056417e+00 -8.331149e+00 -8.549251e+00 -8.635863e+00 -8.841181e+00 -8.879807e+00 -9.096000e+00 -9.149246e+00 -9.342223e+00 -9.383238e+00 -9.511148e+00 -9.507092e+00 
-9.707373e+00 -9.659027e+00 -9.666896e+00 -9.556950e+00 -9.533626e+00 -9.348775e+00 -9.324951e+00 -9.085471e+00 -9.085633e+00 -8.816994e+00 -8.781791e+00 -8.527742e+00 -8.327149e+00 -8.231180e+00 -7.811841e+00 -7.587539e+00 -7.188963e+00 -7.587539e+00 -7.811841e+00 -8.231180e+00 -8.327149e+00 -8.527742e+00 -8.781791e+00 -8.816994e+00 -9.085633e+00 -9.085471e+00 -9.324951e+00 -9.348775e+00 -9.533626e+00 -9.556950e+00 -9.666896e+00 -9.659027e+00 
-9.865872e+00 -9.830243e+00 -9.841811e+00 -9.752723e+00 -9.734184e+00 -9.553821e+00 -9.515900e+00 -9.236771e+00 -9.181430e+00 -8.803112e+00 -8.654036e+00 -8.201660e+00 -7.802609e+00 -7.453442e+00 -7.008004e+00 -6.792098e+00 -6.400924e+00 -6.792098e+00 -7.008004e+00 -7.453442e+00 -7.802609e+00 -8.201660e+00 -8.654036e+00 -8.803112e+00 -9.181430e+00 -9.236771e+00 -9.515900e+00 -9.553821e+00 -9.734184e+00 -9.752723e+00 -9.841811e+00 -9.830243e+00 
-1.008884e+01 -1.007819e+01 -1.008970e+01 -1.003579e+01 -1.002215e+01 -9.848113e+00 -9.809190e+00 -9.463134e+00 -9.414282e+00 -8.845875e+00 -8.757897e+00 -8.044312e+00 -7.853021e+00 -7.786652e+00 -7.083153e+00 -6.776391e+00 -6.107099e+00 -6.776391e+00 -7.083153e+00 -7.786652e+00 -7.853021e+00 -8.044312e+00 -8.757897e+00 -8.845875e+00 -9.414282e+00 -9.463134e+00 -9.809190e+00 -9.848113e+00 -1.002215e+01 -1.003579e+01 -1.008970e+01 -1.007819e+01 
-1.038448e+01 -1.039395e+01 -1.041989e+01 -1.040425e+01 -1.040492e+01 -1.024442e+01 -1.019483e+01 -9.808253e+00 -9.698507e+00 -9.007793e+00 -8.744454e+00 -7.686465e+00 -6.945344e+00 -6.163201e+00 -5.395891e+00 -5.339574e+00 -4.610664e+00 -5.339574e+00 -5.395891e+00 -6.163201e+00 -6.945344e+00 -7.686465e+00 -8.744454e+00 -9.007793e+00 -9.698507e+00 -9.808253e+00 -1.019483e+01 -1.024442e+01 -1.040492e+01 -1.040425e+01 -1.041989e+01 -1.039395e+01 
-1.070089e+01 -1.075302e+01 -1.077126e+01 -1.081641e+01 -1.079992e+01 -1.067093e+01 -1.057677e+01 -1.013702e+01 -9.988213e+00 -8.988940e+00 -8.902798e+00 -6.829914e+00 -7.081088e+00 -7.236144e+00 -5.171830e+00 -4.636670e+00 -3.748837e+00 -4.636670e+00 -5.171830e+00 -7.236144e+00 -7.081088e+00 -6.829914e+00 -8.902798e+00 -8.988940e+00 -9.988213e+00 -1.013702e+01 -1.057677e+01 -1.067093e+01 -1.079992e+01 -1.081641e+01 -1.077126e+01 -1.075302e+01 
-1.109450e+01 -1.117624e+01 -1.121598e+01 -1.132002e+01 -1.133104e+01 -1.124398e+01 -1.119096e+01 -1.075982e+01 -1.068856e+01 -9.776555e+00 -9.464379e+00 -7.557330e+00 -3.092738e+00 2.808204e+00 1.016150e+01 1.406490e+01 1.514576e+01 1.406490e+01 1.016150e+01 2.808204e+00 -3.092738e+00 -7.557330e+00 -9.464379e+00 -9.776555e+00 -1.068856e+01 -1.075982e+01 -1.119096e+01 -1.124398e+01 -1.133104e+01 -1.132002e+01 -1.121598e+01 -1.117624e+01 
-1.141227e+01 -1.155771e+01 -1.158262e+01 -1.178613e+01 -1.176664e+01 -1.180085e+01 -1.166956e+01 -1.140527e+01 -1.111249e+01 -1.018570e+01 -7.636713e+00 5.065683e+00 2.204849e+01 3.319981e+01 4.004326e+01 4.316337e+01 4.379365e+01 4.316337e+01 4.004326e+01 3.319981e+01 2.204849e+01 5.065683e+00 -7.636713e+00 -1.018570e+01 -1.111249e+01 -1.140527e+01 -1.166956e+01 -1.180085e+01 -1.176664e+01 -1.178613e+01 -1.158262e+01 -1.155771e+01 
-1.172688e+01 -1.192226e+01 -1.196680e+01 -1.227332e+01 -1.227495e+01 -1.242588e+01 -1.239437e+01 -1.206698e+01 -1.267593e+01 -6.712354e+00 8.140204e+00 3.007829e+01 4.359372e+01 4.658183e+01 4.656974e+01 4.582888e+01 4.624534e+01 4.582888e+01 4.656974e+01 4.658183e+01 4.359372e+01 3.007829e+01 8.140204e+00 -6.712354e+00 -1.267593e+01 -1.206698e+01 -1.239437e+01 -1.242588e+01 -1.227495e+01 -1.227332e+01 -1.196680e+01 -1.192226e+01 
-1.184287e+01 -1.212616e+01 -1.215956e+01 -1.260631e+01 -1.259464e+01 -1.294025e+01 -1.293085e+01 -1.311133e+01 -1.264379e+01 7.387102e+00 3.422443e+01 4.616632e+01 4.677226e+01 4.623597e+01 4.566238e+01 4.523871e+01 4.550717e+01 4.523871e+01 4.566238e+01 4.623597e+01 4.677226e+01 4.616632e+01 3.422443e+01 7.387102e+00 -1.264379e+01 -1.311133e+01 -1.293085e+01 -1.294025e+01 -1.259464e+01 -1.260631e+01 -1.215956e+01 -1.212616e+01 
-1.184689e+01 -1.220193e+01 -1.225508e+01 -1.289374e+01 -1.281844e+01 -1.362965e+01 -1.309443e+01 -1.509226e+01 -7.011503e+00 2.528190e+01 4.703527e+01 4.756686e+01 4.740820e+01 4.697731e+01 4.714644e+01 4.656316e+01 4.698337e+01 4.656316e+01 4.714644e+01 4.697731e+01 4.740820e+01 4.756686e+01 4.703527e+01 2.528190e+01 -7.011503e+00 -1.509226e+01 -1.309443e+01 -1.362965e+01 -1.281844e+01 -1.289374e+01 -1.225508e+01 -1.220193e+01 
-1.160243e+01 -1.206054e+01 -1.208492e+01 -1.289331e+01 -1.270185e+01 -1.367894e+01 -1.268566e+01 -1.477419e+01 4.690890e+00 3.942442e+01 4.881275e+01 4.691420e+01 4.758827e+01 4.646556e+01 4.666765e+01 4.598819e+01 4.639378e+01 4.598819e+01 4.666765e+01 4.646556e+01 4.758827e+01 4.691420e+01 4.881275e+01 3.942442e+01 4.690890e+00 -1.477419e+01 -1.268566e+01 -1.367894e+01 -1.270185e+01 -1.289331e+01 -1.208492e+01 -1.206054e+01 
-1.132365e+01 -1.177955e+01 -1.186213e+01 -1.263069e+01 -1.257387e+01 -1.309854e+01 -1.269457e+01 -1.266958e+01 1.373402e+01 4.778247e+01 4.931343e+01 4.780835e+01 4.813054e+01 4.723760e+01 4.755812e+01 4.690655e+01 4.736869e+01 4.690655e+01 4.755812e+01 4.723760e+01 4.813054e+01 4.780835e+01 4.931343e+01 4.778247e+01 1.373402e+01 -1.266958e+01 -1.269457e+01 -1.309854e+01 -1.257387e+01 -1.263069e+01 -1.186213e+01 -1.177955e+01 
-1.115510e+01 -1.165405e+01 -1.172012e+01 -1.251502e+01 -1.248448e+01 -1.284586e+01 -1.279738e+01 -1.234695e+01 1.532758e+01 4.981580e+01 4.982511e+01 4.760718e+01 4.799243e+01 4.671439e+01 4.701966e+01 4.624329e+01 4.670829e+01 4.624329e+01 4.701966e+01 4.671439e+01 4.799243e+01 4.760718e+01 4.982511e+01 4.981580e+01 1.532758e+01 -1.234695e+01 -1.279738e+01 -1.284586e+01 -1.248448e+01 -1.251502e+01 -1.172012e+01 -1.165405e+01 
-1.132365e+01 -1.177955e+01 -1.186213e+01 -1.263069e+01 -1.257387e+01 -1.309854e+01 -1.269457e+01 -1.266958e+01 1.373402e+01 4.778247e+01 4.931343e+01 4.780835e+01 4.813054e+01 4.723760e+01 4.755812e+01 4.690655e+01 4.736869e+01 4.690655e+01 4.755812e+01 4.723760e+01 4.813054e+01 4.780835e+01 4.931343e+01 4.778247e+01 1.373402e+01 -1.266958e+01 -1.269457e+01 -1.309854e+01 -1.257387e+01 -1.263069e+01 -1.186213e+01 -1.177955e+01 
-1.160243e+01 -1.206054e+01 -1.208492e+01 -1.289331e+01 -1.270185e+01 -1.367894e+01 -1.268566e+01 -1.477419e+01 4.690890e+00 3.942442e+01 4.881275e+01 4.691420e+01 4.758827e+01 4.646556e+01 4.666765e+01 4.598819e+01 4.639378e+01 4.598819e+01 4.666765e+01 4.646556e+01 4.758827e+01 4.691420e+01 4.881275e+01 3.942442e+01 4.690890e+00 -1.477419e+01 -1.268566e+01 -1.367894e+01 -1.270185e+01 -1.289331e+01 -1.208492e+01 -1.206054e+01 
-1.184689e+01 -1.220193e+01 -1.225508e+01 -1.289374e+01 -1.281844e+01 -1.362965e+01 -1.309443e+01 -1.509226e+01 -7.011503e+00 2.528190e+01 4.703527e+01 4.756686e+01 4.740820e+01 4.697731e+01 4.714644e+01 4.656316e+01 4.698337e+01 4.656316e+01 4.714644e+01 4.697731e+01 4.740820e+01 4.756686e+01 4.703527e+01 2.528190e+01 -7.011503e+00 -1.509226e+01 -1.309443e+01 -1.362965e+01 -1.281844e+01 -1.289374e+01 -1.225508e+01 -1.220193e+01 
-1.184287e+01 -1.212616e+01 -1.215956e+01 -1.260631e+01 -1.259464e+01 -1.294025e+01 -1.293085e+01 -1.311133e+01 -1.264379e+01 7.387102e+00 3.422443e+01 4.616632e+01 4.677226e+01 4.623597e+01 4.566238e+01 4.523871e+01 4.550717e+01 4.523871e+01 4.566238e+01 4.623597e+01 4.677226e+01 4.616632e+01 3.422443e+01 7.387102e+00 -1.264379e+01 -1.311133e+01 -1.293085e+01 -1.294025e+01 -1.259464e+01 -1.260631e+01 -1.215956e+01 -1.212616e+01 
-1.172688e+01 -1.192226e+01 -1.196680e+01 -1.227332e+01 -1.227495e+01 -1.242588e+01 -1.239437e+01 -1.206698e+01 -1.267593e+01 -6.712354e+00 8.140204e+00 3.007829e+01 4.359372e+01 4.658183e+01 4.656974e+01 4.582888e+01 4.624534e+01 4.582888e+01 4.656974e+01 4.658183e+01 4.359372e+01 3.007829e+01 8.140204e+00 -6.712354e+00 -1.267593e+01 -1.206698e+01 -1.239437e+01 -1.242588e+01 -1.227495e+01 -1.227332e+01 -1.196680e+01 -1.192226e+01 
-1.141227e+01 -1.155771e+01 -1.158262e+01 -1.178613e+01 -1.176664e+01 -1.180085e+01 -1.166956e+01 -1.140527e+01 -1.111249e+01 -1.018570e+01 -7.636713e+00 5.065683e+00 2.204849e+01 3.319981e+01 4.004326e+01 4.316337e+01 4.379365e+01 4.316337e+01 4.004326e+01 3.319981e+01 2.204849e+01 5.065683e+00 -7.636713e+00 -1.018570e+01 -1.111249e+01 -1.140527e+01 -1.166956e+01 -1.180085e+01 -1.176664e+01 -1.178613e+01 -1.158262e+01 -1.155771e+01 
-1.109450e+01 -1.117624e+01 -1.121598e+01 -1.132002e+01 -1.133104e+01 -1.124398e+01 -1.119096e+01 -1.075982e+01 -1.068856e+01 -9.776555e+00 -9.464379e+00 -7.557330e+00 -3.092738e+00 2.808204e+00 1.016150e+01 1.406490e+01 1.514576e+01 1.406490e+01 1.016150e+01 2.808204e+00 -3.092738e+00 -7.557330e+00 -9.464379e+00 -9.776555e+00 -1.068856e+01 -1.075982e+01 -1.119096e+01 -1.124398e+01 -1.133104e+01 -1.132002e+01 -1.121598e+01 -1.117624e+01 
-1.070089e+01 -1.075302e+01 -1.077126e+01 -1.081641e+01 -1.079992e+01 -1.067093e+01 -1.057677e+01 -1.013702e+01 -9.988213e+00 -8.988940e+00 -8.902798e+00 -6.829914e+00 -7.081088e+00 -7.236144e+00 -5.171830e+00 -4.636670e+00 -3.748837e+00 -4.636670e+00 -5.171830e+00 -7.236144e+00 -7.081088e+00 -6.829914e+00 -8.902798e+00 -8.988940e+00 -9.988213e+00 -1.013702e+01 -1.057677e+01 -1.067093e+01 -1.079992e+01 -1.081641e+01 -1.077126e+01 -1.075302e+01 
-1.038448e+01 -1.039395e+01 -1.041989e+01 -1.040425e+01 -1.040492e+01 -1.024442e+01 -1.019483e+01 -9.808253e+00 -9.698507e+00 -9.007793e+00 -8.744454e+00 -7.686465e+00 -6.945344e+00 -6.163201e+00 -5.395891e+00 -5.339574e+00 -4.610664e+00 -5.339574e+00 -5.395891e+00 -6.163201e+00 -6.945344e+00 -7.686465e+00 -8.744454e+00 -9.007793e+00 -9.698507e+00 -9.808253e+00 -1.019483e+01 -1.024442e+01 -1.040492e+01 -1.040425e+01 -1.041989e+01 -1.039395e+01 
-1.008884e+01 -1.007819e+01 -1.008970e+01 -1.003579e+01 -1.002215e+01 -9.848113e+00 -9.809190e+00 -9.463134e+00 -9.414282e+00 -8.845875e+00 -8.757897e+00 -8.044312e+00 -7.853021e+00 -7.786652e+00 -7.083153e+00 -6.776391e+00 -6.107099e+00 -6.776391e+00 -7.083153e+00 -7.786652e+00 -7.853021e+00 -8.044312e+00 -8.757897e+00 -8.845875e+00 -9.414282e+00 -9.463134e+00 -9.809190e+00 -9.848113e+00 -1.002215e+01 -1.003579e+01 -1.008970e+01 -1.007819e+01 
-9.865872e+00 -9.830243e+00 -9.841811e+00 -9.752723e+00 -9.734184e+00 -9.553821e+00 -9.515900e+00 -9.236771e+00 -9.181430e+00 -8.803112e+00 -8.654036e+00 -8.201660e+00 -7.802609e+00 -7.453442e+00 -7.008004e+00 -6.792098e+00 -6.400924e+00 -6.792098e+00 -7.008004e+00 -7.453442e+00 -7.802609e+00 -8.201660e+00 -8.654036e+00 -8.803112e+00 -9.181430e+00 -9.236771e+00 -9.515900e+00 -9.553821e+00 -9.734184e+00 -9.752723e+00 -9.841811e+00 -9.830243e+00 
-9.707373e+00 -9.659027e+00 -9.666896e+00 -9.556950e+00 -9.533626e+00 -9.348775e+00 -9.324951e+00 -9.085471e+00 -9.085633e+00 -8.816994e+00 -8.781791e+00 -8.527742e+00 -8.327149e+00 -8.231180e+00 -7.811841e+00 -7.587539e+00 -7.188963e+00 -7.587539e+00 -7.811841e+00 -8.231180e+00 -8.327149e+00 -8.527742e+00 -8.781791e+00 -8.816994e+00 -9.085633e+00 -9.085471e+00 -9.324951e+00 -9.348775e+00 -9.533626e+00 -9.556950e+00 -9.666896e+00 -9.659027e+00 
-9.566573e+00 -9.507092e+00 -9.511148e+00 -9.383238e+00 -9.342223e+00 -9.149246e+00 -9.096000e+00 -8.879807e+00 -8.841181e+00 -8.635863e+00 -8.549251e+00 -8.331149e+00 -8.056417e+00 -7.783456e+00 -7.339802e+00 -7.028918e+00 -6.718279e+00 -7.028918e+00 -7.339802e+00 -7.783456e+00 -8.056417e+00 -8.331149e+00 -8.549251e+00 -8.635863e+00 -8.841181e+00 -8.879807e+00 -9.096000e+00 -9.149246e+00 -9.342223e+00 -9.383238e+00 -9.511148e+00 -9.507092e+00 
-9.510280e+00 -9.444509e+00 -9.452443e+00 -9.317692e+00 -9.279265e+00 -9.084414e+00 -9.037014e+00 -8.835648e+00 -8.816285e+00 -8.656422e+00 -8.610979e+00 -8.469462e+00 -8.246016e+00 -8.045844e+00 -7.565403e+00 -7.272757e+00 -6.925733e+00 -7.272757e+00 -7.565403e+00 -8.045844e+00 -8.246016e+00 -8.469462e+00 -8.610979e+00 -8.656422e+00 -8.816285e+00 -8.835648e+00 -9.037014e+00 -9.084414e+00 -9.279265e+00 -9.317692e+00 -9.452443e+00 -9.444509e+00 
-9.428763e+00 -9.360387e+00 -9.362592e+00 -9.220106e+00 -9.163156e+00 -8.958206e+00 -8.875924e+00 -8.665964e+00 -8.597227e+00 -8.426593e+00 -8.322782e+00 -8.134486e+00 -7.844422e+00 -7.514679e+00 -6.983119e+00 -6.604660e+00 -6.292512e+00 -6.604660e+00 -6.983119e+00 -7.514679e+00 -7.844422e+00 -8.134486e+00 -8.322782e+00 -8.426593e+00 -8.597227e+00 -8.665964e+00 -8.875924e+00 -8.958206e+00 -9.163156e+00 -9.220106e+00 -9.362592e+00 -9.360387e+00 
