# vtk DataFile Version 2.0
Comment goes here
ASCII

DATASET STRUCTURED_POINTS
FIELD FieldData 1
TIME 1 1 double
0.22000000
DIMENSIONS    32   32   1

ORIGIN    0.000   0.000   0.000
SPACING   0.03125 0.03125   1.000

POINT_DATA   1024
SCALARS P double
LOOKUP_TABLE default

-1.650773e+01 -1.638701e+01 -1.634825e+01 -1.605127e+01 -1.583407e+01 -1.532142e+01 -1.487949e+01 -1.412297e+01 -1.342282e+01 -1.247099e+01 -1.158205e+01 -1.065145e+01 -9.841934e+00 -9.336659e+00 -8.940358e+00 -8.973692e+00 -8.354089e+00 -8.973692e+00 -8.940358e+00 -9.336659e+00 -9.841934e+00 -1.065145e+01 -1.158205e+01 -1.247099e+01 -1.342282e+01 -1.412297e+01 -1.487949e+01 -1.532142e+01 -1.583407e+01 -1.605127e+01 -1.634825e+01 -1.638701e+01 
-1.665517e+01 -1.652703e+01 -1.650199e+01 -1.620442e+01 -1.600363e+01 -1.549580e+01 -1.506582e+01 -1.431730e+01 -1.361734e+01 -1.267574e+01 -1.178361e+01 -1.086247e+01 -1.008350e+01 -9.541038e+00 -9.235377e+00 -9.241859e+00 -8.630351e+00 -9.241859e+00 -9.235377e+00 -9.541038e+00 -1.008350e+01 -1.086247e+01 -1.178361e+01 -1.267574e+01 -1.361734e+01 -1.431730e+01 -1.506582e+01 -1.549580e+01 -1.600363e+01 -1.620442e+01 -1.650199e+01 -1.652703e+01 
-1.675710e+01 -1.664327e+01 -1.660908e+01 -1.632365e+01 -1.611731e+01 -1.560326e+01 -1.516015e+01 -1.436379e+01 -1.362250e+01 -1.257864e+01 -1.160747e+01 -1.057734e+01 -9.719730e+00 -9.204000e+00 -9.066040e+00 -8.951075e+00 -8.355245e+00 -8.951075e+00 -9.066040e+00 -9.204000e+00 -9.719730e+00 -1.057734e+01 -1.160747e+01 -1.257864e+01 -1.362250e+01 -1.436379e+01 -1.516015e+01 -1.560326e+01 -1.611731e+01 -1.632365e+01 -1.660908e+01 -1.664327e+01 
-1.714476e+01 -1.703007e+01 -1.701855e+01 -1.674674e+01 -1.657687e+01 -1.607094e+01 -1.564932e+01 -1.482529e+01 -1.403832e+01 -1.291907e+01 -1.183036e+01 -1.075846e+01 -9.891348e+00 -9.354431e+00 -9.662563e+00 -9.385293e+00 -8.637818e+00 -9.385293e+00 -9.662563e+00 -9.354431e+00 -9.891348e+00 -1.075846e+01 -1.183036e+01 -1.291907e+01 -1.403832e+01 -1.482529e+01 -1.564932e+01 -1.607094e+01 -1.657687e+01 -1.674674e+01 -1.701855e+01 -1.703007e+01 
-1.749615e+01 -1.741063e+01 -1.739826e+01 -1.717023e+01 -1.702200e+01 -1.653908e+01 -1.613175e+01 -1.524261e+01 -1.439377e+01 -1.305124e+01 -1.180913e+01 -1.048271e+01 -9.348233e+00 -9.052824e+00 -9.206564e+00 -8.376389e+00 -6.952015e+00 -8.376389e+00 -9.206564e+00 -9.052824e+00 -9.348233e+00 -1.048271e+01 -1.180913e+01 -1.305124e+01 -1.439377e+01 -1.524261e+01 -1.613175e+01 -1.653908e+01 -1.702200e+01 -1.717023e+01 -1.739826e+01 -1.741063e+01 
-1.809643e+01 -1.802490e+01 -1.805557e+01 -1.788151e+01 -1.782736e+01 -1.739818e+01 -1.708788e+01 -1.616623e+01 -1.524955e+01 -1.369751e+01 -1.209524e+01 -1.074011e+01 -9.452228e+00 -8.966321e+00 -8.092064e+00 -6.759285e+00 -4.584741e+00 -6.759285e+00 -8.092064e+00 -8.966321e+00 -9.452228e+00 -1.074011e+01 -1.209524e+01 -1.369751e+01 -1.524955e+01 -1.616623e+01 -1.708788e+01 -1.739818e+01 -1.782736e+01 -1.788151e+01 -1.805557e+01 -1.802490e+01 
-1.866082e+01 -1.864782e+01 -1.869607e+01 -1.864028e+01 -1.867605e+01 -1.838198e+01 -1.819473e+01 -1.729787e+01 -1.632857e+01 -1.433638e+01 -1.244241e+01 -1.015099e+01 -8.039233e+00 -7.789517e+00 -6.858739e+00 -5.114518e+00 -3.552187e+00 -5.114518e+00 -6.858739e+00 -7.789517e+00 -8.039233e+00 -1.015099e+01 -1.244241e+01 -1.433638e+01 -1.632857e+01 -1.729787e+01 -1.819473e+01 -1.838198e+01 -1.867605e+01 -1.864028e+01 -1.869607e+01 -1.864782e+01 
-1.938035e+01 -1.941367e+01 -1.953413e+01 -1.961976e+01 -1.986726e+01 -1.977737e+01 -1.995580e+01 -1.919290e+01 -1.826564e+01 -1.546407e+01 -1.237356e+01 -1.021448e+01 -8.755044e+00 -8.507433e+00 -7.638284e+00 -5.599678e+00 -3.548367e+00 -5.599678e+00 -7.638284e+00 -8.507433e+00 -8.755044e+00 -1.021448e+01 -1.237356e+01 -1.546407e+01 -1.826564e+01 -1.919290e+01 -1.995580e+01 -1.977737e+01 -1.986726e+01 -1.961976e+01 -1.953413e+01 -1.941367e+01 
-2.002235e+01 -2.015764e+01 -2.031823e+01 -2.064323e+01 -2.110732e+01 -2.142766e+01 -2.214437e+01 -2.188711e+01 -2.080856e+01 -1.711674e+01 -1.372139e+01 -7.690875e+00 1.947609e-01 4.599627e+00 1.078686e+01 1.739539e+01 2.091522e+01 1.739539e+01 1.078686e+01 4.599627e+00 1.947609e-01 -7.690875e+00 -1.372139e+01 -1.711674e+01 -2.080856e+01 -2.188711e+01 -2.214437e+01 -2.142766e+01 -2.110732e+01 -2.064323e+01 -2.031823e+01 -2.015764e+01 
-2.063171e+01 -2.086421e+01 -2.109769e+01 -2.168912e+01 -2.250448e+01 -2.343035e+01 -2.537135e+01 -2.584034e+01 -2.529316e+01 -1.616784e+01 7.918096e-01 1.930565e+01 3.470778e+01 4.131594e+01 4.645299e+01 5.115978e+01 5.293709e+01 5.115978e+01 4.645299e+01 4.131594e+01 3.470778e+01 1.930565e+01 7.918096e-01 -1.616784e+01 -2.529316e+01 -2.584034e+01 -2.537135e+01 -2.343035e+01 -2.250448e+01 -2.168912e+01 -2.109769e+01 -2.086421e+01 
-2.105835e+01 -2.142998e+01 -2.167856e+01 -2.261211e+01 -2.371444e+01 -2.557413e+01 -2.901902e+01 -2.988070e+01 -2.163901e+01 4.361389e+00 3.255766e+01 4.713385e+01 5.209526e+01 5.245734e+01 5.257887e+01 5.321711e+01 5.333205e+01 5.321711e+01 5.257887e+01 5.245734e+01 5.209526e+01 4.713385e+01 3.255766e+01 4.361389e+00 -2.163901e+01 -2.988070e+01 -2.901902e+01 -2.557413e+01 -2.371444e+01 -2.261211e+01 -2.167856e+01 -2.142998e+01 
-2.118281e+01 -2.168967e+01 -2.188693e+01 -2.309397e+01 -2.425767e+01 -2.702687e+01 -3.111637e+01 -2.307834e+01 5.784275e+00 3.452275e+01 4.721480e+01 5.060243e+01 5.052002e+01 5.035326e+01 5.079234e+01 5.149242e+01 5.189656e+01 5.149242e+01 5.079234e+01 5.035326e+01 5.052002e+01 5.060243e+01 4.721480e+01 3.452275e+01 5.784275e+00 -2.307834e+01 -3.111637e+01 -2.702687e+01 -2.425767e+01 -2.309397e+01 -2.188693e+01 -2.168967e+01 
-2.100024e+01 -2.162162e+01 -2.168282e+01 -2.306927e+01 -2.368731e+01 -2.720033e+01 -2.665833e+01 1.864100e+00 3.541168e+01 4.537191e+01 4.695214e+01 4.921468e+01 5.090515e+01 5.169496e+01 5.245454e+01 5.283126e+01 5.310459e+01 5.283126e+01 5.245454e+01 5.169496e+01 5.090515e+01 4.921468e+01 4.695214e+01 4.537191e+01 3.541168e+01 1.864100e+00 -2.665833e+01 -2.720033e+01 -2.368731e+01 -2.306927e+01 -2.168282e+01 -2.162162e+01 
-2.034452e+01 -2.108509e+01 -2.095595e+01 -2.242269e+01 -2.217530e+01 -2.605947e+01 -1.284080e+01 2.954862e+01 4.842895e+01 4.694492e+01 4.817541e+01 4.897841e+01 5.030996e+01 5.068055e+01 5.141604e+01 5.167364e+01 5.203927e+01 5.167364e+01 5.141604e+01 5.068055e+01 5.030996e+01 4.897841e+01 4.817541e+01 4.694492e+01 4.842895e+01 2.954862e+01 -1.284080e+01 -2.605947e+01 -2.217530e+01 -2.242269e+01 -2.095595e+01 -2.108509e+01 
-1.955314e+01 -2.029729e+01 -2.029955e+01 -2.161701e+01 -2.158730e+01 -2.431449e+01 3.315612e-02 4.316731e+01 5.086892e+01 4.783117e+01 4.882085e+01 4.921599e+01 5.083735e+01 5.133527e+01 5.226656e+01 5.246624e+01 5.284863e+01 5.246624e+01 5.226656e+01 5.133527e+01 5.083735e+01 4.921599e+01 4.882085e+01 4.783117e+01 5.086892e+01 4.316731e+01 3.315612e-02 -2.431449e+01 -2.158730e+01 -2.161701e+01 -2.029955e+01 -2.029729e+01 
-1.872026e+01 -1.948349e+01 -1.969961e+01 -2.077619e+01 -2.124549e+01 -2.169940e+01 7.972004e+00 4.732263e+01 5.040830e+01 4.871476e+01 4.942455e+01 4.925513e+01 5.039870e+01 5.054274e+01 5.131520e+01 5.137277e+01 5.176414e+01 5.137277e+01 5.131520e+01 5.054274e+01 5.039870e+01 4.925513e+01 4.942455e+01 4.871476e+01 5.040830e+01 4.732263e+01 7.972004e+00 -2.169940e+01 -2.124549e+01 -2.077619e+01 -1.969961e+01 -1.948349e+01 
-1.838630e+01 -1.910893e+01 -1.942094e+01 -2.026806e+01 -2.081502e+01 -1.993196e+01 1.175417e+01 4.888130e+01 5.055076e+01 4.936498e+01 4.988285e+01 4.970990e+01 5.091794e+01 5.115917e+01 5.203873e+01 5.213447e+01 5.254426e+01 5.213447e+01 5.203873e+01 5.115917e+01 5.091794e+01 4.970990e+01 4.988285e+01 4.936498e+01 5.055076e+01 4.888130e+01 1.175417e+01 -1.993196e+01 -2.081502e+01 -2.026806e+01 -1.942094e+01 -1.910893e+01 
-1.872026e+01 -1.948349e+01 -1.969961e+01 -2.077619e+01 -2.124549e+01 -2.169940e+01 7.972004e+00 4.732263e+01 5.040830e+01 4.871476e+01 4.942455e+01 4.925513e+01 5.039870e+01 5.054274e+01 5.131520e+01 5.137277e+01 5.176414e+01 5.137277e+01 5.131520e+01 5.054274e+01 5.039870e+01 4.925513e+01 4.942455e+01 4.871476e+01 5.040830e+01 4.732263e+01 7.972004e+00 -2.169940e+01 -2.124549e+01 -2.077619e+01 -1.969961e+01 -1.948349e+01 
-1.955314e+01 -2.029729e+01 -2.029955e+01 -2.161701e+01 -2.158730e+01 -2.431449e+01 3.315612e-02 4.316731e+01 5.086892e+01 4.783117e+01 4.882085e+01 4.921599e+01 5.083735e+01 5.133527e+01 5.226656e+01 5.246624e+01 5.284863e+01 5.246624e+01 5.226656e+01 5.133527e+01 5.083735e+01 4.921599e+01 4.882085e+01 4.783117e+01 5.086892e+01 4.316731e+01 3.315612e-02 -2.431449e+01 -2.158730e+01 -2.161701e+01 -2.029955e+01 -2.029729e+01 
-2.034452e+01 -2.108509e+01 -2.095595e+01 -2.242269e+01 -2.217530e+01 -2.605947e+01 -1.284080e+01 2.954862e+01 4.842895e+01 4.694492e+01 4.817541e+01 4.897841e+01 5.030996e+01 5.068055e+01 5.141604e+01 5.167364e+01 5.203927e+01 5.167364e+01 5.141604e+01 5.068055e+01 5.030996e+01 4.897841e+01 4.817541e+01 4.694492e+01 4.842895e+01 2.954862e+01 -1.284080e+01 -2.605947e+01 -2.217530e+01 -2.242269e+01 -2.095595e+01 -2.108509e+01 
-2.100024e+01 -2.162162e+01 -2.168282e+01 -2.306927e+01 -2.368731e+01 -2.720033e+01 -2.665833e+01 1.864100e+00 3.541168e+01 4.537191e+01 4.695214e+01 4.921468e+01 5.090515e+01 5.169496e+01 5.245454e+01 5.283126e+01 5.310459e+01 5.283126e+01 5.245454e+01 5.169496e+01 5.090515e+01 4.921468e+01 4.695214e+01 4.537191e+01 3.541168e+01 1.864100e+00 -2.665833e+01 -2.720033e+01 -2.368731e+01 -2.306927e+01 -2.168282e+01 -2.162162e+01 
-2.118281e+01 -2.168967e+01 -2.188693e+01 -2.309397e+01 -2.425767e+01 -2.702687e+01 -3.111637e+01 -2.307834e+01 5.784275e+00 3.452275e+01 4.721480e+01 5.060243e+01 5.052002e+01 5.035326e+01 5.079234e+01 5.149242e+01 5.189656e+01 5.149242e+01 5.079234e+01 5.035326e+01 5.052002e+01 5.060243e+01 4.721480e+01 3.452275e+01 5.784275e+00 -2.307834e+01 -3.111637e+01 -2.702687e+01 -2.425767e+01 -2.309397e+01 -2.188693e+01 -2.168967e+01 
-2.105835e+01 -2.142998e+01 -2.167856e+01 -2.261211e+01 -2.371444e+01 -2.557413e+01 -2.901902e+01 -2.988070e+01 -2.163901e+01 4.361389e+00 3.255766e+01 4.713385e+01 5.209526e+01 5.245734e+01 5.257887e+01 5.321711e+01 5.333205e+01 5.321711e+01 5.257887e+01 5.245734e+01 5.209526e+01 4.713385e+01 3.255766e+01 4.361389e+00 -2.163901e+01 -2.988070e+01 -2.901902e+01 -2.557413e+01 -2.371444e+01 -2.261211e+01 -2.167856e+01 -2.142998e+01 
-2.063171e+01 -2.086421e+01 -2.109769e+01 -2.168912e+01 -2.250448e+01 -2.343035e+01 -2.537135e+01 -2.584034e+01 -2.529316e+01 -1.616784e+01 7.918096e-01 1.930565e+01 3.470778e+01 4.131594e+01 4.645299e+01 5.115978e+01 5.293709e+01 5.115978e+01 4.645299e+01 4.131594e+01 3.470778e+01 1.930565e+01 7.918096e-01 -1.616784e+01 -2.529316e+01 -2.584034e+01 -2.537135e+01 -2.343035e+01 -2.250448e+01 -2.168912e+01 -2.109769e+01 -2.086421e+01 
-2.002235e+01 -2.015764e+01 -2.031823e+01 -2.064323e+01 -2.110732e+01 -2.142766e+01 -2.214437e+01 -2.188711e+01 -2.080856e+01 -1.711674e+01 -1.372139e+01 -7.690875e+00 1.947609e-01 4.599627e+00 1.078686e+01 1.739539e+01 2.091522e+01 1.739539e+01 1.078686e+01 4.599627e+00 1.947609e-01 -7.690875e+00 -1.372139e+01 -1.711674e+01 -2.080856e+01 -2.188711e+01 -2.214437e+01 -2.142766e+01 -2.110732e+01 -2.064323e+01 -2.031823e+01 -2.015764e+01 
-1.938035e+01 -1.941367e+01 -1.953413e+01 -1.961976e+01 -1.986726e+01 -1.977737e+01 -1.995580e+01 -1.919290e+01 -1.826564e+01 -1.546407e+01 -1.237356e+01 -1.021448e+01 -8.755044e+00 -8.507433e+00 -7.638284e+00 -5.599678e+00 -3.548367e+00 -5.599678e+00 -7.638284e+00 -8.507433e+00 -8.755044e+00 -1.021448e+01 -1.237356e+01 -1.546407e+01 -1.826564e+01 -1.919290e+01 -1.995580e+01 -1.977737e+01 -1.986726e+01 -1.961976e+01 -1.953413e+01 -1.941367e+01 
-1.866082e+01 -1.864782e+01 -1.869607e+01 -1.864028e+01 -1.867605e+01 -1.838198e+01 -1.819473e+01 -1.729787e+01 -1.632857e+01 -1.433638e+01 -1.244241e+01 -1.015099e+01 -8.039233e+00 -7.789517e+00 -6.858739e+00 -5.114518e+00 -3.552187e+00 -5.114518e+00 -6.858739e+00 -7.789517e+00 -8.039233e+00 -1.015099e+01 -1.244241e+01 -1.433638e+01 -1.632857e+01 -1.729787e+01 -1.819473e+01 -1.838198e+01 -1.867605e+01 -1.864028e+01 -1.869607e+01 -1.864782e+01 
-1.809643e+01 -1.802490e+01 -1.805557e+01 -1.788151e+01 -1.782736e+01 -1.739818e+01 -1.708788e+01 -1.616623e+01 -1.524955e+01 -1.369751e+01 -1.209524e+01 -1.074011e+01 -9.452228e+00 -8.966321e+00 -8.092064e+00 -6.759285e+00 -4.584741e+00 -6.759285e+00 -8.092064e+00 -8.966321e+00 -9.452228e+00 -1.074011e+01 -1.209524e+01 -1.369751e+01 -1.524955e+01 -1.616623e+01 -1.708788e+01 -1.739818e+01 -1.782736e+01 -1.788151e+01 -1.805557e+01 -1.802490e+01 
-1.749615e+01 -1.741063e+01 -1.739826e+01 -1.717023e+01 -1.702200e+01 -1.653908e+01 -1.613175e+01 -1.524261e+01 -1.439377e+01 -1.305124e+01 -1.180913e+01 -1.048271e+01 -9.348233e+00 -9.052824e+00 -9.206564e+00 -8.376389e+00 -6.952015e+00 -8.376389e+00 -9.206564e+00 -9.052824e+00 -9.348233e+00 -1.048271e+01 -1.180913e+01 -1.305124e+01 -1.439377e+01 -1.524261e+01 -1.613175e+01 -1.653908e+01 -1.702200e+01 -1.717023e+01 -1.739826e+01 -1.741063e+01 
-1.714476e+01 -1.703007e+01 -1.701855e+01 -1.674674e+01 -1.657687e+01 -1.607094e+01 -1.564932e+01 -1.482529e+01 -1.403832e+01 -1.291907e+01 -1.183036e+01 -1.075846e+01 -9.891348e+00 -9.354431e+00 -9.662563e+00 -9.385293e+00 -8.637818e+00 -9.385293e+00 -9.662563e+00 -9.354431e+00 -9.891348e+00 -1.075846e+01 -1.183036e+01 -1.291907e+01 -1.403832e+01 -1.482529e+01 -1.564932e+01 -1.607094e+01 -1.657687e+01 -1.674674e+01 -1.701855e+01 -1.703007e+01 
-1.675710e+01 -1.664327e+01 -1.660908e+01 -1.632365e+01 -1.611731e+01 -1.560326e+01 -1.516015e+01 -1.436379e+01 -1.362250e+01 -1.257864e+01 -1.160747e+01 -1.057734e+01 -9.719730e+00 -9.204000e+00 -9.066040e+00 -8.951075e+00 -8.355245e+00 -8.951075e+00 -9.066040e+00 -9.204000e+00 -9.719730e+00 -1.057734e+01 -1.160747e+01 -1.257864e+01 -1.362250e+01 -1.436379e+01 -1.516015e+01 -1.560326e+01 -1.611731e+01 -1.632365e+01 -1.660908e+01 -1.664327e+01 
-1.665517e+01 -1.652703e+01 -1.650199e+01 -1.620442e+01 -1.600363e+01 -1.549580e+01 -1.506582e+01 -1.431730e+01 -1.361734e+01 -1.267574e+01 -1.178361e+01 -1.086247e+01 -1.008350e+01 -9.541038e+00 -9.235377e+00 -9.241859e+00 -8.630351e+00 -9.241859e+00 -9.235377e+00 -9.541038e+00 -1.008350e+01 -1.086247e+01 -1.178361e+01 -1.267574e+01 -1.361734e+01 -1.431730e+01 -1.506582e+01 -1.549580e+01 -1.600363e+01 -1.620442e+01 -1.650199e+01 -1.652703e+01 
