# vtk DataFile Version 2.0
Comment goes here
ASCII

DATASET STRUCTURED_POINTS
FIELD FieldData 1
TIME 1 1 double
0.80000000
DIMENSIONS    32   32   1

ORIGIN    0.000   0.000   0.000
SPACING   0.03125 0.03125   1.000

POINT_DATA   1024
SCALARS P double
LOOKUP_TABLE default

-1.273612e+01 -1.271438e+01 -1.287500e+01 -1.299756e+01 -1.329305e+01 -1.357416e+01 -1.401636e+01 -1.449069e+01 -1.509789e+01 -1.576465e+01 -1.645103e+01 -1.712249e+01 -1.758152e+01 -1.784526e+01 -1.772695e+01 -1.744476e+01 -1.728535e+01 -1.744476e+01 -1.772695e+01 -1.784526e+01 -1.758152e+01 -1.712249e+01 -1.645103e+01 -1.576465e+01 -1.509789e+01 -1.449069e+01 -1.401636e+01 -1.357416e+01 -1.329305e+01 -1.299756e+01 -1.287500e+01 -1.271438e+01 
-1.265213e+01 -1.263706e+01 -1.278553e+01 -1.290843e+01 -1.318850e+01 -1.346444e+01 -1.389131e+01 -1.435758e+01 -1.495260e+01 -1.561236e+01 -1.628834e+01 -1.696312e+01 -1.740461e+01 -1.771494e+01 -1.758560e+01 -1.751990e+01 -1.730675e+01 -1.751990e+01 -1.758560e+01 -1.771494e+01 -1.740461e+01 -1.696312e+01 -1.628834e+01 -1.561236e+01 -1.495260e+01 -1.435758e+01 -1.389131e+01 -1.346444e+01 -1.318850e+01 -1.290843e+01 -1.278553e+01 -1.263706e+01 
-1.259744e+01 -1.257325e+01 -1.273809e+01 -1.286118e+01 -1.316791e+01 -1.346102e+01 -1.393315e+01 -1.444534e+01 -1.511497e+01 -1.586089e+01 -1.665192e+01 -1.745810e+01 -1.805219e+01 -1.847698e+01 -1.843181e+01 -1.811867e+01 -1.793624e+01 -1.811867e+01 -1.843181e+01 -1.847698e+01 -1.805219e+01 -1.745810e+01 -1.665192e+01 -1.586089e+01 -1.511497e+01 -1.444534e+01 -1.393315e+01 -1.346102e+01 -1.316791e+01 -1.286118e+01 -1.273809e+01 -1.257325e+01 
-1.238710e+01 -1.236853e+01 -1.252489e+01 -1.264998e+01 -1.295009e+01 -1.324598e+01 -1.372249e+01 -1.424648e+01 -1.494255e+01 -1.571799e+01 -1.656636e+01 -1.742224e+01 -1.806218e+01 -1.850750e+01 -1.850760e+01 -1.865684e+01 -1.846687e+01 -1.865684e+01 -1.850760e+01 -1.850750e+01 -1.806218e+01 -1.742224e+01 -1.656636e+01 -1.571799e+01 -1.494255e+01 -1.424648e+01 -1.372249e+01 -1.324598e+01 -1.295009e+01 -1.264998e+01 -1.252489e+01 -1.236853e+01 
-1.218477e+01 -1.215312e+01 -1.232870e+01 -1.244754e+01 -1.277393e+01 -1.307702e+01 -1.359590e+01 -1.415947e+01 -1.493723e+01 -1.582574e+01 -1.684931e+01 -1.796366e+01 -1.888801e+01 -1.970748e+01 -1.960898e+01 -1.881617e+01 -1.840043e+01 -1.881617e+01 -1.960898e+01 -1.970748e+01 -1.888801e+01 -1.796366e+01 -1.684931e+01 -1.582574e+01 -1.493723e+01 -1.415947e+01 -1.359590e+01 -1.307702e+01 -1.277393e+01 -1.244754e+01 -1.232870e+01 -1.215312e+01 
-1.187029e+01 -1.184449e+01 -1.201293e+01 -1.213190e+01 -1.244727e+01 -1.274138e+01 -1.325035e+01 -1.380634e+01 -1.459995e+01 -1.551235e+01 -1.664456e+01 -1.781112e+01 -1.872268e+01 -1.904927e+01 -1.912224e+01 -1.976343e+01 -1.962989e+01 -1.976343e+01 -1.912224e+01 -1.904927e+01 -1.872268e+01 -1.781112e+01 -1.664456e+01 -1.551235e+01 -1.459995e+01 -1.380634e+01 -1.325035e+01 -1.274138e+01 -1.244727e+01 -1.213190e+01 -1.201293e+01 -1.184449e+01 
-1.154083e+01 -1.149599e+01 -1.168422e+01 -1.177893e+01 -1.210108e+01 -1.235708e+01 -1.285970e+01 -1.338663e+01 -1.420285e+01 -1.519535e+01 -1.658557e+01 -1.822462e+01 -2.016778e+01 -2.230314e+01 -2.104302e+01 -1.741766e+01 -1.587523e+01 -1.741766e+01 -2.104302e+01 -2.230314e+01 -2.016778e+01 -1.822462e+01 -1.658557e+01 -1.519535e+01 -1.420285e+01 -1.338663e+01 -1.285970e+01 -1.235708e+01 -1.210108e+01 -1.177893e+01 -1.168422e+01 -1.149599e+01 
-1.117894e+01 -1.114060e+01 -1.131853e+01 -1.140211e+01 -1.168792e+01 -1.189358e+01 -1.233063e+01 -1.279532e+01 -1.356887e+01 -1.462509e+01 -1.634447e+01 -1.848148e+01 -1.769785e+01 -6.308026e+00 9.768667e+00 1.993588e+01 2.311168e+01 1.993588e+01 9.768667e+00 -6.308026e+00 -1.769785e+01 -1.848148e+01 -1.634447e+01 -1.462509e+01 -1.356887e+01 -1.279532e+01 -1.233063e+01 -1.189358e+01 -1.168792e+01 -1.140211e+01 -1.131853e+01 -1.114060e+01 
-1.079010e+01 -1.072438e+01 -1.092105e+01 -1.094936e+01 -1.120320e+01 -1.128421e+01 -1.161195e+01 -1.187912e+01 -1.242876e+01 -1.325311e+01 -1.445111e+01 -1.065886e+01 8.835766e+00 3.195733e+01 4.771735e+01 5.408642e+01 5.456730e+01 5.408642e+01 4.771735e+01 3.195733e+01 8.835766e+00 -1.065886e+01 -1.445111e+01 -1.325311e+01 -1.242876e+01 -1.187912e+01 -1.161195e+01 -1.128421e+01 -1.120320e+01 -1.094936e+01 -1.092105e+01 -1.072438e+01 
-1.045802e+01 -1.040046e+01 -1.058083e+01 -1.057823e+01 -1.075500e+01 -1.070235e+01 -1.085728e+01 -1.088479e+01 -1.104387e+01 -1.173269e+01 -7.740027e+00 1.170808e+01 3.915959e+01 5.174578e+01 5.240178e+01 5.245349e+01 5.204323e+01 5.245349e+01 5.240178e+01 5.174578e+01 3.915959e+01 1.170808e+01 -7.740027e+00 -1.173269e+01 -1.104387e+01 -1.088479e+01 -1.085728e+01 -1.070235e+01 -1.075500e+01 -1.057823e+01 -1.058083e+01 -1.040046e+01 
-1.006635e+01 -9.976219e+00 -1.018310e+01 -1.010291e+01 -1.022858e+01 -9.967297e+00 -9.971129e+00 -9.611907e+00 -9.440345e+00 -9.418220e+00 6.845289e+00 3.714282e+01 5.076699e+01 5.027398e+01 5.103292e+01 5.141973e+01 5.176812e+01 5.141973e+01 5.103292e+01 5.027398e+01 5.076699e+01 3.714282e+01 6.845289e+00 -9.418220e+00 -9.440345e+00 -9.611907e+00 -9.971129e+00 -9.967297e+00 -1.022858e+01 -1.010291e+01 -1.018310e+01 -9.976219e+00 
-9.759176e+00 -9.693798e+00 -9.890161e+00 -9.794440e+00 -9.851814e+00 -9.392617e+00 -9.312492e+00 -8.316757e+00 -8.762575e+00 -2.903851e+00 2.315450e+01 4.585673e+01 4.951354e+01 4.965352e+01 5.017994e+01 5.025964e+01 5.037020e+01 5.025964e+01 5.017994e+01 4.965352e+01 4.951354e+01 4.585673e+01 2.315450e+01 -2.903851e+00 -8.762575e+00 -8.316757e+00 -9.312492e+00 -9.392617e+00 -9.851814e+00 -9.794440e+00 -9.890161e+00 -9.693798e+00 
-9.282204e+00 -9.203795e+00 -9.454615e+00 -9.324333e+00 -9.372673e+00 -8.691555e+00 -8.568997e+00 -6.995480e+00 -8.278778e+00 6.752568e+00 3.622066e+01 4.759607e+01 4.779957e+01 4.872354e+01 4.912128e+01 4.946380e+01 4.963887e+01 4.946380e+01 4.912128e+01 4.872354e+01 4.779957e+01 4.759607e+01 3.622066e+01 6.752568e+00 -8.278778e+00 -6.995480e+00 -8.568997e+00 -8.691555e+00 -9.372673e+00 -9.324333e+00 -9.454615e+00 -9.203795e+00 
-8.828379e+00 -8.832990e+00 -9.067975e+00 -9.073071e+00 -9.031458e+00 -8.454801e+00 -7.849607e+00 -6.624781e+00 -5.803413e+00 1.493247e+01 4.246419e+01 4.709043e+01 4.727030e+01 4.824348e+01 4.863064e+01 4.889484e+01 4.901611e+01 4.889484e+01 4.863064e+01 4.824348e+01 4.727030e+01 4.709043e+01 4.246419e+01 1.493247e+01 -5.803413e+00 -6.624781e+00 -7.849607e+00 -8.454801e+00 -9.031458e+00 -9.073071e+00 -9.067975e+00 -8.832990e+00 
-8.100033e+00 -8.145710e+00 -8.422497e+00 -8.578589e+00 -8.421608e+00 -7.980949e+00 -6.457148e+00 -5.946537e+00 -2.318896e+00 2.301346e+01 4.514404e+01 4.589499e+01 4.692536e+01 4.746377e+01 4.809222e+01 4.827295e+01 4.850110e+01 4.827295e+01 4.809222e+01 4.746377e+01 4.692536e+01 4.589499e+01 4.514404e+01 2.301346e+01 -2.318896e+00 -5.946537e+00 -6.457148e+00 -7.980949e+00 -8.421608e+00 -8.578589e+00 -8.422497e+00 -8.145710e+00 
-7.513833e+00 -7.658268e+00 -7.856525e+00 -8.177476e+00 -7.813347e+00 -7.539593e+00 -5.407861e+00 -4.968285e+00 -2.491590e-01 2.726209e+01 4.593373e+01 4.555649e+01 4.706746e+01 4.731651e+01 4.802631e+01 4.811965e+01 4.835742e+01 4.811965e+01 4.802631e+01 4.731651e+01 4.706746e+01 4.555649e+01 4.593373e+01 2.726209e+01 -2.491590e-01 -4.968285e+00 -5.407861e+00 -7.539593e+00 -7.813347e+00 -8.177476e+00 -7.856525e+00 -7.658268e+00 
-7.036730e+00 -7.163038e+00 -7.396069e+00 -7.716209e+00 -7.336932e+00 -6.908776e+00 -4.729880e+00 -4.117422e+00 8.462945e-01 2.846114e+01 4.566308e+01 4.498767e+01 4.683884e+01 4.695675e+01 4.780526e+01 4.784609e+01 4.815441e+01 4.784609e+01 4.780526e+01 4.695675e+01 4.683884e+01 4.498767e+01 4.566308e+01 2.846114e+01 8.462945e-01 -4.117422e+00 -4.729880e+00 -6.908776e+00 -7.336932e+00 -7.716209e+00 -7.396069e+00 -7.163038e+00 
-7.513833e+00 -7.658268e+00 -7.856525e+00 -8.177476e+00 -7.813347e+00 -7.539593e+00 -5.407861e+00 -4.968285e+00 -2.491590e-01 2.726209e+01 4.593373e+01 4.555649e+01 4.706746e+01 4.731651e+01 4.802631e+01 4.811965e+01 4.835742e+01 4.811965e+01 4.802631e+01 4.731651e+01 4.706746e+01 4.555649e+01 4.593373e+01 2.726209e+01 -2.491590e-01 -4.968285e+00 -5.407861e+00 -7.539593e+00 -7.813347e+00 -8.177476e+00 -7.856525e+00 -7.658268e+00 
-8.100033e+00 -8.145710e+00 -8.422497e+00 -8.578589e+00 -8.421608e+00 -7.980949e+00 -6.457148e+00 -5.946537e+00 -2.318896e+00 2.301346e+01 4.514404e+01 4.589499e+01 4.692536e+01 4.746377e+01 4.809222e+01 4.827295e+01 4.850110e+01 4.827295e+01 4.809222e+01 4.746377e+01 4.692536e+01 4.589499e+01 4.514404e+01 2.301346e+01 -2.318896e+00 -5.946537e+00 -6.457148e+00 -7.980949e+00 -8.421608e+00 -8.578589e+00 -8.422497e+00 -8.145710e+00 
-8.828379e+00 -8.832990e+00 -9.067975e+00 -9.073071e+00 -9.031458e+00 -8.454801e+00 -7.849607e+00 -6.624781e+00 -5.803413e+00 1.493247e+01 4.246419e+01 4.709043e+01 4.727030e+01 4.824348e+01 4.863064e+01 4.889484e+01 4.901611e+01 4.889484e+01 4.863064e+01 4.824348e+01 4.727030e+01 4.709043e+01 4.246419e+01 1.493247e+01 -5.803413e+00 -6.624781e+00 -7.849607e+00 -8.454801e+00 -9.031458e+00 -9.073071e+00 -9.067975e+00 -8.832990e+00 
-9.282204e+00 -9.203795e+00 -9.454615e+00 -9.324333e+00 -9.372673e+00 -8.691555e+00 -8.568997e+00 -6.995480e+00 -8.278778e+00 6.752568e+00 3.622066e+01 4.759607e+01 4.779957e+01 4.872354e+01 4.912128e+01 4.946380e+01 4.963887e+01 4.946380e+01 4.912128e+01 4.872354e+01 4.779957e+01 4.759607e+01 3.622066e+01 6.752568e+00 -8.278778e+00 -6.995480e+00 -8.568997e+00 -8.691555e+00 -9.372673e+00 -9.324333e+00 -9.454615e+00 -9.203795e+00 
-9.759176e+00 -9.693798e+00 -9.890161e+00 -9.794440e+00 -9.851814e+00 -9.392617e+00 -9.312492e+00 -8.316757e+00 -8.762575e+00 -2.903851e+00 2.315450e+01 4.585673e+01 4.951354e+01 4.965352e+01 5.017994e+01 5.025964e+01 5.037020e+01 5.025964e+01 5.017994e+01 4.965352e+01 4.951354e+01 4.585673e+01 2.315450e+01 -2.903851e+00 -8.762575e+00 -8.316757e+00 -9.312492e+00 -9.392617e+00 -9.851814e+00 -9.794440e+00 -9.890161e+00 -9.693798e+00 
-1.006635e+01 -9.976219e+00 -1.018310e+01 -1.010291e+01 -1.022858e+01 -9.967297e+00 -9.971129e+00 -9.611907e+00 -9.440345e+00 -9.418220e+00 6.845289e+00 3.714282e+01 5.076699e+01 5.027398e+01 5.103292e+01 5.141973e+01 5.176812e+01 5.141973e+01 5.103292e+01 5.027398e+01 5.076699e+01 3.714282e+01 6.845289e+00 -9.418220e+00 -9.440345e+00 -9.611907e+00 -9.971129e+00 -9.967297e+00 -1.022858e+01 -1.010291e+01 -1.018310e+01 -9.976219e+00 
-1.045802e+01 -1.040046e+01 -1.058083e+01 -1.057823e+01 -1.075500e+01 -1.070235e+01 -1.085728e+01 -1.088479e+01 -1.104387e+01 -1.173269e+01 -7.740027e+00 1.170808e+01 3.915959e+01 5.174578e+01 5.240178e+01 5.245349e+01 5.204323e+01 5.245349e+01 5.240178e+01 5.174578e+01 3.915959e+01 1.170808e+01 -7.740027e+00 -1.173269e+01 -1.104387e+01 -1.088479e+01 -1.085728e+01 -1.070235e+01 -1.075500e+01 -1.057823e+01 -1.058083e+01 -1.040046e+01 
-1.079010e+01 -1.072438e+01 -1.092105e+01 -1.094936e+01 -1.120320e+01 -1.128421e+01 -1.161195e+01 -1.187912e+01 -1.242876e+01 -1.325311e+01 -1.445111e+01 -1.065886e+01 8.835766e+00 3.195733e+01 4.771735e+01 5.408642e+01 5.456730e+01 5.408642e+01 4.771735e+01 3.195733e+01 8.835766e+00 -1.065886e+01 -1.445111e+01 -1.325311e+01 -1.242876e+01 -1.187912e+01 -1.161195e+01 -1.128421e+01 -1.120320e+01 -1.094936e+01 -1.092105e+01 -1.072438e+01 
-1.117894e+01 -1.114060e+01 -1.131853e+01 -1.140211e+01 -1.168792e+01 -1.189358e+01 -1.233063e+01 -1.279532e+01 -1.356887e+01 -1.462509e+01 -1.634447e+01 -1.848148e+01 -1.769785e+01 -6.308026e+00 9.768667e+00 1.993588e+01 2.311168e+01 1.993588e+01 9.768667e+00 -6.308026e+00 -1.769785e+01 -1.848148e+01 -1.634447e+01 -1.462509e+01 -1.356887e+01 -1.279532e+01 -1.233063e+01 -1.189358e+01 -1.168792e+01 -1.140211e+01 -1.131853e+01 -1.114060e+01 
-1.154083e+01 -1.149599e+01 -1.168422e+01 -1.177893e+01 -1.210108e+01 -1.235708e+01 -1.285970e+01 -1.338663e+01 -1.420285e+01 -1.519535e+01 -1.658557e+01 -1.822462e+01 -2.016778e+01 -2.230314e+01 -2.104302e+01 -1.741766e+01 -1.587523e+01 -1.741766e+01 -2.104302e+01 -2.230314e+01 -2.016778e+01 -1.822462e+01 -1.658557e+01 -1.519535e+01 -1.420285e+01 -1.338663e+01 -1.285970e+01 -1.235708e+01 -1.210108e+01 -1.177893e+01 -1.168422e+01 -1.149599e+01 
-1.187029e+01 -1.184449e+01 -1.201293e+01 -1.213190e+01 -1.244727e+01 -1.274138e+01 -1.325035e+01 -1.380634e+01 -1.459995e+01 -1.551235e+01 -1.664456e+01 -1.781112e+01 -1.872268e+01 -1.904927e+01 -1.912224e+01 -1.976343e+01 -1.962989e+01 -1.976343e+01 -1.912224e+01 -1.904927e+01 -1.872268e+01 -1.781112e+01 -1.664456e+01 -1.551235e+01 -1.459995e+01 -1.380634e+01 -1.325035e+01 -1.274138e+01 -1.244727e+01 -1.213190e+01 -1.201293e+01 -1.184449e+01 
-1.218477e+01 -1.215312e+01 -1.232870e+01 -1.244754e+01 -1.277393e+01 -1.307702e+01 -1.359590e+01 -1.415947e+01 -1.493723e+01 -1.582574e+01 -1.684931e+01 -1.796366e+01 -1.888801e+01 -1.970748e+01 -1.960898e+01 -1.881617e+01 -1.840043e+01 -1.881617e+01 -1.960898e+01 -1.970748e+01 -1.888801e+01 -1.796366e+01 -1.684931e+01 -1.582574e+01 -1.493723e+01 -1.415947e+01 -1.359590e+01 -1.307702e+01 -1.277393e+01 -1.244754e+01 -1.232870e+01 -1.215312e+01 
-1.238710e+01 -1.236853e+01 -1.252489e+01 -1.264998e+01 -1.295009e+01 -1.324598e+01 -1.372249e+01 -1.424648e+01 -1.494255e+01 -1.571799e+01 -1.656636e+01 -1.742224e+01 -1.806218e+01 -1.850750e+01 -1.850760e+01 -1.865684e+01 -1.846687e+01 -1.865684e+01 -1.850760e+01 -1.850750e+01 -1.806218e+01 -1.742224e+01 -1.656636e+01 -1.571799e+01 -1.494255e+01 -1.424648e+01 -1.372249e+01 -1.324598e+01 -1.295009e+01 -1.264998e+01 -1.252489e+01 -1.236853e+01 
-1.259744e+01 -1.257325e+01 -1.273809e+01 -1.286118e+01 -1.316791e+01 -1.346102e+01 -1.393315e+01 -1.444534e+01 -1.511497e+01 -1.586089e+01 -1.665192e+01 -1.745810e+01 -1.805219e+01 -1.847698e+01 -1.843181e+01 -1.811867e+01 -1.793624e+01 -1.811867e+01 -1.843181e+01 -1.847698e+01 -1.805219e+01 -1.745810e+01 -1.665192e+01 -1.586089e+01 -1.511497e+01 -1.444534e+01 -1.393315e+01 -1.346102e+01 -1.316791e+01 -1.286118e+01 -1.273809e+01 -1.257325e+01 
-1.265213e+01 -1.263706e+01 -1.278553e+01 -1.290843e+01 -1.318850e+01 -1.346444e+01 -1.389131e+01 -1.435758e+01 -1.495260e+01 -1.561236e+01 -1.628834e+01 -1.696312e+01 -1.740461e+01 -1.771494e+01 -1.758560e+01 -1.751990e+01 -1.730675e+01 -1.751990e+01 -1.758560e+01 -1.771494e+01 -1.740461e+01 -1.696312e+01 -1.628834e+01 -1.561236e+01 -1.495260e+01 -1.435758e+01 -1.389131e+01 -1.346444e+01 -1.318850e+01 -1.290843e+01 -1.278553e+01 -1.263706e+01 
