# vtk DataFile Version 2.0
Comment goes here
ASCII

DATASET STRUCTURED_POINTS
FIELD FieldData 1
TIME 1 1 double
1.04000000
DIMENSIONS    32   32   1

ORIGIN    0.000   0.000   0.000
SPACING   0.03125 0.03125   1.000

POINT_DATA   1024
SCALARS P double
LOOKUP_TABLE default

-1.048286e+01 -1.049117e+01 -1.040744e+01 -1.032847e+01 -1.018341e+01 -1.002331e+01 -9.860988e+00 -9.669270e+00 -9.548987e+00 -9.366199e+00 -9.260078e+00 -9.011050e+00 -8.746933e+00 -8.266051e+00 -7.731178e+00 -7.125969e+00 -6.852003e+00 -7.125969e+00 -7.731178e+00 -8.266051e+00 -8.746933e+00 -9.011050e+00 -9.260078e+00 -9.366199e+00 -9.548987e+00 -9.669270e+00 -9.860988e+00 -1.002331e+01 -1.018341e+01 -1.032847e+01 -1.040744e+01 -1.049117e+01 
-1.040069e+01 -1.038758e+01 -1.032128e+01 -1.021662e+01 -1.008697e+01 -9.898147e+00 -9.751736e+00 -9.529405e+00 -9.427173e+00 -9.211307e+00 -9.128158e+00 -8.841932e+00 -8.618984e+00 -8.103787e+00 -7.649045e+00 -7.018251e+00 -6.805435e+00 -7.018251e+00 -7.649045e+00 -8.103787e+00 -8.618984e+00 -8.841932e+00 -9.128158e+00 -9.211307e+00 -9.427173e+00 -9.529405e+00 -9.751736e+00 -9.898147e+00 -1.008697e+01 -1.021662e+01 -1.032128e+01 -1.038758e+01 
-1.055863e+01 -1.057365e+01 -1.048785e+01 -1.041966e+01 -1.027972e+01 -1.013411e+01 -9.986094e+00 -9.806901e+00 -9.706400e+00 -9.527653e+00 -9.443989e+00 -9.210412e+00 -8.993048e+00 -8.580921e+00 -8.126785e+00 -7.552297e+00 -7.283559e+00 -7.552297e+00 -8.126785e+00 -8.580921e+00 -8.993048e+00 -9.210412e+00 -9.443989e+00 -9.527653e+00 -9.706400e+00 -9.806901e+00 -9.986094e+00 -1.013411e+01 -1.027972e+01 -1.041966e+01 -1.048785e+01 -1.057365e+01 
-1.056202e+01 -1.056326e+01 -1.049327e+01 -1.041102e+01 -1.028946e+01 -1.012505e+01 -9.995735e+00 -9.783347e+00 -9.693545e+00 -9.458673e+00 -9.376365e+00 -9.079061e+00 -8.895640e+00 -8.465896e+00 -8.182065e+00 -7.645373e+00 -7.468456e+00 -7.645373e+00 -8.182065e+00 -8.465896e+00 -8.895640e+00 -9.079061e+00 -9.376365e+00 -9.458673e+00 -9.693545e+00 -9.783347e+00 -9.995735e+00 -1.012505e+01 -1.028946e+01 -1.041102e+01 -1.049327e+01 -1.056326e+01 
-1.078669e+01 -1.082382e+01 -1.073514e+01 -1.070284e+01 -1.057288e+01 -1.045974e+01 -1.032313e+01 -1.013917e+01 -1.003152e+01 -9.776931e+00 -9.663272e+00 -9.341002e+00 -9.135193e+00 -8.810913e+00 -8.468508e+00 -7.923499e+00 -7.642720e+00 -7.923499e+00 -8.468508e+00 -8.810913e+00 -9.135193e+00 -9.341002e+00 -9.663272e+00 -9.776931e+00 -1.003152e+01 -1.013917e+01 -1.032313e+01 -1.045974e+01 -1.057288e+01 -1.070284e+01 -1.073514e+01 -1.082382e+01 
-1.089561e+01 -1.092941e+01 -1.085797e+01 -1.082763e+01 -1.071518e+01 -1.058587e+01 -1.044937e+01 -1.020270e+01 -1.005327e+01 -9.665079e+00 -9.449352e+00 -8.927422e+00 -8.605172e+00 -8.146294e+00 -8.008583e+00 -7.581613e+00 -7.380088e+00 -7.581613e+00 -8.008583e+00 -8.146294e+00 -8.605172e+00 -8.927422e+00 -9.449352e+00 -9.665079e+00 -1.005327e+01 -1.020270e+01 -1.044937e+01 -1.058587e+01 -1.071518e+01 -1.082763e+01 -1.085797e+01 -1.092941e+01 
-1.119759e+01 -1.127617e+01 -1.119109e+01 -1.122819e+01 -1.110510e+01 -1.103646e+01 -1.087126e+01 -1.064055e+01 -1.044292e+01 -9.956671e+00 -9.694718e+00 -8.960322e+00 -8.639141e+00 -8.218280e+00 -7.535225e+00 -6.715714e+00 -6.244295e+00 -6.715714e+00 -7.535225e+00 -8.218280e+00 -8.639141e+00 -8.960322e+00 -9.694718e+00 -9.956671e+00 -1.044292e+01 -1.064055e+01 -1.087126e+01 -1.103646e+01 -1.110510e+01 -1.122819e+01 -1.119109e+01 -1.127617e+01 
-1.144814e+01 -1.153737e+01 -1.147175e+01 -1.153222e+01 -1.142428e+01 -1.134955e+01 -1.117378e+01 -1.087151e+01 -1.060995e+01 -9.944794e+00 -9.454556e+00 -8.233712e+00 -7.399023e+00 -6.615358e+00 -6.573478e+00 -6.180154e+00 -5.734575e+00 -6.180154e+00 -6.573478e+00 -6.615358e+00 -7.399023e+00 -8.233712e+00 -9.454556e+00 -9.944794e+00 -1.060995e+01 -1.087151e+01 -1.117378e+01 -1.134955e+01 -1.142428e+01 -1.153222e+01 -1.147175e+01 -1.153737e+01 
-1.183078e+01 -1.197250e+01 -1.190125e+01 -1.204804e+01 -1.192774e+01 -1.194522e+01 -1.171860e+01 -1.149806e+01 -1.118209e+01 -1.042195e+01 -1.009838e+01 -8.246859e+00 -8.261818e+00 -7.610857e+00 -5.094013e+00 -3.227838e+00 -2.560711e+00 -3.227838e+00 -5.094013e+00 -7.610857e+00 -8.261818e+00 -8.246859e+00 -1.009838e+01 -1.042195e+01 -1.118209e+01 -1.149806e+01 -1.171860e+01 -1.194522e+01 -1.192774e+01 -1.204804e+01 -1.190125e+01 -1.197250e+01 
-1.220492e+01 -1.237618e+01 -1.231983e+01 -1.252088e+01 -1.240964e+01 -1.246769e+01 -1.226116e+01 -1.204431e+01 -1.181928e+01 -1.111273e+01 -1.013703e+01 -7.143213e+00 9.470542e-01 9.761974e+00 1.690494e+01 2.234080e+01 2.331330e+01 2.234080e+01 1.690494e+01 9.761974e+00 9.470542e-01 -7.143213e+00 -1.013703e+01 -1.111273e+01 -1.181928e+01 -1.204431e+01 -1.226116e+01 -1.246769e+01 -1.240964e+01 -1.252088e+01 -1.231983e+01 -1.237618e+01 
-1.257040e+01 -1.279851e+01 -1.275033e+01 -1.305495e+01 -1.294992e+01 -1.317118e+01 -1.291054e+01 -1.304559e+01 -1.260101e+01 -1.184634e+01 -4.383662e+00 1.311391e+01 2.912617e+01 3.981190e+01 4.401072e+01 4.541740e+01 4.571411e+01 4.541740e+01 4.401072e+01 3.981190e+01 2.912617e+01 1.311391e+01 -4.383662e+00 -1.184634e+01 -1.260101e+01 -1.304559e+01 -1.291054e+01 -1.317118e+01 -1.294992e+01 -1.305495e+01 -1.275033e+01 -1.279851e+01 
-1.292148e+01 -1.319970e+01 -1.315927e+01 -1.357321e+01 -1.343647e+01 -1.382331e+01 -1.354088e+01 -1.384139e+01 -1.406475e+01 -4.595232e+00 1.699297e+01 3.914045e+01 4.625279e+01 4.710673e+01 4.676501e+01 4.555198e+01 4.560936e+01 4.555198e+01 4.676501e+01 4.710673e+01 4.625279e+01 3.914045e+01 1.699297e+01 -4.595232e+00 -1.406475e+01 -1.384139e+01 -1.354088e+01 -1.382331e+01 -1.343647e+01 -1.357321e+01 -1.315927e+01 -1.319970e+01 
-1.304419e+01 -1.337496e+01 -1.337085e+01 -1.387845e+01 -1.380844e+01 -1.435256e+01 -1.414933e+01 -1.544138e+01 -9.732293e+00 1.574471e+01 4.116913e+01 4.774992e+01 4.732290e+01 4.670374e+01 4.644601e+01 4.641433e+01 4.645995e+01 4.641433e+01 4.644601e+01 4.670374e+01 4.732290e+01 4.774992e+01 4.116913e+01 1.574471e+01 -9.732293e+00 -1.544138e+01 -1.414933e+01 -1.435256e+01 -1.380844e+01 -1.387845e+01 -1.337085e+01 -1.337496e+01 
-1.315846e+01 -1.351335e+01 -1.356185e+01 -1.421610e+01 -1.403309e+01 -1.504891e+01 -1.405030e+01 -1.743905e+01 2.472781e+00 3.604320e+01 4.893963e+01 4.807133e+01 4.778400e+01 4.752669e+01 4.723692e+01 4.684835e+01 4.684645e+01 4.684835e+01 4.723692e+01 4.752669e+01 4.778400e+01 4.807133e+01 4.893963e+01 3.604320e+01 2.472781e+00 -1.743905e+01 -1.405030e+01 -1.504891e+01 -1.403309e+01 -1.421610e+01 -1.356185e+01 -1.351335e+01 
-1.284224e+01 -1.322108e+01 -1.332375e+01 -1.395658e+01 -1.390699e+01 -1.447648e+01 -1.409490e+01 -1.390508e+01 1.603417e+01 4.745829e+01 4.899349e+01 4.877736e+01 4.792330e+01 4.775007e+01 4.724575e+01 4.725736e+01 4.706091e+01 4.725736e+01 4.724575e+01 4.775007e+01 4.792330e+01 4.877736e+01 4.899349e+01 4.745829e+01 1.603417e+01 -1.390508e+01 -1.409490e+01 -1.447648e+01 -1.390699e+01 -1.395658e+01 -1.332375e+01 -1.322108e+01 
-1.276043e+01 -1.298857e+01 -1.333390e+01 -1.363380e+01 -1.412212e+01 -1.343282e+01 -1.464749e+01 -9.287263e+00 2.636352e+01 5.113677e+01 4.835725e+01 4.908486e+01 4.788814e+01 4.805196e+01 4.749125e+01 4.746201e+01 4.728306e+01 4.746201e+01 4.749125e+01 4.805196e+01 4.788814e+01 4.908486e+01 4.835725e+01 5.113677e+01 2.636352e+01 -9.287263e+00 -1.464749e+01 -1.343282e+01 -1.412212e+01 -1.363380e+01 -1.333390e+01 -1.298857e+01 
-1.242071e+01 -1.269885e+01 -1.297068e+01 -1.326387e+01 -1.358704e+01 -1.263266e+01 -1.346622e+01 -7.094304e+00 3.033653e+01 5.268993e+01 4.903573e+01 4.968238e+01 4.810168e+01 4.822586e+01 4.750320e+01 4.759572e+01 4.728975e+01 4.759572e+01 4.750320e+01 4.822586e+01 4.810168e+01 4.968238e+01 4.903573e+01 5.268993e+01 3.033653e+01 -7.094304e+00 -1.346622e+01 -1.263266e+01 -1.358704e+01 -1.326387e+01 -1.297068e+01 -1.269885e+01 
-1.276043e+01 -1.298857e+01 -1.333390e+01 -1.363380e+01 -1.412212e+01 -1.343282e+01 -1.464749e+01 -9.287263e+00 2.636352e+01 5.113677e+01 4.835725e+01 4.908486e+01 4.788814e+01 4.805196e+01 4.749125e+01 4.746201e+01 4.728306e+01 4.746201e+01 4.749125e+01 4.805196e+01 4.788814e+01 4.908486e+01 4.835725e+01 5.113677e+01 2.636352e+01 -9.287263e+00 -1.464749e+01 -1.343282e+01 -1.412212e+01 -1.363380e+01 -1.333390e+01 -1.298857e+01 
-1.284224e+01 -1.322108e+01 -1.332375e+01 -1.395658e+01 -1.390699e+01 -1.447648e+01 -1.409490e+01 -1.390508e+01 1.603417e+01 4.745829e+01 4.899349e+01 4.877736e+01 4.792330e+01 4.775007e+01 4.724575e+01 4.725736e+01 4.706091e+01 4.725736e+01 4.724575e+01 4.775007e+01 4.792330e+01 4.877736e+01 4.899349e+01 4.745829e+01 1.603417e+01 -1.390508e+01 -1.409490e+01 -1.447648e+01 -1.390699e+01 -1.395658e+01 -1.332375e+01 -1.322108e+01 
-1.315846e+01 -1.351335e+01 -1.356185e+01 -1.421610e+01 -1.403309e+01 -1.504891e+01 -1.405030e+01 -1.743905e+01 2.472781e+00 3.604320e+01 4.893963e+01 4.807133e+01 4.778400e+01 4.752669e+01 4.723692e+01 4.684835e+01 4.684645e+01 4.684835e+01 4.723692e+01 4.752669e+01 4.778400e+01 4.807133e+01 4.893963e+01 3.604320e+01 2.472781e+00 -1.743905e+01 -1.405030e+01 -1.504891e+01 -1.403309e+01 -1.421610e+01 -1.356185e+01 -1.351335e+01 
-1.304419e+01 -1.337496e+01 -1.337085e+01 -1.387845e+01 -1.380844e+01 -1.435256e+01 -1.414933e+01 -1.544138e+01 -9.732293e+00 1.574471e+01 4.116913e+01 4.774992e+01 4.732290e+01 4.670374e+01 4.644601e+01 4.641433e+01 4.645995e+01 4.641433e+01 4.644601e+01 4.670374e+01 4.732290e+01 4.774992e+01 4.116913e+01 1.574471e+01 -9.732293e+00 -1.544138e+01 -1.414933e+01 -1.435256e+01 -1.380844e+01 -1.387845e+01 -1.337085e+01 -1.337496e+01 
-1.292148e+01 -1.319970e+01 -1.315927e+01 -1.357321e+01 -1.343647e+01 -1.382331e+01 -1.354088e+01 -1.384139e+01 -1.406475e+01 -4.595232e+00 1.699297e+01 3.914045e+01 4.625279e+01 4.710673e+01 4.676501e+01 4.555198e+01 4.560936e+01 4.555198e+01 4.676501e+01 4.710673e+01 4.625279e+01 3.914045e+01 1.699297e+01 -4.595232e+00 -1.406475e+01 -1.384139e+01 -1.354088e+01 -1.382331e+01 -1.343647e+01 -1.357321e+01 -1.315927e+01 -1.319970e+01 
-1.257040e+01 -1.279851e+01 -1.275033e+01 -1.305495e+01 -1.294992e+01 -1.317118e+01 -1.291054e+01 -1.304559e+01 -1.260101e+01 -1.184634e+01 -4.383662e+00 1.311391e+01 2.912617e+01 3.981190e+01 4.401072e+01 4.541740e+01 4.571411e+01 4.541740e+01 4.401072e+01 3.981190e+01 2.912617e+01 1.311391e+01 -4.383662e+00 -1.184634e+01 -1.260101e+01 -1.304559e+01 -1.291054e+01 -1.317118e+01 -1.294992e+01 -1.305495e+01 -1.275033e+01 -1.279851e+01 
-1.220492e+01 -1.237618e+01 -1.231983e+01 -1.252088e+01 -1.240964e+01 -1.246769e+01 -1.226116e+01 -1.204431e+01 -1.181928e+01 -1.111273e+01 -1.013703e+01 -7.143213e+00 9.470542e-01 9.761974e+00 1.690494e+01 2.234080e+01 2.331330e+01 2.234080e+01 1.690494e+01 9.761974e+00 9.470542e-01 -7.143213e+00 -1.013703e+01 -1.111273e+01 -1.181928e+01 -1.204431e+01 -1.226116e+01 -1.246769e+01 -1.240964e+01 -1.252088e+01 -1.231983e+01 -1.237618e+01 
-1.183078e+01 -1.197250e+01 -1.190125e+01 -1.204804e+01 -1.192774e+01 -1.194522e+01 -1.171860e+01 -1.149806e+01 -1.118209e+01 -1.042195e+01 -1.009838e+01 -8.246859e+00 -8.261818e+00 -7.610857e+00 -5.094013e+00 -3.227838e+00 -2.560711e+00 -3.227838e+00 -5.094013e+00 -7.610857e+00 -8.261818e+00 -8.246859e+00 -1.009838e+01 -1.042195e+01 -1.118209e+01 -1.149806e+01 -1.171860e+01 -1.194522e+01 -1.192774e+01 -1.204804e+01 -1.190125e+01 -1.197250e+01 
-1.144814e+01 -1.153737e+01 -1.147175e+01 -1.153222e+01 -1.142428e+01 -1.134955e+01 -1.117378e+01 -1.087151e+01 -1.060995e+01 -9.944794e+00 -9.454556e+00 -8.233712e+00 -7.399023e+00 -6.615358e+00 -6.573478e+00 -6.180154e+00 -5.734575e+00 -6.180154e+00 -6.573478e+00 -6.615358e+00 -7.399023e+00 -8.233712e+00 -9.454556e+00 -9.944794e+00 -1.060995e+01 -1.087151e+01 -1.117378e+01 -1.134955e+01 -1.142428e+01 -1.153222e+01 -1.147175e+01 -1.153737e+01 
-1.119759e+01 -1.127617e+01 -1.119109e+01 -1.122819e+01 -1.110510e+01 -1.103646e+01 -1.087126e+01 -1.064055e+01 -1.044292e+01 -9.956671e+00 -9.694718e+00 -8.960322e+00 -8.639141e+00 -8.218280e+00 -7.535225e+00 -6.715714e+00 -6.244295e+00 -6.715714e+00 -7.535225e+00 -8.218280e+00 -8.639141e+00 -8.960322e+00 -9.694718e+00 -9.956671e+00 -1.044292e+01 -1.064055e+01 -1.087126e+01 -1.103646e+01 -1.110510e+01 -1.122819e+01 -1.119109e+01 -1.127617e+01 
-1.089561e+01 -1.092941e+01 -1.085797e+01 -1.082763e+01 -1.071518e+01 -1.058587e+01 -1.044937e+01 -1.020270e+01 -1.005327e+01 -9.665079e+00 -9.449352e+00 -8.927422e+00 -8.605172e+00 -8.146294e+00 -8.008583e+00 -7.581613e+00 -7.380088e+00 -7.581613e+00 -8.008583e+00 -8.146294e+00 -8.605172e+00 -8.927422e+00 -9.449352e+00 -9.665079e+00 -1.005327e+01 -1.020270e+01 -1.044937e+01 -1.058587e+01 -1.071518e+01 -1.082763e+01 -1.085797e+01 -1.092941e+01 
-1.078669e+01 -1.082382e+01 -1.073514e+01 -1.070284e+01 -1.057288e+01 -1.045974e+01 -1.032313e+01 -1.013917e+01 -1.003152e+01 -9.776931e+00 -9.663272e+00 -9.341002e+00 -9.135193e+00 -8.810913e+00 -8.468508e+00 -7.923499e+00 -7.642720e+00 -7.923499e+00 -8.468508e+00 -8.810913e+00 -9.135193e+00 -9.341002e+00 -9.663272e+00 -9.776931e+00 -1.003152e+01 -1.013917e+01 -1.032313e+01 -1.045974e+01 -1.057288e+01 -1.070284e+01 -1.073514e+01 -1.082382e+01 
-1.056202e+01 -1.056326e+01 -1.049327e+01 -1.041102e+01 -1.028946e+01 -1.012505e+01 -9.995735e+00 -9.783347e+00 -9.693545e+00 -9.458673e+00 -9.376365e+00 -9.079061e+00 -8.895640e+00 -8.465896e+00 -8.182065e+00 -7.645373e+00 -7.468456e+00 -7.645373e+00 -8.182065e+00 -8.465896e+00 -8.895640e+00 -9.079061e+00 -9.376365e+00 -9.458673e+00 -9.693545e+00 -9.783347e+00 -9.995735e+00 -1.012505e+01 -1.028946e+01 -1.041102e+01 -1.049327e+01 -1.056326e+01 
-1.055863e+01 -1.057365e+01 -1.048785e+01 -1.041966e+01 -1.027972e+01 -1.013411e+01 -9.986094e+00 -9.806901e+00 -9.706400e+00 -9.527653e+00 -9.443989e+00 -9.210412e+00 -8.993048e+00 -8.580921e+00 -8.126785e+00 -7.552297e+00 -7.283559e+00 -7.552297e+00 -8.126785e+00 -8.580921e+00 -8.993048e+00 -9.210412e+00 -9.443989e+00 -9.527653e+00 -9.706400e+00 -9.806901e+00 -9.986094e+00 -1.013411e+01 -1.027972e+01 -1.041966e+01 -1.048785e+01 -1.057365e+01 
-1.040069e+01 -1.038758e+01 -1.032128e+01 -1.021662e+01 -1.008697e+01 -9.898147e+00 -9.751736e+00 -9.529405e+00 -9.427173e+00 -9.211307e+00 -9.128158e+00 -8.841932e+00 -8.618984e+00 -8.103787e+00 -7.649045e+00 -7.018251e+00 -6.805435e+00 -7.018251e+00 -7.649045e+00 -8.103787e+00 -8.618984e+00 -8.841932e+00 -9.128158e+00 -9.211307e+00 -9.427173e+00 -9.529405e+00 -9.751736e+00 -9.898147e+00 -1.008697e+01 -1.021662e+01 -1.032128e+01 -1.038758e+01 
