# vtk DataFile Version 2.0
Comment goes here
ASCII

DATASET STRUCTURED_POINTS
FIELD FieldData 1
TIME 1 1 double
1.28000000
DIMENSIONS    32   32   1

ORIGIN    0.000   0.000   0.000
SPACING   0.03125 0.03125   1.000

POINT_DATA   1024
SCALARS P double
LOOKUP_TABLE default

-8.781946e+00 -8.777320e+00 -8.809269e+00 -8.831557e+00 -8.880166e+00 -8.933485e+00 -9.011363e+00 -9.125089e+00 -9.253649e+00 -9.421177e+00 -9.550594e+00 -9.654993e+00 -9.645822e+00 -9.509519e+00 -9.277134e+00 -8.936618e+00 -8.865611e+00 -8.936618e+00 -9.277134e+00 -9.509519e+00 -9.645822e+00 -9.654993e+00 -9.550594e+00 -9.421177e+00 -9.253649e+00 -9.125089e+00 -9.011363e+00 -8.933485e+00 -8.880166e+00 -8.831557e+00 -8.809269e+00 -8.777320e+00 
-8.675801e+00 -8.699109e+00 -8.699829e+00 -8.745789e+00 -8.763001e+00 -8.834617e+00 -8.885781e+00 -9.007429e+00 -9.120155e+00 -9.278406e+00 -9.413656e+00 -9.500190e+00 -9.534507e+00 -9.416348e+00 -9.263069e+00 -8.997814e+00 -8.932866e+00 -8.997814e+00 -9.263069e+00 -9.416348e+00 -9.534507e+00 -9.500190e+00 -9.413656e+00 -9.278406e+00 -9.120155e+00 -9.007429e+00 -8.885781e+00 -8.834617e+00 -8.763001e+00 -8.745789e+00 -8.699829e+00 -8.699109e+00 
-8.758823e+00 -8.753627e+00 -8.790395e+00 -8.817471e+00 -8.877594e+00 -8.945063e+00 -9.043114e+00 -9.182205e+00 -9.335750e+00 -9.536868e+00 -9.690561e+00 -9.837596e+00 -9.854317e+00 -9.770251e+00 -9.548521e+00 -9.182266e+00 -9.113920e+00 -9.182266e+00 -9.548521e+00 -9.770251e+00 -9.854317e+00 -9.837596e+00 -9.690561e+00 -9.536868e+00 -9.335750e+00 -9.182205e+00 -9.043114e+00 -8.945063e+00 -8.877594e+00 -8.817471e+00 -8.790395e+00 -8.753627e+00 
-8.641424e+00 -8.665534e+00 -8.673822e+00 -8.731197e+00 -8.764948e+00 -8.863646e+00 -8.939868e+00 -9.105001e+00 -9.244467e+00 -9.449981e+00 -9.609933e+00 -9.731068e+00 -9.803958e+00 -9.734979e+00 -9.658982e+00 -9.440152e+00 -9.359420e+00 -9.440152e+00 -9.658982e+00 -9.734979e+00 -9.803958e+00 -9.731068e+00 -9.609933e+00 -9.449981e+00 -9.244467e+00 -9.105001e+00 -8.939868e+00 -8.863646e+00 -8.764948e+00 -8.731197e+00 -8.673822e+00 -8.665534e+00 
-8.705153e+00 -8.700728e+00 -8.753805e+00 -8.795987e+00 -8.885563e+00 -8.978173e+00 -9.112166e+00 -9.284716e+00 -9.469631e+00 -9.712657e+00 -9.884381e+00 -1.008864e+01 -1.010018e+01 -1.010512e+01 -9.763240e+00 -9.210058e+00 -9.141084e+00 -9.210058e+00 -9.763240e+00 -1.010512e+01 -1.010018e+01 -1.008864e+01 -9.884381e+00 -9.712657e+00 -9.469631e+00 -9.284716e+00 -9.112166e+00 -8.978173e+00 -8.885563e+00 -8.795987e+00 -8.753805e+00 -8.700728e+00 
-8.613561e+00 -8.642316e+00 -8.669610e+00 -8.749485e+00 -8.808292e+00 -8.933409e+00 -9.021221e+00 -9.215985e+00 -9.342162e+00 -9.581815e+00 -9.714513e+00 -9.822097e+00 -9.873786e+00 -9.759305e+00 -9.723649e+00 -9.538248e+00 -9.345552e+00 -9.538248e+00 -9.723649e+00 -9.759305e+00 -9.873786e+00 -9.822097e+00 -9.714513e+00 -9.581815e+00 -9.342162e+00 -9.215985e+00 -9.021221e+00 -8.933409e+00 -8.808292e+00 -8.749485e+00 -8.669610e+00 -8.642316e+00 
-8.684755e+00 -8.687917e+00 -8.768318e+00 -8.834643e+00 -8.957777e+00 -9.054832e+00 -9.206380e+00 -9.363851e+00 -9.554374e+00 -9.807370e+00 -9.998692e+00 -1.027831e+01 -1.032823e+01 -1.043826e+01 -9.278958e+00 -8.008896e+00 -8.041190e+00 -8.008896e+00 -9.278958e+00 -1.043826e+01 -1.032823e+01 -1.027831e+01 -9.998692e+00 -9.807370e+00 -9.554374e+00 -9.363851e+00 -9.206380e+00 -9.054832e+00 -8.957777e+00 -8.834643e+00 -8.768318e+00 -8.687917e+00 
-8.673947e+00 -8.713436e+00 -8.770567e+00 -8.876649e+00 -8.956447e+00 -9.075031e+00 -9.139670e+00 -9.320113e+00 -9.380811e+00 -9.697028e+00 -9.733568e+00 -9.815425e+00 -9.824809e+00 -9.311204e+00 -9.243800e+00 -9.173412e+00 -8.880562e+00 -9.173412e+00 -9.243800e+00 -9.311204e+00 -9.824809e+00 -9.815425e+00 -9.733568e+00 -9.697028e+00 -9.380811e+00 -9.320113e+00 -9.139670e+00 -9.075031e+00 -8.956447e+00 -8.876649e+00 -8.770567e+00 -8.713436e+00 
-8.757502e+00 -8.779460e+00 -8.888394e+00 -8.981565e+00 -9.120484e+00 -9.177075e+00 -9.310639e+00 -9.373880e+00 -9.564489e+00 -9.798270e+00 -1.007162e+01 -1.067160e+01 -1.193676e+01 -1.165248e+01 -5.412927e+00 -1.964452e+00 -3.259525e+00 -1.964452e+00 -5.412927e+00 -1.165248e+01 -1.193676e+01 -1.067160e+01 -1.007162e+01 -9.798270e+00 -9.564489e+00 -9.373880e+00 -9.310639e+00 -9.177075e+00 -9.120484e+00 -8.981565e+00 -8.888394e+00 -8.779460e+00 
-8.824236e+00 -8.878951e+00 -8.972119e+00 -9.095712e+00 -9.185183e+00 -9.234972e+00 -9.255661e+00 -9.340632e+00 -9.361610e+00 -1.003224e+01 -9.919367e+00 -9.775958e+00 -3.909231e+00 8.041146e+00 2.187881e+01 3.105759e+01 3.135790e+01 3.105759e+01 2.187881e+01 8.041146e+00 -3.909231e+00 -9.775958e+00 -9.919367e+00 -1.003224e+01 -9.361610e+00 -9.340632e+00 -9.255661e+00 -9.234972e+00 -9.185183e+00 -9.095712e+00 -8.972119e+00 -8.878951e+00 
-8.824395e+00 -8.876025e+00 -9.008187e+00 -9.130427e+00 -9.258361e+00 -9.239065e+00 -9.324332e+00 -9.221944e+00 -9.458888e+00 -9.625592e+00 -7.878819e+00 2.512658e+00 2.218867e+01 3.848538e+01 4.620608e+01 4.883588e+01 4.982631e+01 4.883588e+01 4.620608e+01 3.848538e+01 2.218867e+01 2.512658e+00 -7.878819e+00 -9.625592e+00 -9.458888e+00 -9.221944e+00 -9.324332e+00 -9.239065e+00 -9.258361e+00 -9.130427e+00 -9.008187e+00 -8.876025e+00 
-8.850492e+00 -8.923391e+00 -9.069068e+00 -9.208026e+00 -9.325866e+00 -9.229660e+00 -9.253178e+00 -8.908095e+00 -8.915394e+00 -8.906463e+00 2.293417e+00 2.602508e+01 4.288886e+01 4.647641e+01 4.663367e+01 4.638937e+01 4.615846e+01 4.638937e+01 4.663367e+01 4.647641e+01 4.288886e+01 2.602508e+01 2.293417e+00 -8.906463e+00 -8.915394e+00 -8.908095e+00 -9.253178e+00 -9.229660e+00 -9.325866e+00 -9.208026e+00 -9.069068e+00 -8.923391e+00 
-8.593080e+00 -8.682432e+00 -8.858867e+00 -9.031956e+00 -9.171795e+00 -9.046396e+00 -9.171075e+00 -8.567710e+00 -9.376596e+00 -3.934123e+00 2.152178e+01 4.306207e+01 4.627780e+01 4.641553e+01 4.682653e+01 4.748647e+01 4.768089e+01 4.748647e+01 4.682653e+01 4.641553e+01 4.627780e+01 4.306207e+01 2.152178e+01 -3.934123e+00 -9.376596e+00 -8.567710e+00 -9.171075e+00 -9.046396e+00 -9.171795e+00 -9.031956e+00 -8.858867e+00 -8.682432e+00 
-8.425946e+00 -8.533078e+00 -8.772614e+00 -8.995620e+00 -9.234665e+00 -9.051001e+00 -9.352292e+00 -8.270111e+00 -1.002156e+01 4.321481e+00 3.514153e+01 4.719655e+01 4.623548e+01 4.667442e+01 4.647316e+01 4.660918e+01 4.648762e+01 4.660918e+01 4.647316e+01 4.667442e+01 4.623548e+01 4.719655e+01 3.514153e+01 4.321481e+00 -1.002156e+01 -8.270111e+00 -9.352292e+00 -9.051001e+00 -9.234665e+00 -8.995620e+00 -8.772614e+00 -8.533078e+00 
-7.862087e+00 -8.004957e+00 -8.259654e+00 -8.588998e+00 -8.764133e+00 -8.762542e+00 -8.562184e+00 -8.107660e+00 -7.676421e+00 1.471225e+01 4.265206e+01 4.682740e+01 4.628525e+01 4.688866e+01 4.678888e+01 4.721347e+01 4.712097e+01 4.721347e+01 4.678888e+01 4.688866e+01 4.628525e+01 4.682740e+01 4.265206e+01 1.471225e+01 -7.676421e+00 -8.107660e+00 -8.562184e+00 -8.762542e+00 -8.764133e+00 -8.588998e+00 -8.259654e+00 -8.004957e+00 
-7.602101e+00 -7.762838e+00 -8.031890e+00 -8.443053e+00 -8.582381e+00 -8.785702e+00 -8.174145e+00 -8.460838e+00 -6.014819e+00 2.199034e+01 4.661215e+01 4.633001e+01 4.640909e+01 4.654043e+01 4.649826e+01 4.661056e+01 4.655292e+01 4.661056e+01 4.649826e+01 4.654043e+01 4.640909e+01 4.633001e+01 4.661215e+01 2.199034e+01 -6.014819e+00 -8.460838e+00 -8.174145e+00 -8.785702e+00 -8.582381e+00 -8.443053e+00 -8.031890e+00 -7.762838e+00 
-7.243593e+00 -7.413451e+00 -7.677813e+00 -8.107235e+00 -8.217111e+00 -8.406372e+00 -7.661149e+00 -7.839366e+00 -5.037882e+00 2.419473e+01 4.825045e+01 4.695636e+01 4.697071e+01 4.696932e+01 4.690224e+01 4.714445e+01 4.703308e+01 4.714445e+01 4.690224e+01 4.696932e+01 4.697071e+01 4.695636e+01 4.825045e+01 2.419473e+01 -5.037882e+00 -7.839366e+00 -7.661149e+00 -8.406372e+00 -8.217111e+00 -8.107235e+00 -7.677813e+00 -7.413451e+00 
-7.602101e+00 -7.762838e+00 -8.031890e+00 -8.443053e+00 -8.582381e+00 -8.785702e+00 -8.174145e+00 -8.460838e+00 -6.014819e+00 2.199034e+01 4.661215e+01 4.633001e+01 4.640909e+01 4.654043e+01 4.649826e+01 4.661056e+01 4.655292e+01 4.661056e+01 4.649826e+01 4.654043e+01 4.640909e+01 4.633001e+01 4.661215e+01 2.199034e+01 -6.014819e+00 -8.460838e+00 -8.174145e+00 -8.785702e+00 -8.582381e+00 -8.443053e+00 -8.031890e+00 -7.762838e+00 
-7.862087e+00 -8.004957e+00 -8.259654e+00 -8.588998e+00 -8.764133e+00 -8.762542e+00 -8.562184e+00 -8.107660e+00 -7.676421e+00 1.471225e+01 4.265206e+01 4.682740e+01 4.628525e+01 4.688866e+01 4.678888e+01 4.721347e+01 4.712097e+01 4.721347e+01 4.678888e+01 4.688866e+01 4.628525e+01 4.682740e+01 4.265206e+01 1.471225e+01 -7.676421e+00 -8.107660e+00 -8.562184e+00 -8.762542e+00 -8.764133e+00 -8.588998e+00 -8.259654e+00 -8.004957e+00 
-8.425946e+00 -8.533078e+00 -8.772614e+00 -8.995620e+00 -9.234665e+00 -9.051001e+00 -9.352292e+00 -8.270111e+00 -1.002156e+01 4.321481e+00 3.514153e+01 4.719655e+01 4.623548e+01 4.667442e+01 4.647316e+01 4.660918e+01 4.648762e+01 4.660918e+01 4.647316e+01 4.667442e+01 4.623548e+01 4.719655e+01 3.514153e+01 4.321481e+00 -1.002156e+01 -8.270111e+00 -9.352292e+00 -9.051001e+00 -9.234665e+00 -8.995620e+00 -8.772614e+00 -8.533078e+00 
-8.593080e+00 -8.682432e+00 -8.858867e+00 -9.031956e+00 -9.171795e+00 -9.046396e+00 -9.171075e+00 -8.567710e+00 -9.376596e+00 -3.934123e+00 2.152178e+01 4.306207e+01 4.627780e+01 4.641553e+01 4.682653e+01 4.748647e+01 4.768089e+01 4.748647e+01 4.682653e+01 4.641553e+01 4.627780e+01 4.306207e+01 2.152178e+01 -3.934123e+00 -9.376596e+00 -8.567710e+00 -9.171075e+00 -9.046396e+00 -9.171795e+00 -9.031956e+00 -8.858867e+00 -8.682432e+00 
-8.850492e+00 -8.923391e+00 -9.069068e+00 -9.208026e+00 -9.325866e+00 -9.229660e+00 -9.253178e+00 -8.908095e+00 -8.915394e+00 -8.906463e+00 2.293417e+00 2.602508e+01 4.288886e+01 4.647641e+01 4.663367e+01 4.638937e+01 4.615846e+01 4.638937e+01 4.663367e+01 4.647641e+01 4.288886e+01 2.602508e+01 2.293417e+00 -8.906463e+00 -8.915394e+00 -8.908095e+00 -9.253178e+00 -9.229660e+00 -9.325866e+00 -9.208026e+00 -9.069068e+00 -8.923391e+00 
-8.824395e+00 -8.876025e+00 -9.008187e+00 -9.130427e+00 -9.258361e+00 -9.239065e+00 -9.324332e+00 -9.221944e+00 -9.458888e+00 -9.625592e+00 -7.878819e+00 2.512658e+00 2.218867e+01 3.848538e+01 4.620608e+01 4.883588e+01 4.982631e+01 4.883588e+01 4.620608e+01 3.848538e+01 2.218867e+01 2.512658e+00 -7.878819e+00 -9.625592e+00 -9.458888e+00 -9.221944e+00 -9.324332e+00 -9.239065e+00 -9.258361e+00 -9.130427e+00 -9.008187e+00 -8.876025e+00 
-8.824236e+00 -8.878951e+00 -8.972119e+00 -9.095712e+00 -9.185183e+00 -9.234972e+00 -9.255661e+00 -9.340632e+00 -9.361610e+00 -1.003224e+01 -9.919367e+00 -9.775958e+00 -3.909231e+00 8.041146e+00 2.187881e+01 3.105759e+01 3.135790e+01 3.105759e+01 2.187881e+01 8.041146e+00 -3.909231e+00 -9.775958e+00 -9.919367e+00 -1.003224e+01 -9.361610e+00 -9.340632e+00 -9.255661e+00 -9.234972e+00 -9.185183e+00 -9.095712e+00 -8.972119e+00 -8.878951e+00 
-8.757502e+00 -8.779460e+00 -8.888394e+00 -8.981565e+00 -9.120484e+00 -9.177075e+00 -9.310639e+00 -9.373880e+00 -9.564489e+00 -9.798270e+00 -1.007162e+01 -1.067160e+01 -1.193676e+01 -1.165248e+01 -5.412927e+00 -1.964452e+00 -3.259525e+00 -1.964452e+00 -5.412927e+00 -1.165248e+01 -1.193676e+01 -1.067160e+01 -1.007162e+01 -9.798270e+00 -9.564489e+00 -9.373880e+00 -9.310639e+00 -9.177075e+00 -9.120484e+00 -8.981565e+00 -8.888394e+00 -8.779460e+00 
-8.673947e+00 -8.713436e+00 -8.770567e+00 -8.876649e+00 -8.956447e+00 -9.075031e+00 -9.139670e+00 -9.320113e+00 -9.380811e+00 -9.697028e+00 -9.733568e+00 -9.815425e+00 -9.824809e+00 -9.311204e+00 -9.243800e+00 -9.173412e+00 -8.880562e+00 -9.173412e+00 -9.243800e+00 -9.311204e+00 -9.824809e+00 -9.815425e+00 -9.733568e+00 -9.697028e+00 -9.380811e+00 -9.320113e+00 -9.139670e+00 -9.075031e+00 -8.956447e+00 -8.876649e+00 -8.770567e+00 -8.713436e+00 
-8.684755e+00 -8.687917e+00 -8.768318e+00 -8.834643e+00 -8.957777e+00 -9.054832e+00 -9.206380e+00 -9.363851e+00 -9.554374e+00 -9.807370e+00 -9.998692e+00 -1.027831e+01 -1.032823e+01 -1.043826e+01 -9.278958e+00 -8.008896e+00 -8.041190e+00 -8.008896e+00 -9.278958e+00 -1.043826e+01 -1.032823e+01 -1.027831e+01 -9.998692e+00 -9.807370e+00 -9.554374e+00 -9.363851e+00 -9.206380e+00 -9.054832e+00 -8.957777e+00 -8.834643e+00 -8.768318e+00 -8.687917e+00 
-8.613561e+00 -8.642316e+00 -8.669610e+00 -8.749485e+00 -8.808292e+00 -8.933409e+00 -9.021221e+00 -9.215985e+00 -9.342162e+00 -9.581815e+00 -9.714513e+00 -9.822097e+00 -9.873786e+00 -9.759305e+00 -9.723649e+00 -9.538248e+00 -9.345552e+00 -9.538248e+00 -9.723649e+00 -9.759305e+00 -9.873786e+00 -9.822097e+00 -9.714513e+00 -9.581815e+00 -9.342162e+00 -9.215985e+00 -9.021221e+00 -8.933409e+00 -8.808292e+00 -8.749485e+00 -8.669610e+00 -8.642316e+00 
-8.705153e+00 -8.700728e+00 -8.753805e+00 -8.795987e+00 -8.885563e+00 -8.978173e+00 -9.112166e+00 -9.284716e+00 -9.469631e+00 -9.712657e+00 -9.884381e+00 -1.008864e+01 -1.010018e+01 -1.010512e+01 -9.763240e+00 -9.210058e+00 -9.141084e+00 -9.210058e+00 -9.763240e+00 -1.010512e+01 -1.010018e+01 -1.008864e+01 -9.884381e+00 -9.712657e+00 -9.469631e+00 -9.284716e+00 -9.112166e+00 -8.978173e+00 -8.885563e+00 -8.795987e+00 -8.753805e+00 -8.700728e+00 
-8.641424e+00 -8.665534e+00 -8.673822e+00 -8.731197e+00 -8.764948e+00 -8.863646e+00 -8.939868e+00 -9.105001e+00 -9.244467e+00 -9.449981e+00 -9.609933e+00 -9.731068e+00 -9.803958e+00 -9.734979e+00 -9.658982e+00 -9.440152e+00 -9.359420e+00 -9.440152e+00 -9.658982e+00 -9.734979e+00 -9.803958e+00 -9.731068e+00 -9.609933e+00 -9.449981e+00 -9.244467e+00 -9.105001e+00 -8.939868e+00 -8.863646e+00 -8.764948e+00 -8.731197e+00 -8.673822e+00 -8.665534e+00 
-8.758823e+00 -8.753627e+00 -8.790395e+00 -8.817471e+00 -8.877594e+00 -8.945063e+00 -9.043114e+00 -9.182205e+00 -9.335750e+00 -9.536868e+00 -9.690561e+00 -9.837596e+00 -9.854317e+00 -9.770251e+00 -9.548521e+00 -9.182266e+00 -9.113920e+00 -9.182266e+00 -9.548521e+00 -9.770251e+00 -9.854317e+00 -9.837596e+00 -9.690561e+00 -9.536868e+00 -9.335750e+00 -9.182205e+00 -9.043114e+00 -8.945063e+00 -8.877594e+00 -8.817471e+00 -8.790395e+00 -8.753627e+00 
-8.675801e+00 -8.699109e+00 -8.699829e+00 -8.745789e+00 -8.763001e+00 -8.834617e+00 -8.885781e+00 -9.007429e+00 -9.120155e+00 -9.278406e+00 -9.413656e+00 -9.500190e+00 -9.534507e+00 -9.416348e+00 -9.263069e+00 -8.997814e+00 -8.932866e+00 -8.997814e+00 -9.263069e+00 -9.416348e+00 -9.534507e+00 -9.500190e+00 -9.413656e+00 -9.278406e+00 -9.120155e+00 -9.007429e+00 -8.885781e+00 -8.834617e+00 -8.763001e+00 -8.745789e+00 -8.699829e+00 -8.699109e+00 
