# vtk DataFile Version 2.0
Comment goes here
ASCII

DATASET STRUCTURED_POINTS
FIELD FieldData 1
TIME 1 1 double
0.42000000
DIMENSIONS    32   32   1

ORIGIN    0.000   0.000   0.000
SPACING   0.03125 0.03125   1.000

POINT_DATA   1024
SCALARS P double
LOOKUP_TABLE default

-1.587939e+01 -1.586201e+01 -1.565181e+01 -1.538956e+01 -1.497820e+01 -1.447176e+01 -1.389596e+01 -1.317907e+01 -1.249727e+01 -1.165358e+01 -1.096469e+01 -1.013410e+01 -9.542376e+00 -8.794470e+00 -8.207061e+00 -7.429664e+00 -7.032147e+00 -7.429664e+00 -8.207061e+00 -8.794470e+00 -9.542376e+00 -1.013410e+01 -1.096469e+01 -1.165358e+01 -1.249727e+01 -1.317907e+01 -1.389596e+01 -1.447176e+01 -1.497820e+01 -1.538956e+01 -1.565181e+01 -1.586201e+01 
-1.590063e+01 -1.587009e+01 -1.567377e+01 -1.539600e+01 -1.500214e+01 -1.447606e+01 -1.392339e+01 -1.318468e+01 -1.253412e+01 -1.167409e+01 -1.103431e+01 -1.020823e+01 -9.712743e+00 -9.009309e+00 -8.564617e+00 -7.822947e+00 -7.511870e+00 -7.822947e+00 -8.564617e+00 -9.009309e+00 -9.712743e+00 -1.020823e+01 -1.103431e+01 -1.167409e+01 -1.253412e+01 -1.318468e+01 -1.392339e+01 -1.447606e+01 -1.500214e+01 -1.539600e+01 -1.567377e+01 -1.587009e+01 
-1.611105e+01 -1.610287e+01 -1.588076e+01 -1.562060e+01 -1.519413e+01 -1.467513e+01 -1.407597e+01 -1.332538e+01 -1.260700e+01 -1.171008e+01 -1.098216e+01 -1.010674e+01 -9.517081e+00 -8.804444e+00 -8.339160e+00 -7.637437e+00 -7.304610e+00 -7.637437e+00 -8.339160e+00 -8.804444e+00 -9.517081e+00 -1.010674e+01 -1.098216e+01 -1.171008e+01 -1.260700e+01 -1.332538e+01 -1.407597e+01 -1.467513e+01 -1.519413e+01 -1.562060e+01 -1.588076e+01 -1.610287e+01 
-1.636185e+01 -1.635280e+01 -1.613005e+01 -1.585837e+01 -1.543220e+01 -1.487847e+01 -1.427464e+01 -1.345707e+01 -1.271716e+01 -1.172695e+01 -1.097410e+01 -1.003525e+01 -9.530748e+00 -8.903142e+00 -8.682224e+00 -8.102827e+00 -7.880907e+00 -8.102827e+00 -8.682224e+00 -8.903142e+00 -9.530748e+00 -1.003525e+01 -1.097410e+01 -1.172695e+01 -1.271716e+01 -1.345707e+01 -1.427464e+01 -1.487847e+01 -1.543220e+01 -1.585837e+01 -1.613005e+01 -1.635280e+01 
-1.680920e+01 -1.683309e+01 -1.657706e+01 -1.633173e+01 -1.586533e+01 -1.531375e+01 -1.464432e+01 -1.378082e+01 -1.292532e+01 -1.182319e+01 -1.091376e+01 -9.785680e+00 -9.006490e+00 -8.195948e+00 -7.750997e+00 -7.183187e+00 -6.810703e+00 -7.183187e+00 -7.750997e+00 -8.195948e+00 -9.006490e+00 -9.785680e+00 -1.091376e+01 -1.182319e+01 -1.292532e+01 -1.378082e+01 -1.464432e+01 -1.531375e+01 -1.586533e+01 -1.633173e+01 -1.657706e+01 -1.683309e+01 
-1.729060e+01 -1.733507e+01 -1.706332e+01 -1.682463e+01 -1.634810e+01 -1.575518e+01 -1.506049e+01 -1.406981e+01 -1.311176e+01 -1.176683e+01 -1.063234e+01 -9.257878e+00 -8.502786e+00 -7.736822e+00 -7.458772e+00 -6.985840e+00 -6.607457e+00 -6.985840e+00 -7.458772e+00 -7.736822e+00 -8.502786e+00 -9.257878e+00 -1.063234e+01 -1.176683e+01 -1.311176e+01 -1.406981e+01 -1.506049e+01 -1.575518e+01 -1.634810e+01 -1.682463e+01 -1.706332e+01 -1.733507e+01 
-1.797480e+01 -1.806892e+01 -1.776589e+01 -1.758247e+01 -1.707840e+01 -1.650744e+01 -1.575022e+01 -1.469087e+01 -1.355372e+01 -1.202943e+01 -1.076742e+01 -9.013488e+00 -7.637583e+00 -6.101810e+00 -5.235359e+00 -4.632298e+00 -4.180465e+00 -4.632298e+00 -5.235359e+00 -6.101810e+00 -7.637583e+00 -9.013488e+00 -1.076742e+01 -1.202943e+01 -1.355372e+01 -1.469087e+01 -1.575022e+01 -1.650744e+01 -1.707840e+01 -1.758247e+01 -1.776589e+01 -1.806892e+01 
-1.868063e+01 -1.883511e+01 -1.850468e+01 -1.838446e+01 -1.788507e+01 -1.731009e+01 -1.657047e+01 -1.534839e+01 -1.406892e+01 -1.206500e+01 -1.005130e+01 -7.626221e+00 -6.546712e+00 -5.583504e+00 -5.321199e+00 -4.608271e+00 -3.970519e+00 -4.608271e+00 -5.321199e+00 -5.583504e+00 -6.546712e+00 -7.626221e+00 -1.005130e+01 -1.206500e+01 -1.406892e+01 -1.534839e+01 -1.657047e+01 -1.731009e+01 -1.788507e+01 -1.838446e+01 -1.850468e+01 -1.883511e+01 
-1.957901e+01 -1.981132e+01 -1.947130e+01 -1.947974e+01 -1.901302e+01 -1.855204e+01 -1.785406e+01 -1.660391e+01 -1.501007e+01 -1.274695e+01 -1.124070e+01 -8.754743e+00 -5.713239e+00 -1.402717e+00 1.946225e+00 4.005549e+00 5.172835e+00 4.005549e+00 1.946225e+00 -1.402717e+00 -5.713239e+00 -8.754743e+00 -1.124070e+01 -1.274695e+01 -1.501007e+01 -1.660391e+01 -1.785406e+01 -1.855204e+01 -1.901302e+01 -1.947974e+01 -1.947130e+01 -1.981132e+01 
-2.047467e+01 -2.083569e+01 -2.046013e+01 -2.066575e+01 -2.025643e+01 -1.996734e+01 -1.959319e+01 -1.833295e+01 -1.688800e+01 -1.350649e+01 -6.019145e+00 6.294231e+00 1.779618e+01 2.701180e+01 3.304786e+01 3.583415e+01 3.606689e+01 3.583415e+01 3.304786e+01 2.701180e+01 1.779618e+01 6.294231e+00 -6.019145e+00 -1.350649e+01 -1.688800e+01 -1.833295e+01 -1.959319e+01 -1.996734e+01 -2.025643e+01 -2.066575e+01 -2.046013e+01 -2.083569e+01 
-2.150355e+01 -2.198699e+01 -2.164766e+01 -2.213256e+01 -2.190450e+01 -2.207651e+01 -2.234549e+01 -2.084003e+01 -1.437544e+01 3.277498e+00 2.304401e+01 3.678899e+01 4.467262e+01 4.744537e+01 4.836506e+01 4.867205e+01 4.790406e+01 4.867205e+01 4.836506e+01 4.744537e+01 4.467262e+01 3.678899e+01 2.304401e+01 3.277498e+00 -1.437544e+01 -2.084003e+01 -2.234549e+01 -2.207651e+01 -2.190450e+01 -2.213256e+01 -2.164766e+01 -2.198699e+01 
-2.246308e+01 -2.316934e+01 -2.276439e+01 -2.369307e+01 -2.351811e+01 -2.439478e+01 -2.535592e+01 -1.646417e+01 7.771287e+00 3.576207e+01 4.707489e+01 4.908529e+01 4.866918e+01 4.781611e+01 4.711081e+01 4.701426e+01 4.653685e+01 4.701426e+01 4.711081e+01 4.781611e+01 4.866918e+01 4.908529e+01 4.707489e+01 3.576207e+01 7.771287e+00 -1.646417e+01 -2.535592e+01 -2.439478e+01 -2.351811e+01 -2.369307e+01 -2.276439e+01 -2.316934e+01 
-2.333574e+01 -2.420712e+01 -2.383470e+01 -2.520117e+01 -2.514370e+01 -2.780256e+01 -2.426454e+01 3.416783e+00 3.740663e+01 5.010111e+01 4.988114e+01 4.895403e+01 4.837371e+01 4.848850e+01 4.843676e+01 4.878198e+01 4.847009e+01 4.878198e+01 4.843676e+01 4.848850e+01 4.837371e+01 4.895403e+01 4.988114e+01 5.010111e+01 3.740663e+01 3.416783e+00 -2.426454e+01 -2.780256e+01 -2.514370e+01 -2.520117e+01 -2.383470e+01 -2.420712e+01 
-2.400086e+01 -2.507856e+01 -2.450436e+01 -2.661140e+01 -2.551888e+01 -3.137714e+01 -9.842317e+00 3.120200e+01 5.090367e+01 5.066418e+01 5.003531e+01 4.977438e+01 4.920673e+01 4.888673e+01 4.832063e+01 4.830963e+01 4.796032e+01 4.830963e+01 4.832063e+01 4.888673e+01 4.920673e+01 4.977438e+01 5.003531e+01 5.066418e+01 5.090367e+01 3.120200e+01 -9.842317e+00 -3.137714e+01 -2.551888e+01 -2.661140e+01 -2.450436e+01 -2.507856e+01 
-2.421576e+01 -2.528188e+01 -2.474443e+01 -2.654405e+01 -2.564921e+01 -2.832184e+01 7.530967e+00 4.959388e+01 5.221444e+01 5.182455e+01 5.044757e+01 5.015579e+01 4.955586e+01 4.955168e+01 4.912728e+01 4.931030e+01 4.898987e+01 4.931030e+01 4.912728e+01 4.955168e+01 4.955586e+01 5.015579e+01 5.044757e+01 5.182455e+01 5.221444e+01 4.959388e+01 7.530967e+00 -2.832184e+01 -2.564921e+01 -2.654405e+01 -2.474443e+01 -2.528188e+01 
-2.455653e+01 -2.503317e+01 -2.519970e+01 -2.530358e+01 -2.639915e+01 -2.226016e+01 2.027906e+01 5.451546e+01 5.172738e+01 5.198035e+01 5.032739e+01 5.043316e+01 4.965759e+01 4.957209e+01 4.895272e+01 4.898711e+01 4.863784e+01 4.898711e+01 4.895272e+01 4.957209e+01 4.965759e+01 5.043316e+01 5.032739e+01 5.198035e+01 5.172738e+01 5.451546e+01 2.027906e+01 -2.226016e+01 -2.639915e+01 -2.530358e+01 -2.519970e+01 -2.503317e+01 
-2.428826e+01 -2.478305e+01 -2.485392e+01 -2.452957e+01 -2.568366e+01 -1.948499e+01 2.654176e+01 5.674000e+01 5.241771e+01 5.297162e+01 5.074582e+01 5.088855e+01 4.998350e+01 5.001484e+01 4.942383e+01 4.956650e+01 4.921208e+01 4.956650e+01 4.942383e+01 5.001484e+01 4.998350e+01 5.088855e+01 5.074582e+01 5.297162e+01 5.241771e+01 5.674000e+01 2.654176e+01 -1.948499e+01 -2.568366e+01 -2.452957e+01 -2.485392e+01 -2.478305e+01 
-2.455653e+01 -2.503317e+01 -2.519970e+01 -2.530358e+01 -2.639915e+01 -2.226016e+01 2.027906e+01 5.451546e+01 5.172738e+01 5.198035e+01 5.032739e+01 5.043316e+01 4.965759e+01 4.957209e+01 4.895272e+01 4.898711e+01 4.863784e+01 4.898711e+01 4.895272e+01 4.957209e+01 4.965759e+01 5.043316e+01 5.032739e+01 5.198035e+01 5.172738e+01 5.451546e+01 2.027906e+01 -2.226016e+01 -2.639915e+01 -2.530358e+01 -2.519970e+01 -2.503317e+01 
-2.421576e+01 -2.528188e+01 -2.474443e+01 -2.654405e+01 -2.564921e+01 -2.832184e+01 7.530967e+00 4.959388e+01 5.221444e+01 5.182455e+01 5.044757e+01 5.015579e+01 4.955586e+01 4.955168e+01 4.912728e+01 4.931030e+01 4.898987e+01 4.931030e+01 4.912728e+01 4.955168e+01 4.955586e+01 5.015579e+01 5.044757e+01 5.182455e+01 5.221444e+01 4.959388e+01 7.530967e+00 -2.832184e+01 -2.564921e+01 -2.654405e+01 -2.474443e+01 -2.528188e+01 
-2.400086e+01 -2.507856e+01 -2.450436e+01 -2.661140e+01 -2.551888e+01 -3.137714e+01 -9.842317e+00 3.120200e+01 5.090367e+01 5.066418e+01 5.003531e+01 4.977438e+01 4.920673e+01 4.888673e+01 4.832063e+01 4.830963e+01 4.796032e+01 4.830963e+01 4.832063e+01 4.888673e+01 4.920673e+01 4.977438e+01 5.003531e+01 5.066418e+01 5.090367e+01 3.120200e+01 -9.842317e+00 -3.137714e+01 -2.551888e+01 -2.661140e+01 -2.450436e+01 -2.507856e+01 
-2.333574e+01 -2.420712e+01 -2.383470e+01 -2.520117e+01 -2.514370e+01 -2.780256e+01 -2.426454e+01 3.416783e+00 3.740663e+01 5.010111e+01 4.988114e+01 4.895403e+01 4.837371e+01 4.848850e+01 4.843676e+01 4.878198e+01 4.847009e+01 4.878198e+01 4.843676e+01 4.848850e+01 4.837371e+01 4.895403e+01 4.988114e+01 5.010111e+01 3.740663e+01 3.416783e+00 -2.426454e+01 -2.780256e+01 -2.514370e+01 -2.520117e+01 -2.383470e+01 -2.420712e+01 
-2.246308e+01 -2.316934e+01 -2.276439e+01 -2.369307e+01 -2.351811e+01 -2.439478e+01 -2.535592e+01 -1.646417e+01 7.771287e+00 3.576207e+01 4.707489e+01 4.908529e+01 4.866918e+01 4.781611e+01 4.711081e+01 4.701426e+01 4.653685e+01 4.701426e+01 4.711081e+01 4.781611e+01 4.866918e+01 4.908529e+01 4.707489e+01 3.576207e+01 7.771287e+00 -1.646417e+01 -2.535592e+01 -2.439478e+01 -2.351811e+01 -2.369307e+01 -2.276439e+01 -2.316934e+01 
-2.150355e+01 -2.198699e+01 -2.164766e+01 -2.213256e+01 -2.190450e+01 -2.207651e+01 -2.234549e+01 -2.084003e+01 -1.437544e+01 3.277498e+00 2.304401e+01 3.678899e+01 4.467262e+01 4.744537e+01 4.836506e+01 4.867205e+01 4.790406e+01 4.867205e+01 4.836506e+01 4.744537e+01 4.467262e+01 3.678899e+01 2.304401e+01 3.277498e+00 -1.437544e+01 -2.084003e+01 -2.234549e+01 -2.207651e+01 -2.190450e+01 -2.213256e+01 -2.164766e+01 -2.198699e+01 
-2.047467e+01 -2.083569e+01 -2.046013e+01 -2.066575e+01 -2.025643e+01 -1.996734e+01 -1.959319e+01 -1.833295e+01 -1.688800e+01 -1.350649e+01 -6.019145e+00 6.294231e+00 1.779618e+01 2.701180e+01 3.304786e+01 3.583415e+01 3.606689e+01 3.583415e+01 3.304786e+01 2.701180e+01 1.779618e+01 6.294231e+00 -6.019145e+00 -1.350649e+01 -1.688800e+01 -1.833295e+01 -1.959319e+01 -1.996734e+01 -2.025643e+01 -2.066575e+01 -2.046013e+01 -2.083569e+01 
-1.957901e+01 -1.981132e+01 -1.947130e+01 -1.947974e+01 -1.901302e+01 -1.855204e+01 -1.785406e+01 -1.660391e+01 -1.501007e+01 -1.274695e+01 -1.124070e+01 -8.754743e+00 -5.713239e+00 -1.402717e+00 1.946225e+00 4.005549e+00 5.172835e+00 4.005549e+00 1.946225e+00 -1.402717e+00 -5.713239e+00 -8.754743e+00 -1.124070e+01 -1.274695e+01 -1.501007e+01 -1.660391e+01 -1.785406e+01 -1.855204e+01 -1.901302e+01 -1.947974e+01 -1.947130e+01 -1.981132e+01 
-1.868063e+01 -1.883511e+01 -1.850468e+01 -1.838446e+01 -1.788507e+01 -1.731009e+01 -1.657047e+01 -1.534839e+01 -1.406892e+01 -1.206500e+01 -1.005130e+01 -7.626221e+00 -6.546712e+00 -5.583504e+00 -5.321199e+00 -4.608271e+00 -3.970519e+00 -4.608271e+00 -5.321199e+00 -5.583504e+00 -6.546712e+00 -7.626221e+00 -1.005130e+01 -1.206500e+01 -1.406892e+01 -1.534839e+01 -1.657047e+01 -1.731009e+01 -1.788507e+01 -1.838446e+01 -1.850468e+01 -1.883511e+01 
-1.797480e+01 -1.806892e+01 -1.776589e+01 -1.758247e+01 -1.707840e+01 -1.650744e+01 -1.575022e+01 -1.469087e+01 -1.355372e+01 -1.202943e+01 -1.076742e+01 -9.013488e+00 -7.637583e+00 -6.101810e+00 -5.235359e+00 -4.632298e+00 -4.180465e+00 -4.632298e+00 -5.235359e+00 -6.101810e+00 -7.637583e+00 -9.013488e+00 -1.076742e+01 -1.202943e+01 -1.355372e+01 -1.469087e+01 -1.575022e+01 -1.650744e+01 -1.707840e+01 -1.758247e+01 -1.776589e+01 -1.806892e+01 
-1.729060e+01 -1.733507e+01 -1.706332e+01 -1.682463e+01 -1.634810e+01 -1.575518e+01 -1.506049e+01 -1.406981e+01 -1.311176e+01 -1.176683e+01 -1.063234e+01 -9.257878e+00 -8.502786e+00 -7.736822e+00 -7.458772e+00 -6.985840e+00 -6.607457e+00 -6.985840e+00 -7.458772e+00 -7.736822e+00 -8.502786e+00 -9.257878e+00 -1.063234e+01 -1.176683e+01 -1.311176e+01 -1.406981e+01 -1.506049e+01 -1.575518e+01 -1.634810e+01 -1.682463e+01 -1.706332e+01 -1.733507e+01 
-1.680920e+01 -1.683309e+01 -1.657706e+01 -1.633173e+01 -1.586533e+01 -1.531375e+01 -1.464432e+01 -1.378082e+01 -1.292532e+01 -1.182319e+01 -1.091376e+01 -9.785680e+00 -9.006490e+00 -8.195948e+00 -7.750997e+00 -7.183187e+00 -6.810703e+00 -7.183187e+00 -7.750997e+00 -8.195948e+00 -9.006490e+00 -9.785680e+00 -1.091376e+01 -1.182319e+01 -1.292532e+01 -1.378082e+01 -1.464432e+01 -1.531375e+01 -1.586533e+01 -1.633173e+01 -1.657706e+01 -1.683309e+01 
-1.636185e+01 -1.635280e+01 -1.613005e+01 -1.585837e+01 -1.543220e+01 -1.487847e+01 -1.427464e+01 -1.345707e+01 -1.271716e+01 -1.172695e+01 -1.097410e+01 -1.003525e+01 -9.530748e+00 -8.903142e+00 -8.682224e+00 -8.102827e+00 -7.880907e+00 -8.102827e+00 -8.682224e+00 -8.903142e+00 -9.530748e+00 -1.003525e+01 -1.097410e+01 -1.172695e+01 -1.271716e+01 -1.345707e+01 -1.427464e+01 -1.487847e+01 -1.543220e+01 -1.585837e+01 -1.613005e+01 -1.635280e+01 
-1.611105e+01 -1.610287e+01 -1.588076e+01 -1.562060e+01 -1.519413e+01 -1.467513e+01 -1.407597e+01 -1.332538e+01 -1.260700e+01 -1.171008e+01 -1.098216e+01 -1.010674e+01 -9.517081e+00 -8.804444e+00 -8.339160e+00 -7.637437e+00 -7.304610e+00 -7.637437e+00 -8.339160e+00 -8.804444e+00 -9.517081e+00 -1.010674e+01 -1.098216e+01 -1.171008e+01 -1.260700e+01 -1.332538e+01 -1.407597e+01 -1.467513e+01 -1.519413e+01 -1.562060e+01 -1.588076e+01 -1.610287e+01 
-1.590063e+01 -1.587009e+01 -1.567377e+01 -1.539600e+01 -1.500214e+01 -1.447606e+01 -1.392339e+01 -1.318468e+01 -1.253412e+01 -1.167409e+01 -1.103431e+01 -1.020823e+01 -9.712743e+00 -9.009309e+00 -8.564617e+00 -7.822947e+00 -7.511870e+00 -7.822947e+00 -8.564617e+00 -9.009309e+00 -9.712743e+00 -1.020823e+01 -1.103431e+01 -1.167409e+01 -1.253412e+01 -1.318468e+01 -1.392339e+01 -1.447606e+01 -1.500214e+01 -1.539600e+01 -1.567377e+01 -1.587009e+01 
