# vtk DataFile Version 2.0
Comment goes here
ASCII

DATASET STRUCTURED_POINTS
FIELD FieldData 1
TIME 1 1 double
0.06000000
DIMENSIONS    32   32   1

ORIGIN    0.000   0.000   0.000
SPACING   0.03125 0.03125   1.000

POINT_DATA   1024
SCALARS P double
LOOKUP_TABLE default

-2.018797e+01 -2.005597e+01 -1.985336e+01 -1.937738e+01 -1.878857e+01 -1.790605e+01 -1.685744e+01 -1.551980e+01 -1.401532e+01 -1.232256e+01 -1.057086e+01 -8.840038e+00 -7.239445e+00 -5.916189e+00 -4.892629e+00 -4.415200e+00 -4.143711e+00 -4.415200e+00 -4.892629e+00 -5.916189e+00 -7.239445e+00 -8.840038e+00 -1.057086e+01 -1.232256e+01 -1.401532e+01 -1.551980e+01 -1.685744e+01 -1.790605e+01 -1.878857e+01 -1.937738e+01 -1.985336e+01 -2.005597e+01 
-2.032490e+01 -2.020565e+01 -1.999497e+01 -1.952947e+01 -1.893386e+01 -1.804039e+01 -1.697258e+01 -1.557479e+01 -1.402253e+01 -1.221515e+01 -1.040090e+01 -8.553178e+00 -6.931460e+00 -5.487031e+00 -4.482320e+00 -3.925382e+00 -3.690034e+00 -3.925382e+00 -4.482320e+00 -5.487031e+00 -6.931460e+00 -8.553178e+00 -1.040090e+01 -1.221515e+01 -1.402253e+01 -1.557479e+01 -1.697258e+01 -1.804039e+01 -1.893386e+01 -1.952947e+01 -1.999497e+01 -2.020565e+01 
-2.067980e+01 -2.054956e+01 -2.036282e+01 -1.990196e+01 -1.932680e+01 -1.844071e+01 -1.736063e+01 -1.594787e+01 -1.432460e+01 -1.247693e+01 -1.054891e+01 -8.639684e+00 -6.872791e+00 -5.391362e+00 -4.379417e+00 -3.831451e+00 -3.515937e+00 -3.831451e+00 -4.379417e+00 -5.391362e+00 -6.872791e+00 -8.639684e+00 -1.054891e+01 -1.247693e+01 -1.432460e+01 -1.594787e+01 -1.736063e+01 -1.844071e+01 -1.932680e+01 -1.990196e+01 -2.036282e+01 -2.054956e+01 
-2.130601e+01 -2.119773e+01 -2.102329e+01 -2.060917e+01 -2.005683e+01 -1.918652e+01 -1.807486e+01 -1.653421e+01 -1.473112e+01 -1.256053e+01 -1.034118e+01 -8.134420e+00 -6.205564e+00 -4.528047e+00 -3.575430e+00 -2.749715e+00 -2.419067e+00 -2.749715e+00 -3.575430e+00 -4.528047e+00 -6.205564e+00 -8.134420e+00 -1.034118e+01 -1.256053e+01 -1.473112e+01 -1.653421e+01 -1.807486e+01 -1.918652e+01 -2.005683e+01 -2.060917e+01 -2.102329e+01 -2.119773e+01 
-2.214795e+01 -2.202913e+01 -2.191478e+01 -2.153915e+01 -2.105674e+01 -2.022187e+01 -1.909900e+01 -1.747703e+01 -1.547160e+01 -1.311158e+01 -1.059713e+01 -8.119355e+00 -5.886652e+00 -4.123693e+00 -2.757001e+00 -1.714960e+00 -9.797150e-01 -1.714960e+00 -2.757001e+00 -4.123693e+00 -5.886652e+00 -8.119355e+00 -1.059713e+01 -1.311158e+01 -1.547160e+01 -1.747703e+01 -1.909900e+01 -2.022187e+01 -2.105674e+01 -2.153915e+01 -2.191478e+01 -2.202913e+01 
-2.322857e+01 -2.315303e+01 -2.310207e+01 -2.287674e+01 -2.252525e+01 -2.186185e+01 -2.080564e+01 -1.905416e+01 -1.670792e+01 -1.358910e+01 -1.033659e+01 -7.363689e+00 -4.781534e+00 -2.688424e+00 -1.067020e+00 4.083608e-01 1.138168e+00 4.083608e-01 -1.067020e+00 -2.688424e+00 -4.781534e+00 -7.363689e+00 -1.033659e+01 -1.358910e+01 -1.670792e+01 -1.905416e+01 -2.080564e+01 -2.186185e+01 -2.252525e+01 -2.287674e+01 -2.310207e+01 -2.315303e+01 
-2.450208e+01 -2.442139e+01 -2.451906e+01 -2.443814e+01 -2.432236e+01 -2.386623e+01 -2.292411e+01 -2.103648e+01 -1.826230e+01 -1.479939e+01 -1.098101e+01 -7.310923e+00 -4.225220e+00 -1.869083e+00 2.212519e-01 2.107580e+00 3.115055e+00 2.107580e+00 2.212519e-01 -1.869083e+00 -4.225220e+00 -7.310923e+00 -1.098101e+01 -1.479939e+01 -1.826230e+01 -2.103648e+01 -2.292411e+01 -2.386623e+01 -2.432236e+01 -2.443814e+01 -2.451906e+01 -2.442139e+01 
-2.587106e+01 -2.586147e+01 -2.613268e+01 -2.642427e+01 -2.672248e+01 -2.697757e+01 -2.655992e+01 -2.493887e+01 -2.160620e+01 -1.596733e+01 -1.009606e+01 -5.565969e+00 -1.986716e+00 3.656905e-01 2.547159e+00 5.220576e+00 6.593900e+00 5.220576e+00 2.547159e+00 3.656905e-01 -1.986716e+00 -5.565969e+00 -1.009606e+01 -1.596733e+01 -2.160620e+01 -2.493887e+01 -2.655992e+01 -2.697757e+01 -2.672248e+01 -2.642427e+01 -2.613268e+01 -2.586147e+01 
-2.732494e+01 -2.732068e+01 -2.791857e+01 -2.860269e+01 -2.960305e+01 -3.073421e+01 -3.101798e+01 -2.888378e+01 -2.422300e+01 -1.782828e+01 -1.055066e+01 -4.601569e+00 -5.295839e-01 1.672027e+00 4.374436e+00 9.054840e+00 1.182938e+01 9.054840e+00 4.374436e+00 1.672027e+00 -5.295839e-01 -4.601569e+00 -1.055066e+01 -1.782828e+01 -2.422300e+01 -2.888378e+01 -3.101798e+01 -3.073421e+01 -2.960305e+01 -2.860269e+01 -2.791857e+01 -2.732068e+01 
-2.850150e+01 -2.855602e+01 -2.949505e+01 -3.083206e+01 -3.280500e+01 -3.607090e+01 -3.837643e+01 -3.842569e+01 -3.332462e+01 -1.945992e+01 -3.403552e+00 7.927648e+00 1.204913e+01 9.796217e+00 1.015393e+01 1.726152e+01 2.201435e+01 1.726152e+01 1.015393e+01 9.796217e+00 1.204913e+01 7.927648e+00 -3.403552e+00 -1.945992e+01 -3.332462e+01 -3.842569e+01 -3.837643e+01 -3.607090e+01 -3.280500e+01 -3.083206e+01 -2.949505e+01 -2.855602e+01 
-2.941774e+01 -2.945840e+01 -3.093272e+01 -3.297431e+01 -3.675584e+01 -4.347466e+01 -4.800790e+01 -4.045561e+01 -1.855351e+01 6.617873e+00 2.636567e+01 3.676117e+01 3.594171e+01 2.974803e+01 2.680944e+01 3.021759e+01 3.300923e+01 3.021759e+01 2.680944e+01 2.974803e+01 3.594171e+01 3.676117e+01 2.636567e+01 6.617873e+00 -1.855351e+01 -4.045561e+01 -4.800790e+01 -4.347466e+01 -3.675584e+01 -3.297431e+01 -3.093272e+01 -2.945840e+01 
-2.948759e+01 -2.941069e+01 -3.130029e+01 -3.371249e+01 -3.879158e+01 -4.768715e+01 -3.867873e+01 -2.268917e+00 3.084274e+01 4.278943e+01 4.703316e+01 4.785314e+01 4.420132e+01 3.948511e+01 3.648759e+01 3.631633e+01 3.666927e+01 3.631633e+01 3.648759e+01 3.948511e+01 4.420132e+01 4.785314e+01 4.703316e+01 4.278943e+01 3.084274e+01 -2.268917e+00 -3.867873e+01 -4.768715e+01 -3.879158e+01 -3.371249e+01 -3.130029e+01 -2.941069e+01 
-2.868118e+01 -2.840660e+01 -3.053641e+01 -3.228157e+01 -3.877758e+01 -4.142246e+01 2.086912e+00 5.188872e+01 6.073582e+01 5.553319e+01 5.119293e+01 4.980765e+01 4.654813e+01 4.308959e+01 4.113259e+01 4.096400e+01 4.114410e+01 4.096400e+01 4.113259e+01 4.308959e+01 4.654813e+01 4.980765e+01 5.119293e+01 5.553319e+01 6.073582e+01 5.188872e+01 2.086912e+00 -4.142246e+01 -3.877758e+01 -3.228157e+01 -3.053641e+01 -2.840660e+01 
-2.704127e+01 -2.628746e+01 -2.866272e+01 -2.872310e+01 -3.672479e+01 -1.809806e+01 4.918489e+01 7.549126e+01 6.532809e+01 6.005403e+01 5.446438e+01 5.273555e+01 5.037663e+01 4.777433e+01 4.592169e+01 4.508810e+01 4.483886e+01 4.508810e+01 4.592169e+01 4.777433e+01 5.037663e+01 5.273555e+01 5.446438e+01 6.005403e+01 6.532809e+01 7.549126e+01 4.918489e+01 -1.809806e+01 -3.672479e+01 -2.872310e+01 -2.866272e+01 -2.628746e+01 
-2.479539e+01 -2.423088e+01 -2.559692e+01 -2.545140e+01 -3.017960e+01 1.174565e+01 7.760858e+01 8.086826e+01 7.034330e+01 6.444272e+01 5.708489e+01 5.467549e+01 5.188986e+01 4.969931e+01 4.778327e+01 4.709097e+01 4.674484e+01 4.709097e+01 4.778327e+01 4.969931e+01 5.188986e+01 5.467549e+01 5.708489e+01 6.444272e+01 7.034330e+01 8.086826e+01 7.760858e+01 1.174565e+01 -3.017960e+01 -2.545140e+01 -2.559692e+01 -2.423088e+01 
-2.285412e+01 -2.247720e+01 -2.272538e+01 -2.311507e+01 -2.238187e+01 3.328341e+01 9.085621e+01 8.298078e+01 7.413331e+01 6.767784e+01 6.006173e+01 5.717281e+01 5.382752e+01 5.176405e+01 4.980726e+01 4.903241e+01 4.861006e+01 4.903241e+01 4.980726e+01 5.176405e+01 5.382752e+01 5.717281e+01 6.006173e+01 6.767784e+01 7.413331e+01 8.298078e+01 9.085621e+01 3.328341e+01 -2.238187e+01 -2.311507e+01 -2.272538e+01 -2.247720e+01 
-2.210681e+01 -2.197168e+01 -2.161011e+01 -2.242851e+01 -1.916705e+01 4.068430e+01 9.444202e+01 8.348030e+01 7.575787e+01 6.901015e+01 6.100695e+01 5.768518e+01 5.378875e+01 5.170757e+01 4.967623e+01 4.898658e+01 4.851855e+01 4.898658e+01 4.967623e+01 5.170757e+01 5.378875e+01 5.768518e+01 6.100695e+01 6.901015e+01 7.575787e+01 8.348030e+01 9.444202e+01 4.068430e+01 -1.916705e+01 -2.242851e+01 -2.161011e+01 -2.197168e+01 
-2.285412e+01 -2.247720e+01 -2.272538e+01 -2.311507e+01 -2.238187e+01 3.328341e+01 9.085621e+01 8.298078e+01 7.413331e+01 6.767784e+01 6.006173e+01 5.717281e+01 5.382752e+01 5.176405e+01 4.980726e+01 4.903241e+01 4.861006e+01 4.903241e+01 4.980726e+01 5.176405e+01 5.382752e+01 5.717281e+01 6.006173e+01 6.767784e+01 7.413331e+01 8.298078e+01 9.085621e+01 3.328341e+01 -2.238187e+01 -2.311507e+01 -2.272538e+01 -2.247720e+01 
-2.479539e+01 -2.423088e+01 -2.559692e+01 -2.545140e+01 -3.017960e+01 1.174565e+01 7.760858e+01 8.086826e+01 7.034330e+01 6.444272e+01 5.708489e+01 5.467549e+01 5.188986e+01 4.969931e+01 4.778327e+01 4.709097e+01 4.674484e+01 4.709097e+01 4.778327e+01 4.969931e+01 5.188986e+01 5.467549e+01 5.708489e+01 6.444272e+01 7.034330e+01 8.086826e+01 7.760858e+01 1.174565e+01 -3.017960e+01 -2.545140e+01 -2.559692e+01 -2.423088e+01 
-2.704127e+01 -2.628746e+01 -2.866272e+01 -2.872310e+01 -3.672479e+01 -1.809806e+01 4.918489e+01 7.549126e+01 6.532809e+01 6.005403e+01 5.446438e+01 5.273555e+01 5.037663e+01 4.777433e+01 4.592169e+01 4.508810e+01 4.483886e+01 4.508810e+01 4.592169e+01 4.777433e+01 5.037663e+01 5.273555e+01 5.446438e+01 6.005403e+01 6.532809e+01 7.549126e+01 4.918489e+01 -1.809806e+01 -3.672479e+01 -2.872310e+01 -2.866272e+01 -2.628746e+01 
-2.868118e+01 -2.840660e+01 -3.053641e+01 -3.228157e+01 -3.877758e+01 -4.142246e+01 2.086912e+00 5.188872e+01 6.073582e+01 5.553319e+01 5.119293e+01 4.980765e+01 4.654813e+01 4.308959e+01 4.113259e+01 4.096400e+01 4.114410e+01 4.096400e+01 4.113259e+01 4.308959e+01 4.654813e+01 4.980765e+01 5.119293e+01 5.553319e+01 6.073582e+01 5.188872e+01 2.086912e+00 -4.142246e+01 -3.877758e+01 -3.228157e+01 -3.053641e+01 -2.840660e+01 
-2.948759e+01 -2.941069e+01 -3.130029e+01 -3.371249e+01 -3.879158e+01 -4.768715e+01 -3.867873e+01 -2.268917e+00 3.084274e+01 4.278943e+01 4.703316e+01 4.785314e+01 4.420132e+01 3.948511e+01 3.648759e+01 3.631633e+01 3.666927e+01 3.631633e+01 3.648759e+01 3.948511e+01 4.420132e+01 4.785314e+01 4.703316e+01 4.278943e+01 3.084274e+01 -2.268917e+00 -3.867873e+01 -4.768715e+01 -3.879158e+01 -3.371249e+01 -3.130029e+01 -2.941069e+01 
-2.941774e+01 -2.945840e+01 -3.093272e+01 -3.297431e+01 -3.675584e+01 -4.347466e+01 -4.800790e+01 -4.045561e+01 -1.855351e+01 6.617873e+00 2.636567e+01 3.676117e+01 3.594171e+01 2.974803e+01 2.680944e+01 3.021759e+01 3.300923e+01 3.021759e+01 2.680944e+01 2.974803e+01 3.594171e+01 3.676117e+01 2.636567e+01 6.617873e+00 -1.855351e+01 -4.045561e+01 -4.800790e+01 -4.347466e+01 -3.675584e+01 -3.297431e+01 -3.093272e+01 -2.945840e+01 
-2.850150e+01 -2.855602e+01 -2.949505e+01 -3.083206e+01 -3.280500e+01 -3.607090e+01 -3.837643e+01 -3.842569e+01 -3.332462e+01 -1.945992e+01 -3.403552e+00 7.927648e+00 1.204913e+01 9.796217e+00 1.015393e+01 1.726152e+01 2.201435e+01 1.726152e+01 1.015393e+01 9.796217e+00 1.204913e+01 7.927648e+00 -3.403552e+00 -1.945992e+01 -3.332462e+01 -3.842569e+01 -3.837643e+01 -3.607090e+01 -3.280500e+01 -3.083206e+01 -2.949505e+01 -2.855602e+01 
-2.732494e+01 -2.732068e+01 -2.791857e+01 -2.860269e+01 -2.960305e+01 -3.073421e+01 -3.101798e+01 -2.888378e+01 -2.422300e+01 -1.782828e+01 -1.055066e+01 -4.601569e+00 -5.295839e-01 1.672027e+00 4.374436e+00 9.054840e+00 1.182938e+01 9.054840e+00 4.374436e+00 1.672027e+00 -5.295839e-01 -4.601569e+00 -1.055066e+01 -1.782828e+01 -2.422300e+01 -2.888378e+01 -3.101798e+01 -3.073421e+01 -2.960305e+01 -2.860269e+01 -2.791857e+01 -2.732068e+01 
-2.587106e+01 -2.586147e+01 -2.613268e+01 -2.642427e+01 -2.672248e+01 -2.697757e+01 -2.655992e+01 -2.493887e+01 -2.160620e+01 -1.596733e+01 -1.009606e+01 -5.565969e+00 -1.986716e+00 3.656905e-01 2.547159e+00 5.220576e+00 6.593900e+00 5.220576e+00 2.547159e+00 3.656905e-01 -1.986716e+00 -5.565969e+00 -1.009606e+01 -1.596733e+01 -2.160620e+01 -2.493887e+01 -2.655992e+01 -2.697757e+01 -2.672248e+01 -2.642427e+01 -2.613268e+01 -2.586147e+01 
-2.450208e+01 -2.442139e+01 -2.451906e+01 -2.443814e+01 -2.432236e+01 -2.386623e+01 -2.292411e+01 -2.103648e+01 -1.826230e+01 -1.479939e+01 -1.098101e+01 -7.310923e+00 -4.225220e+00 -1.869083e+00 2.212519e-01 2.107580e+00 3.115055e+00 2.107580e+00 2.212519e-01 -1.869083e+00 -4.225220e+00 -7.310923e+00 -1.098101e+01 -1.479939e+01 -1.826230e+01 -2.103648e+01 -2.292411e+01 -2.386623e+01 -2.432236e+01 -2.443814e+01 -2.451906e+01 -2.442139e+01 
-2.322857e+01 -2.315303e+01 -2.310207e+01 -2.287674e+01 -2.252525e+01 -2.186185e+01 -2.080564e+01 -1.905416e+01 -1.670792e+01 -1.358910e+01 -1.033659e+01 -7.363689e+00 -4.781534e+00 -2.688424e+00 -1.067020e+00 4.083608e-01 1.138168e+00 4.083608e-01 -1.067020e+00 -2.688424e+00 -4.781534e+00 -7.363689e+00 -1.033659e+01 -1.358910e+01 -1.670792e+01 -1.905416e+01 -2.080564e+01 -2.186185e+01 -2.252525e+01 -2.287674e+01 -2.310207e+01 -2.315303e+01 
-2.214795e+01 -2.202913e+01 -2.191478e+01 -2.153915e+01 -2.105674e+01 -2.022187e+01 -1.909900e+01 -1.747703e+01 -1.547160e+01 -1.311158e+01 -1.059713e+01 -8.119355e+00 -5.886652e+00 -4.123693e+00 -2.757001e+00 -1.714960e+00 -9.797150e-01 -1.714960e+00 -2.757001e+00 -4.123693e+00 -5.886652e+00 -8.119355e+00 -1.059713e+01 -1.311158e+01 -1.547160e+01 -1.747703e+01 -1.909900e+01 -2.022187e+01 -2.105674e+01 -2.153915e+01 -2.191478e+01 -2.202913e+01 
-2.130601e+01 -2.119773e+01 -2.102329e+01 -2.060917e+01 -2.005683e+01 -1.918652e+01 -1.807486e+01 -1.653421e+01 -1.473112e+01 -1.256053e+01 -1.034118e+01 -8.134420e+00 -6.205564e+00 -4.528047e+00 -3.575430e+00 -2.749715e+00 -2.419067e+00 -2.749715e+00 -3.575430e+00 -4.528047e+00 -6.205564e+00 -8.134420e+00 -1.034118e+01 -1.256053e+01 -1.473112e+01 -1.653421e+01 -1.807486e+01 -1.918652e+01 -2.005683e+01 -2.060917e+01 -2.102329e+01 -2.119773e+01 
-2.067980e+01 -2.054956e+01 -2.036282e+01 -1.990196e+01 -1.932680e+01 -1.844071e+01 -1.736063e+01 -1.594787e+01 -1.432460e+01 -1.247693e+01 -1.054891e+01 -8.639684e+00 -6.872791e+00 -5.391362e+00 -4.379417e+00 -3.831451e+00 -3.515937e+00 -3.831451e+00 -4.379417e+00 -5.391362e+00 -6.872791e+00 -8.639684e+00 -1.054891e+01 -1.247693e+01 -1.432460e+01 -1.594787e+01 -1.736063e+01 -1.844071e+01 -1.932680e+01 -1.990196e+01 -2.036282e+01 -2.054956e+01 
-2.032490e+01 -2.020565e+01 -1.999497e+01 -1.952947e+01 -1.893386e+01 -1.804039e+01 -1.697258e+01 -1.557479e+01 -1.402253e+01 -1.221515e+01 -1.040090e+01 -8.553178e+00 -6.931460e+00 -5.487031e+00 -4.482320e+00 -3.925382e+00 -3.690034e+00 -3.925382e+00 -4.482320e+00 -5.487031e+00 -6.931460e+00 -8.553178e+00 -1.040090e+01 -1.221515e+01 -1.402253e+01 -1.557479e+01 -1.697258e+01 -1.804039e+01 -1.893386e+01 -1.952947e+01 -1.999497e+01 -2.020565e+01 
