# vtk DataFile Version 2.0
Comment goes here
ASCII

DATASET STRUCTURED_POINTS
FIELD FieldData 1
TIME 1 1 double
0.10000000
DIMENSIONS    32   32   1

ORIGIN    0.000   0.000   0.000
SPACING   0.03125 0.03125   1.000

POINT_DATA   1024
SCALARS P double
LOOKUP_TABLE default

-1.715643e+01 -1.681683e+01 -1.677518e+01 -1.608299e+01 -1.565147e+01 -1.465533e+01 -1.386582e+01 -1.265207e+01 -1.160629e+01 -1.032264e+01 -9.189424e+00 -8.025220e+00 -6.996116e+00 -6.145855e+00 -5.437390e+00 -5.052939e+00 -4.822134e+00 -5.052939e+00 -5.437390e+00 -6.145855e+00 -6.996116e+00 -8.025220e+00 -9.189424e+00 -1.032264e+01 -1.160629e+01 -1.265207e+01 -1.386582e+01 -1.465533e+01 -1.565147e+01 -1.608299e+01 -1.677518e+01 -1.681683e+01 
-1.729859e+01 -1.696535e+01 -1.690962e+01 -1.622204e+01 -1.575871e+01 -1.476570e+01 -1.391660e+01 -1.270042e+01 -1.156323e+01 -1.027153e+01 -9.023805e+00 -7.861352e+00 -6.732649e+00 -5.922636e+00 -5.151301e+00 -4.825027e+00 -4.539332e+00 -4.825027e+00 -5.151301e+00 -5.922636e+00 -6.732649e+00 -7.861352e+00 -9.023805e+00 -1.027153e+01 -1.156323e+01 -1.270042e+01 -1.391660e+01 -1.476570e+01 -1.575871e+01 -1.622204e+01 -1.690962e+01 -1.696535e+01 
-1.756911e+01 -1.721453e+01 -1.717411e+01 -1.645323e+01 -1.599992e+01 -1.495445e+01 -1.410884e+01 -1.281796e+01 -1.168701e+01 -1.030976e+01 -9.082724e+00 -7.823408e+00 -6.687678e+00 -5.761479e+00 -4.987289e+00 -4.574206e+00 -4.335527e+00 -4.574206e+00 -4.987289e+00 -5.761479e+00 -6.687678e+00 -7.823408e+00 -9.082724e+00 -1.030976e+01 -1.168701e+01 -1.281796e+01 -1.410884e+01 -1.495445e+01 -1.599992e+01 -1.645323e+01 -1.717411e+01 -1.721453e+01 
-1.814210e+01 -1.777299e+01 -1.772983e+01 -1.698451e+01 -1.648723e+01 -1.539865e+01 -1.443982e+01 -1.306814e+01 -1.175091e+01 -1.025678e+01 -8.783956e+00 -7.402693e+00 -6.037131e+00 -5.095494e+00 -4.236711e+00 -3.907081e+00 -3.622364e+00 -3.907081e+00 -4.236711e+00 -5.095494e+00 -6.037131e+00 -7.402693e+00 -8.783956e+00 -1.025678e+01 -1.175091e+01 -1.306814e+01 -1.443982e+01 -1.539865e+01 -1.648723e+01 -1.698451e+01 -1.772983e+01 -1.777299e+01 
-1.884291e+01 -1.844419e+01 -1.841756e+01 -1.761914e+01 -1.711322e+01 -1.592766e+01 -1.490863e+01 -1.337405e+01 -1.196606e+01 -1.029167e+01 -8.784618e+00 -7.214514e+00 -5.696449e+00 -4.507896e+00 -3.499004e+00 -3.067709e+00 -2.801876e+00 -3.067709e+00 -3.499004e+00 -4.507896e+00 -5.696449e+00 -7.214514e+00 -8.784618e+00 -1.029167e+01 -1.196606e+01 -1.337405e+01 -1.490863e+01 -1.592766e+01 -1.711322e+01 -1.761914e+01 -1.841756e+01 -1.844419e+01 
-1.989221e+01 -1.945193e+01 -1.945938e+01 -1.861888e+01 -1.808742e+01 -1.683198e+01 -1.564915e+01 -1.395044e+01 -1.224510e+01 -1.031476e+01 -8.353216e+00 -6.424170e+00 -4.416311e+00 -3.157802e+00 -2.078358e+00 -1.817732e+00 -1.524894e+00 -1.817732e+00 -2.078358e+00 -3.157802e+00 -4.416311e+00 -6.424170e+00 -8.353216e+00 -1.031476e+01 -1.224510e+01 -1.395044e+01 -1.564915e+01 -1.683198e+01 -1.808742e+01 -1.861888e+01 -1.945938e+01 -1.945193e+01 
-2.106354e+01 -2.059821e+01 -2.063844e+01 -1.975200e+01 -1.922763e+01 -1.786002e+01 -1.654251e+01 -1.455180e+01 -1.257751e+01 -1.035239e+01 -8.447724e+00 -6.254323e+00 -3.835380e+00 -2.074612e+00 -5.923164e-01 -1.202760e-01 1.423980e-01 -1.202760e-01 -5.923164e-01 -2.074612e+00 -3.835380e+00 -6.254323e+00 -8.447724e+00 -1.035239e+01 -1.257751e+01 -1.455180e+01 -1.654251e+01 -1.786002e+01 -1.922763e+01 -1.975200e+01 -2.063844e+01 -2.059821e+01 
-2.262076e+01 -2.208394e+01 -2.225369e+01 -2.134822e+01 -2.091555e+01 -1.953575e+01 -1.802387e+01 -1.578887e+01 -1.343197e+01 -1.080728e+01 -8.063535e+00 -4.859633e+00 -1.305821e+00 3.546118e-01 1.416682e+00 1.371625e+00 1.508269e+00 1.371625e+00 1.416682e+00 3.546118e-01 -1.305821e+00 -4.859633e+00 -8.063535e+00 -1.080728e+01 -1.343197e+01 -1.578887e+01 -1.802387e+01 -1.953575e+01 -2.091555e+01 -2.134822e+01 -2.225369e+01 -2.208394e+01 
-2.426310e+01 -2.373998e+01 -2.400528e+01 -2.313496e+01 -2.288800e+01 -2.155037e+01 -1.991398e+01 -1.723998e+01 -1.407006e+01 -1.064457e+01 -8.518950e+00 -5.558604e+00 -1.282842e+00 1.722646e+00 4.090637e+00 4.412417e+00 4.373090e+00 4.412417e+00 4.090637e+00 1.722646e+00 -1.282842e+00 -5.558604e+00 -8.518950e+00 -1.064457e+01 -1.407006e+01 -1.723998e+01 -1.991398e+01 -2.155037e+01 -2.288800e+01 -2.313496e+01 -2.400528e+01 -2.373998e+01 
-2.621646e+01 -2.560574e+01 -2.621769e+01 -2.545913e+01 -2.581620e+01 -2.497680e+01 -2.327332e+01 -2.008383e+01 -1.662126e+01 -1.338027e+01 -8.656460e+00 1.199362e+00 1.520725e+01 2.727584e+01 3.430639e+01 3.509021e+01 3.558404e+01 3.509021e+01 3.430639e+01 2.727584e+01 1.520725e+01 1.199362e+00 -8.656460e+00 -1.338027e+01 -1.662126e+01 -2.008383e+01 -2.327332e+01 -2.497680e+01 -2.581620e+01 -2.545913e+01 -2.621769e+01 -2.560574e+01 
-2.810419e+01 -2.763918e+01 -2.849644e+01 -2.803791e+01 -2.955306e+01 -2.970571e+01 -2.809212e+01 -2.346710e+01 -1.277706e+01 3.322823e+00 1.714444e+01 3.065176e+01 4.536683e+01 5.627101e+01 6.093118e+01 5.980864e+01 6.014792e+01 5.980864e+01 6.093118e+01 5.627101e+01 4.536683e+01 3.065176e+01 1.714444e+01 3.322823e+00 -1.277706e+01 -2.346710e+01 -2.809212e+01 -2.970571e+01 -2.955306e+01 -2.803791e+01 -2.849644e+01 -2.763918e+01 
-2.991086e+01 -2.940155e+01 -3.098505e+01 -3.094947e+01 -3.513020e+01 -3.696636e+01 -3.114270e+01 -1.089966e+01 1.492162e+01 3.324487e+01 4.285878e+01 4.673754e+01 5.137859e+01 5.463924e+01 5.684782e+01 5.597639e+01 5.671280e+01 5.597639e+01 5.684782e+01 5.463924e+01 5.137859e+01 4.673754e+01 4.285878e+01 3.324487e+01 1.492162e+01 -1.089966e+01 -3.114270e+01 -3.696636e+01 -3.513020e+01 -3.094947e+01 -3.098505e+01 -2.940155e+01 
-3.129601e+01 -3.129244e+01 -3.316058e+01 -3.380237e+01 -4.204502e+01 -3.992222e+01 -1.867805e+01 1.778146e+01 3.865088e+01 4.344917e+01 4.510964e+01 4.597343e+01 4.945619e+01 5.198309e+01 5.468570e+01 5.474315e+01 5.576122e+01 5.474315e+01 5.468570e+01 5.198309e+01 4.945619e+01 4.597343e+01 4.510964e+01 4.344917e+01 3.865088e+01 1.778146e+01 -1.867805e+01 -3.992222e+01 -4.204502e+01 -3.380237e+01 -3.316058e+01 -3.129244e+01 
-3.177353e+01 -3.194706e+01 -3.413910e+01 -3.503652e+01 -4.765686e+01 -2.755519e+01 1.403619e+01 3.668498e+01 4.244229e+01 4.323661e+01 4.573845e+01 4.709596e+01 5.029434e+01 5.150175e+01 5.348902e+01 5.319815e+01 5.420418e+01 5.319815e+01 5.348902e+01 5.150175e+01 5.029434e+01 4.709596e+01 4.573845e+01 4.323661e+01 4.244229e+01 3.668498e+01 1.403619e+01 -2.755519e+01 -4.765686e+01 -3.503652e+01 -3.413910e+01 -3.194706e+01 
-3.129169e+01 -3.309968e+01 -3.273094e+01 -3.726587e+01 -4.205496e+01 -6.163716e+00 3.722113e+01 4.122469e+01 4.430843e+01 4.454439e+01 4.618605e+01 4.690595e+01 4.987671e+01 5.075630e+01 5.267520e+01 5.252355e+01 5.352799e+01 5.252355e+01 5.267520e+01 5.075630e+01 4.987671e+01 4.690595e+01 4.618605e+01 4.454439e+01 4.430843e+01 4.122469e+01 3.722113e+01 -6.163716e+00 -4.205496e+01 -3.726587e+01 -3.273094e+01 -3.309968e+01 
-2.948352e+01 -3.270815e+01 -2.842421e+01 -3.296484e+01 -3.052721e+01 1.665078e+01 4.540530e+01 4.303968e+01 4.529665e+01 4.462923e+01 4.691400e+01 4.762464e+01 5.037111e+01 5.074442e+01 5.244619e+01 5.205046e+01 5.306429e+01 5.205046e+01 5.244619e+01 5.074442e+01 5.037111e+01 4.762464e+01 4.691400e+01 4.462923e+01 4.529665e+01 4.303968e+01 4.540530e+01 1.665078e+01 -3.052721e+01 -3.296484e+01 -2.842421e+01 -3.270815e+01 
-2.933111e+01 -3.078393e+01 -2.750413e+01 -2.739784e+01 -2.301639e+01 2.559639e+01 4.827261e+01 4.343641e+01 4.605458e+01 4.502472e+01 4.710982e+01 4.755696e+01 5.020378e+01 5.057637e+01 5.227681e+01 5.196418e+01 5.294543e+01 5.196418e+01 5.227681e+01 5.057637e+01 5.020378e+01 4.755696e+01 4.710982e+01 4.502472e+01 4.605458e+01 4.343641e+01 4.827261e+01 2.559639e+01 -2.301639e+01 -2.739784e+01 -2.750413e+01 -3.078393e+01 
-2.948352e+01 -3.270815e+01 -2.842421e+01 -3.296484e+01 -3.052721e+01 1.665078e+01 4.540530e+01 4.303968e+01 4.529665e+01 4.462923e+01 4.691400e+01 4.762464e+01 5.037111e+01 5.074442e+01 5.244619e+01 5.205046e+01 5.306429e+01 5.205046e+01 5.244619e+01 5.074442e+01 5.037111e+01 4.762464e+01 4.691400e+01 4.462923e+01 4.529665e+01 4.303968e+01 4.540530e+01 1.665078e+01 -3.052721e+01 -3.296484e+01 -2.842421e+01 -3.270815e+01 
-3.129169e+01 -3.309968e+01 -3.273094e+01 -3.726587e+01 -4.205496e+01 -6.163716e+00 3.722113e+01 4.122469e+01 4.430843e+01 4.454439e+01 4.618605e+01 4.690595e+01 4.987671e+01 5.075630e+01 5.267520e+01 5.252355e+01 5.352799e+01 5.252355e+01 5.267520e+01 5.075630e+01 4.987671e+01 4.690595e+01 4.618605e+01 4.454439e+01 4.430843e+01 4.122469e+01 3.722113e+01 -6.163716e+00 -4.205496e+01 -3.726587e+01 -3.273094e+01 -3.309968e+01 
-3.177353e+01 -3.194706e+01 -3.413910e+01 -3.503652e+01 -4.765686e+01 -2.755519e+01 1.403619e+01 3.668498e+01 4.244229e+01 4.323661e+01 4.573845e+01 4.709596e+01 5.029434e+01 5.150175e+01 5.348902e+01 5.319815e+01 5.420418e+01 5.319815e+01 5.348902e+01 5.150175e+01 5.029434e+01 4.709596e+01 4.573845e+01 4.323661e+01 4.244229e+01 3.668498e+01 1.403619e+01 -2.755519e+01 -4.765686e+01 -3.503652e+01 -3.413910e+01 -3.194706e+01 
-3.129601e+01 -3.129244e+01 -3.316058e+01 -3.380237e+01 -4.204502e+01 -3.992222e+01 -1.867805e+01 1.778146e+01 3.865088e+01 4.344917e+01 4.510964e+01 4.597343e+01 4.945619e+01 5.198309e+01 5.468570e+01 5.474315e+01 5.576122e+01 5.474315e+01 5.468570e+01 5.198309e+01 4.945619e+01 4.597343e+01 4.510964e+01 4.344917e+01 3.865088e+01 1.778146e+01 -1.867805e+01 -3.992222e+01 -4.204502e+01 -3.380237e+01 -3.316058e+01 -3.129244e+01 
-2.991086e+01 -2.940155e+01 -3.098505e+01 -3.094947e+01 -3.513020e+01 -3.696636e+01 -3.114270e+01 -1.089966e+01 1.492162e+01 3.324487e+01 4.285878e+01 4.673754e+01 5.137859e+01 5.463924e+01 5.684782e+01 5.597639e+01 5.671280e+01 5.597639e+01 5.684782e+01 5.463924e+01 5.137859e+01 4.673754e+01 4.285878e+01 3.324487e+01 1.492162e+01 -1.089966e+01 -3.114270e+01 -3.696636e+01 -3.513020e+01 -3.094947e+01 -3.098505e+01 -2.940155e+01 
-2.810419e+01 -2.763918e+01 -2.849644e+01 -2.803791e+01 -2.955306e+01 -2.970571e+01 -2.809212e+01 -2.346710e+01 -1.277706e+01 3.322823e+00 