# vtk DataFile Version 2.0
Comment goes here
ASCII

DATASET STRUCTURED_POINTS
FIELD FieldData 1
TIME 1 1 double
0.70000000
DIMENSIONS    32   32   1

ORIGIN    0.000   0.000   0.000
SPACING   0.03125 0.03125   1.000

POINT_DATA   1024
SCALARS P double
LOOKUP_TABLE default

-1.333573e+01 -1.341874e+01 -1.324939e+01 -1.324167e+01 -1.296589e+01 -1.284361e+01 -1.245600e+01 -1.221096e+01 -1.177436e+01 -1.144749e+01 -1.109745e+01 -1.072680e+01 -1.048977e+01 -9.959301e+00 -9.631853e+00 -8.980438e+00 -8.835407e+00 -8.980438e+00 -9.631853e+00 -9.959301e+00 -1.048977e+01 -1.072680e+01 -1.109745e+01 -1.144749e+01 -1.177436e+01 -1.221096e+01 -1.245600e+01 -1.284361e+01 -1.296589e+01 -1.324167e+01 -1.324939e+01 -1.341874e+01 
-1.333695e+01 -1.341994e+01 -1.325862e+01 -1.326044e+01 -1.300093e+01 -1.290217e+01 -1.254160e+01 -1.234223e+01 -1.194900e+01 -1.170140e+01 -1.142615e+01 -1.118522e+01 -1.108305e+01 -1.072604e+01 -1.052755e+01 -9.905461e+00 -9.782521e+00 -9.905461e+00 -1.052755e+01 -1.072604e+01 -1.108305e+01 -1.118522e+01 -1.142615e+01 -1.170140e+01 -1.194900e+01 -1.234223e+01 -1.254160e+01 -1.290217e+01 -1.300093e+01 -1.326044e+01 -1.325862e+01 -1.341994e+01 
-1.343989e+01 -1.352286e+01 -1.335838e+01 -1.335713e+01 -1.308376e+01 -1.297376e+01 -1.257869e+01 -1.235129e+01 -1.189387e+01 -1.158292e+01 -1.121082e+01 -1.084331e+01 -1.062161e+01 -1.007043e+01 -9.801148e+00 -9.132734e+00 -8.955183e+00 -9.132734e+00 -9.801148e+00 -1.007043e+01 -1.062161e+01 -1.084331e+01 -1.121082e+01 -1.158292e+01 -1.189387e+01 -1.235129e+01 -1.257869e+01 -1.297376e+01 -1.308376e+01 -1.335713e+01 -1.335838e+01 -1.352286e+01 
-1.353469e+01 -1.361614e+01 -1.346472e+01 -1.347555e+01 -1.321858e+01 -1.313484e+01 -1.275082e+01 -1.256670e+01 -1.210835e+01 -1.185969e+01 -1.149536e+01 -1.124154e+01 -1.117084e+01 -1.088717e+01 -1.084623e+01 -1.008752e+01 -9.900582e+00 -1.008752e+01 -1.084623e+01 -1.088717e+01 -1.117084e+01 -1.124154e+01 -1.149536e+01 -1.185969e+01 -1.210835e+01 -1.256670e+01 -1.275082e+01 -1.313484e+01 -1.321858e+01 -1.347555e+01 -1.346472e+01 -1.361614e+01 
-1.376510e+01 -1.384691e+01 -1.370642e+01 -1.372870e+01 -1.347432e+01 -1.340143e+01 -1.298443e+01 -1.279247e+01 -1.223353e+01 -1.191764e+01 -1.137160e+01 -1.093616e+01 -1.061107e+01 -9.823220e+00 -9.634950e+00 -8.757245e+00 -8.405768e+00 -8.757245e+00 -9.634950e+00 -9.823220e+00 -1.061107e+01 -1.093616e+01 -1.137160e+01 -1.191764e+01 -1.223353e+01 -1.279247e+01 -1.298443e+01 -1.340143e+01 -1.347432e+01 -1.372870e+01 -1.370642e+01 -1.384691e+01 
-1.396276e+01 -1.403957e+01 -1.392498e+01 -1.396150e+01 -1.373226e+01 -1.368189e+01 -1.325983e+01 -1.308739e+01 -1.244889e+01 -1.211827e+01 -1.138918e+01 -1.097018e+01 -1.074834e+01 -1.053870e+01 -1.056362e+01 -8.964509e+00 -8.342047e+00 -8.964509e+00 -1.056362e+01 -1.053870e+01 -1.074834e+01 -1.097018e+01 -1.138918e+01 -1.211827e+01 -1.244889e+01 -1.308739e+01 -1.325983e+01 -1.368189e+01 -1.373226e+01 -1.396150e+01 -1.392498e+01 -1.403957e+01 
-1.434905e+01 -1.442578e+01 -1.435055e+01 -1.442020e+01 -1.423161e+01 -1.422676e+01 -1.379968e+01 -1.367080e+01 -1.291533e+01 -1.255763e+01 -1.158929e+01 -1.105561e+01 -1.032318e+01 -8.548597e+00 -7.685313e+00 -5.894972e+00 -4.919754e+00 -5.894972e+00 -7.685313e+00 -8.548597e+00 -1.032318e+01 -1.105561e+01 -1.158929e+01 -1.255763e+01 -1.291533e+01 -1.367080e+01 -1.379968e+01 -1.422676e+01 -1.423161e+01 -1.442020e+01 -1.435055e+01 -1.442578e+01 
-1.467766e+01 -1.474448e+01 -1.471679e+01 -1.480114e+01 -1.466129e+01 -1.467551e+01 -1.426127e+01 -1.415525e+01 -1.326943e+01 -1.275934e+01 -1.105515e+01 -1.012370e+01 -9.684551e+00 -9.665751e+00 -8.301110e+00 -5.348830e+00 -5.212996e+00 -5.348830e+00 -8.301110e+00 -9.665751e+00 -9.684551e+00 -1.012370e+01 -1.105515e+01 -1.275934e+01 -1.326943e+01 -1.415525e+01 -1.426127e+01 -1.467551e+01 -1.466129e+01 -1.480114e+01 -1.471679e+01 -1.474448e+01 
-1.522024e+01 -1.528472e+01 -1.533706e+01 -1.547358e+01 -1.543658e+01 -1.553636e+01 -1.520144e+01 -1.527126e+01 -1.423538e+01 -1.377596e+01 -1.225058e+01 -1.232770e+01 -9.050856e+00 -2.402990e+00 1.190597e+00 6.663307e+00 8.657260e+00 6.663307e+00 1.190597e+00 -2.402990e+00 -9.050856e+00 -1.232770e+01 -1.225058e+01 -1.377596e+01 -1.423538e+01 -1.527126e+01 -1.520144e+01 -1.553636e+01 -1.543658e+01 -1.547358e+01 -1.533706e+01 -1.528472e+01 
-1.566481e+01 -1.571641e+01 -1.584182e+01 -1.598741e+01 -1.604090e+01 -1.615644e+01 -1.597166e+01 -1.625092e+01 -1.546763e+01 -1.479087e+01 -9.310617e+00 2.528714e+00 1.496006e+01 2.776170e+01 3.544995e+01 3.985335e+01 4.277555e+01 3.985335e+01 3.544995e+01 2.776170e+01 1.496006e+01 2.528714e+00 -9.310617e+00 -1.479087e+01 -1.546763e+01 -1.625092e+01 -1.597166e+01 -1.615644e+01 -1.604090e+01 -1.598741e+01 -1.584182e+01 -1.571641e+01 
-1.621935e+01 -1.626495e+01 -1.651759e+01 -1.671853e+01 -1.698279e+01 -1.720292e+01 -1.742962e+01 -1.815041e+01 -1.631219e+01 -8.338613e+00 1.094344e+01 3.244093e+01 4.306786e+01 4.674155e+01 4.757491e+01 4.779156e+01 4.857600e+01 4.779156e+01 4.757491e+01 4.674155e+01 4.306786e+01 3.244093e+01 1.094344e+01 -8.338613e+00 -1.631219e+01 -1.815041e+01 -1.742962e+01 -1.720292e+01 -1.698279e+01 -1.671853e+01 -1.651759e+01 -1.626495e+01 
-1.658660e+01 -1.662625e+01 -1.697822e+01 -1.717791e+01 -1.756550e+01 -1.769668e+01 -1.806218e+01 -1.893424e+01 -9.420489e+00 1.705669e+01 4.034310e+01 4.789311e+01 4.852438e+01 4.758154e+01 4.692348e+01 4.684131e+01 4.719591e+01 4.684131e+01 4.692348e+01 4.758154e+01 4.852438e+01 4.789311e+01 4.034310e+01 1.705669e+01 -9.420489e+00 -1.893424e+01 -1.806218e+01 -1.769668e+01 -1.756550e+01 -1.717791e+01 -1.697822e+01 -1.662625e+01 
-1.678354e+01 -1.681812e+01 -1.732164e+01 -1.754181e+01 -1.822399e+01 -1.818244e+01 -1.952596e+01 -1.688670e+01 1.041686e+01 4.192081e+01 5.055165e+01 4.920733e+01 4.877581e+01 4.867862e+01 4.872831e+01 4.873573e+01 4.896283e+01 4.873573e+01 4.872831e+01 4.867862e+01 4.877581e+01 4.920733e+01 5.055165e+01 4.192081e+01 1.041686e+01 -1.688670e+01 -1.952596e+01 -1.818244e+01 -1.822399e+01 -1.754181e+01 -1.732164e+01 -1.681812e+01 
-1.673568e+01 -1.679530e+01 -1.744562e+01 -1.770182e+01 -1.865828e+01 -1.821510e+01 -2.073703e+01 -6.445493e+00 3.262068e+01 5.180121e+01 5.001472e+01 5.013315e+01 4.923597e+01 4.898682e+01 4.846326e+01 4.841964e+01 4.837201e+01 4.841964e+01 4.846326e+01 4.898682e+01 4.923597e+01 5.013315e+01 5.001472e+01 5.180121e+01 3.262068e+01 -6.445493e+00 -2.073703e+01 -1.821510e+01 -1.865828e+01 -1.770182e+01 -1.744562e+01 -1.679530e+01 
-1.628115e+01 -1.637079e+01 -1.712627e+01 -1.747600e+01 -1.840248e+01 -1.802880e+01 -1.989928e+01 6.769127e+00 4.604200e+01 5.326755e+01 5.069226e+01 5.070499e+01 4.984054e+01 4.981906e+01 4.952352e+01 4.954823e+01 4.952391e+01 4.954823e+01 4.952352e+01 4.981906e+01 4.984054e+01 5.070499e+01 5.069226e+01 5.326755e+01 4.604200e+01 6.769127e+00 -1.989928e+01 -1.802880e+01 -1.840248e+01 -1.747600e+01 -1.712627e+01 -1.637079e+01 
-1.581030e+01 -1.599340e+01 -1.675772e+01 -1.741857e+01 -1.795923e+01 -1.864175e+01 -1.801002e+01 1.538894e+01 5.171145e+01 5.271205e+01 5.106903e+01 5.076510e+01 4.979400e+01 4.965068e+01 4.910657e+01 4.912261e+01 4.894160e+01 4.912261e+01 4.910657e+01 4.965068e+01 4.979400e+01 5.076510e+01 5.106903e+01 5.271205e+01 5.171145e+01 1.538894e+01 -1.801002e+01 -1.864175e+01 -1.795923e+01 -1.741857e+01 -1.675772e+01 -1.599340e+01 
-1.547819e+01 -1.570067e+01 -1.649702e+01 -1.732300e+01 -1.768237e+01 -1.897431e+01 -1.698545e+01 1.945792e+01 5.402053e+01 5.321691e+01 5.197759e+01 5.134649e+01 5.036159e+01 5.020367e+01 4.979305e+01 4.980680e+01 4.970290e+01 4.980680e+01 4.979305e+01 5.020367e+01 5.036159e+01 5.134649e+01 5.197759e+01 5.321691e+01 5.402053e+01 1.945792e+01 -1.698545e+01 -1.897431e+01 -1.768237e+01 -1.732300e+01 -1.649702e+01 -1.570067e+01 
-1.581030e+01 -1.599340e+01 -1.675772e+01 -1.741857e+01 -1.795923e+01 -1.864175e+01 -1.801002e+01 1.538894e+01 5.171145e+01 5.271205e+01 5.106903e+01 5.076510e+01 4.979400e+01 4.965068e+01 4.910657e+01 4.912261e+01 4.894160e+01 4.912261e+01 4.910657e+01 4.965068e+01 4.979400e+01 5.076510e+01 5.106903e+01 5.271205e+01 5.171145e+01 1.538894e+01 -1.801002e+01 -1.864175e+01 -1.795923e+01 -1.741857e+01 -1.675772e+01 -1.599340e+01 
-1.628115e+01 -1.637079e+01 -1.712627e+01 -1.747600e+01 -1.840248e+01 -1.802880e+01 -1.989928e+01 6.769127e+00 4.604200e+01 5.326755e+01 5.069226e+01 5.070499e+01 4.984054e+01 4.981906e+01 4.952352e+01 4.954823e+01 4.952391e+01 4.954823e+01 4.952352e+01 4.981906e+01 4.984054e+01 5.070499e+01 5.069226e+01 5.326755e+01 4.604200e+01 6.769127e+00 -1.989928e+01 -1.802880e+01 -1.840248e+01 -1.747600e+01 -1.712627e+01 -1.637079e+01 
-1.673568e+01 -1.679530e+01 -1.744562e+01 -1.770182e+01 -1.865828e+01 -1.821510e+01 -2.073703e+01 -6.445493e+00 3.262068e+01 5.180121e+01 5.001472e+01 5.013315e+01 4.923597e+01 4.898682e+01 4.846326e+01 4.841964e+01 4.837201e+01 4.841964e+01 4.846326e+01 4.898682e+01 4.923597e+01 5.013315e+01 5.001472e+01 5.180121e+01 3.262068e+01 -6.445493e+00 -2.073703e+01 -1.821510e+01 -1.865828e+01 -1.770182e+01 -1.744562e+01 -1.679530e+01 
-1.678354e+01 -1.681812e+01 -1.732164e+01 -1.754181e+01 -1.822399e+01 -1.818244e+01 -1.952596e+01 -1.688670e+01 1.041686e+01 4.192081e+01 5.055165e+01 4.920733e+01 4.877581e+01 4.867862e+01 4.872831e+01 4.873573e+01 4.896283e+01 4.873573e+01 4.872831e+01 4.867862e+01 4.877581e+01 4.920733e+01 5.055165e+01 4.192081e+01 1.041686e+01 -1.688670e+01 -1.952596e+01 -1.818244e+01 -1.822399e+01 -1.754181e+01 -1.732164e+01 -1.681812e+01 
-1.658660e+01 -1.662625e+01 -1.697822e+01 -1.717791e+01 -1.756550e+01 -1.769668e+01 -1.806218e+01 -1.893424e+01 -9.420489e+00 1.705669e+01 4.034310e+01 4.789311e+01 4.852438e+01 4.758154e+01 4.692348e+01 4.684131e+01 4.719591e+01 4.684131e+01 4.692348e+01 4.758154e+01 4.852438e+01 4.789311e+01 4.034310e+01 1.705669e+01 -9.420489e+00 -1.893424e+01 -1.806218e+01 -1.769668e+01 -1.756550e+01 -1.717791e+01 -1.697822e+01 -1.662625e+01 
-1.621935e+01 -1.626495e+01 -1.651759e+01 -1.671853e+01 -1.698279e+01 -1.720292e+01 -1.742962e+01 -1.815041e+01 -1.631219e+01 -8.338613e+00 1.094344e+01 3.244093e+01 4.306786e+01 4.674155e+01 4.757491e+01 4.779156e+01 4.857600e+01 4.779156e+01 4.757491e+01 4.674155e+01 4.306786e+01 3.244093e+01 1.094344e+01 -8.338613e+00 -1.631219e+01 -1.815041e+01 -1.742962e+01 -1.720292e+01 -1.698279e+01 -1.671853e+01 -1.651759e+01 -1.626495e+01 
-1.566481e+01 -1.571641e+01 -1.584182e+01 -1.598741e+01 -1.604090e+01 -1.615644e+01 -1.597166e+01 -1.625092e+01 -1.546763e+01 -1.479087e+01 -9.310617e+00 2.528714e+00 1.496006e+01 2.776170e+01 3.544995e+01 3.985335e+01 4.277555e+01 3.985335e+01 3.544995e+01 2.776170e+01 1.496006e+01 2.528714e+00 -9.310617e+00 -1.479087e+01 -1.546763e+01 -1.625092e+01 -1.597166e+01 -1.615644e+01 -1.604090e+01 -1.598741e+01 -1.584182e+01 -1.571641e+01 
-1.522024e+01 -1.528472e+01 -1.533706e+01 -1.547358e+01 -1.543658e+01 -1.553636e+01 -1.520144e+01 -1.527126e+01 -1.423538e+01 -1.377596e+01 -1.225058e+01 -1.232770e+01 -9.050856e+00 -2.402990e+00 1.190597e+00 6.663307e+00 8.657260e+00 6.663307e+00 1.190597e+00 -2.402990e+00 -9.050856e+00 -1.232770e+01 -1.225058e+01 -1.377596e+01 -1.423538e+01 -1.527126e+01 -1.520144e+01 -1.553636e+01 -1.543658e+01 -1.547358e+01 -1.533706e+01 -1.528472e+01 
-1.467766e+01 -1.474448e+01 -1.471679e+01 -1.480114e+01 -1.466129e+01 -1.467551e+01 -1.426127e+01 -1.415525e+01 -1.326943e+01 -1.275934e+01 -1.105515e+01 -1.012370e+01 -9.684551e+00 -9.665751e+00 -8.301110e+00 -5.348830e+00 -5.212996e+00 -5.348830e+00 -8.301110e+00 -9.665751e+00 -9.684551e+00 -1.012370e+01 -1.105515e+01 -1.275934e+01 -1.326943e+01 -1.415525e+01 -1.426127e+01 -1.467551e+01 -1.466129e+01 -1.480114e+01 -1.471679e+01 -1.474448e+01 
-1.434905e+01 -1.442578e+01 -1.435055e+01 -1.442020e+01 -1.423161e+01 -1.422676e+01 -1.379968e+01 -1.367080e+01 -1.291533e+01 -1.255763e+01 -1.158929e+01 -1.105561e+01 -1.032318e+01 -8.548597e+00 -7.685313e+00 -5.894972e+00 -4.919754e+00 -5.894972e+00 -7.685313e+00 -8.548597e+00 -1.032318e+01 -1.105561e+01 -1.158929e+01 -1.255763e+01 -1.291533e+01 -1.367080e+01 -1.379968e+01 -1.422676e+01 -1.423161e+01 -1.442020e+01 -1.435055e+01 -1.442578e+01 
-1.396276e+01 -1.403957e+01 -1.392498e+01 -1.396150e+01 -1.373226e+01 -1.368189e+01 -1.325983e+01 -1.308739e+01 -1.244889e+01 -1.211827e+01 -1.138918e+01 -1.097018e+01 -1.074834e+01 -1.053870e+01 -1.056362e+01 -8.964509e+00 -8.342047e+00 -8.964509e+00 -1.056362e+01 -1.053870e+01 -1.074834e+01 -1.097018e+01 -1.138918e+01 -1.211827e+01 -1.244889e+01 -1.308739e+01 -1.325983e+01 -1.368189e+01 -1.373226e+01 -1.396150e+01 -1.392498e+01 -1.403957e+01 
-1.376510e+01 -1.384691e+01 -1.370642e+01 -1.372870e+01 -1.347432e+01 -1.340143e+01 -1.298443e+01 -1.279247e+01 -1.223353e+01 -1.191764e+01 -1.137160e+01 -1.093616e+01 -1.061107e+01 -9.823220e+00 -9.634950e+00 -8.757245e+00 -8.405768e+00 -8.757245e+00 -9.634950e+00 -9.823220e+00 -1.061107e+01 -1.093616e+01 -1.137160e+01 -1.191764e+01 -1.223353e+01 -1.279247e+01 -1.298443e+01 -1.340143e+01 -1.347432e+01 -1.372870e+01 -1.370642e+01 -1.384691e+01 
-1.353469e+01 -1.361614e+01 -1.346472e+01 -1.347555e+01 -1.321858e+01 -1.313484e+01 -1.275082e+01 -1.256670e+01 -1.210835e+01 -1.185969e+01 -1.149536e+01 -1.124154e+01 -1.117084e+01 -1.088717e+01 -1.084623e+01 -1.008752e+01 -9.900582e+00 -1.008752e+01 -1.084623e+01 -1.088717e+01 -1.117084e+01 -1.124154e+01 -1.149536e+01 -1.185969e+01 -1.210835e+01 -1.256670e+01 -1.275082e+01 -1.313484e+01 -1.321858e+01 -1.347555e+01 -1.346472e+01 -1.361614e+01 
-1.343989e+01 -1.352286e+01 -1.335838e+01 -1.335713e+01 -1.308376e+01 -1.297376e+01 -1.257869e+01 -1.235129e+01 -1.189387e+01 -1.158292e+01 -1.121082e+01 -1.084331e+01 -1.062161e+01 -1.007043e+01 -9.801148e+00 -9.132734e+00 -8.955183e+00 -9.132734e+00 -9.801148e+00 -1.007043e+01 -1.062161e+01 -1.084331e+01 -1.121082e+01 -1.158292e+01 -1.189387e+01 -1.235129e+01 -1.257869e+01 -1.297376e+01 -1.308376e+01 -1.335713e+01 -1.335838e+01 -1.352286e+01 
-1.333695e+01 -1.341994e+01 -1.325862e+01 -1.326044e+01 -1.300093e+01 -1.290217e+01 -1.254160e+01 -1.234223e+01 -1.194900e+01 -1.170140e+01 -1.142615e+01 -1.118522e+01 -1.108305e+01 -1.072604e+01 -1.052755e+01 -9.905461e+00 -9.782521e+00 -9.905461e+00 -1.052755e+01 -1.072604e+01 -1.108305e+01 -1.118522e+01 -1.142615e+01 -1.170140e+01 -1.194900e+01 -1.234223e+01 -1.254160e+01 -1.290217e+01 -1.300093e+01 -1.326044e+01 -1.325862e+01 -1.341994e+01 
