# vtk DataFile Version 2.0
Comment goes here
ASCII

DATASET STRUCTURED_POINTS
FIELD FieldData 1
TIME 1 1 double
0.24000000
DIMENSIONS    32   32   1

ORIGIN    0.000   0.000   0.000
SPACING   0.03125 0.03125   1.000

POINT_DATA   1024
SCALARS P double
LOOKUP_TABLE default

-1.708999e+01 -1.688734e+01 -1.675450e+01 -1.624012e+01 -1.577155e+01 -1.499171e+01 -1.422808e+01 -1.326101e+01 -1.230014e+01 -1.126366e+01 -1.025289e+01 -9.313102e+00 -8.436141e+00 -7.839021e+00 -7.252990e+00 -7.059296e+00 -6.439594e+00 -7.059296e+00 -7.252990e+00 -7.839021e+00 -8.436141e+00 -9.313102e+00 -1.025289e+01 -1.126366e+01 -1.230014e+01 -1.326101e+01 -1.422808e+01 -1.499171e+01 -1.577155e+01 -1.624012e+01 -1.675450e+01 -1.688734e+01 
-1.720803e+01 -1.700007e+01 -1.686314e+01 -1.633656e+01 -1.584748e+01 -1.504767e+01 -1.423730e+01 -1.324113e+01 -1.219989e+01 -1.112829e+01 -1.000978e+01 -9.040672e+00 -8.072688e+00 -7.464898e+00 -6.854905e+00 -6.671527e+00 -6.065857e+00 -6.671527e+00 -6.854905e+00 -7.464898e+00 -8.072688e+00 -9.040672e+00 -1.000978e+01 -1.112829e+01 -1.219989e+01 -1.324113e+01 -1.423730e+01 -1.504767e+01 -1.584748e+01 -1.633656e+01 -1.686314e+01 -1.700007e+01 
-1.744013e+01 -1.722514e+01 -1.709069e+01 -1.655089e+01 -1.605898e+01 -1.523714e+01 -1.442208e+01 -1.339546e+01 -1.236378e+01 -1.125499e+01 -1.017493e+01 -9.153406e+00 -8.239580e+00 -7.610086e+00 -7.183303e+00 -6.955728e+00 -6.439388e+00 -6.955728e+00 -7.183303e+00 -7.610086e+00 -8.239580e+00 -9.153406e+00 -1.017493e+01 -1.125499e+01 -1.236378e+01 -1.339546e+01 -1.442208e+01 -1.523714e+01 -1.605898e+01 -1.655089e+01 -1.709069e+01 -1.722514e+01 
-1.792823e+01 -1.769305e+01 -1.756007e+01 -1.698359e+01 -1.645820e+01 -1.557619e+01 -1.467127e+01 -1.355356e+01 -1.236482e+01 -1.113549e+01 -9.834729e+00 -8.688839e+00 -7.608408e+00 -6.953211e+00 -6.619568e+00 -6.423338e+00 -5.934537e+00 -6.423338e+00 -6.619568e+00 -6.953211e+00 -7.608408e+00 -8.688839e+00 -9.834729e+00 -1.113549e+01 -1.236482e+01 -1.355356e+01 -1.467127e+01 -1.557619e+01 -1.645820e+01 -1.698359e+01 -1.756007e+01 -1.769305e+01 
-1.852337e+01 -1.827064e+01 -1.813908e+01 -1.752682e+01 -1.697197e+01 -1.602615e+01 -1.504966e+01 -1.384159e+01 -1.257851e+01 -1.125378e+01 -9.952663e+00 -8.659868e+00 -7.494119e+00 -6.709128e+00 -6.291969e+00 -6.000644e+00 -5.263303e+00 -6.000644e+00 -6.291969e+00 -6.709128e+00 -7.494119e+00 -8.659868e+00 -9.952663e+00 -1.125378e+01 -1.257851e+01 -1.384159e+01 -1.504966e+01 -1.602615e+01 -1.697197e+01 -1.752682e+01 -1.813908e+01 -1.827064e+01 
-1.942572e+01 -1.913563e+01 -1.902691e+01 -1.836038e+01 -1.778094e+01 -1.674293e+01 -1.564589e+01 -1.428643e+01 -1.278932e+01 -1.123267e+01 -9.483483e+00 -7.874695e+00 -6.299518e+00 -5.377219e+00 -4.501539e+00 -4.259933e+00 -3.214690e+00 -4.259933e+00 -4.501539e+00 -5.377219e+00 -6.299518e+00 -7.874695e+00 -9.483483e+00 -1.123267e+01 -1.278932e+01 -1.428643e+01 -1.564589e+01 -1.674293e+01 -1.778094e+01 -1.836038e+01 -1.902691e+01 -1.913563e+01 
-2.042688e+01 -2.011070e+01 -2.001544e+01 -1.929906e+01 -1.867367e+01 -1.752764e+01 -1.625100e+01 -1.472181e+01 -1.298678e+01 -1.133001e+01 -9.689355e+00 -7.749337e+00 -5.830255e+00 -4.367078e+00 -3.070770e+00 -2.605924e+00 -1.613307e+00 -2.605924e+00 -3.070770e+00 -4.367078e+00 -5.830255e+00 -7.749337e+00 -9.689355e+00 -1.133001e+01 -1.298678e+01 -1.472181e+01 -1.625100e+01 -1.752764e+01 -1.867367e+01 -1.929906e+01 -2.001544e+01 -2.011070e+01 
-2.178882e+01 -2.141959e+01 -2.139700e+01 -2.062563e+01 -2.002947e+01 -1.877753e+01 -1.736687e+01 -1.565326e+01 -1.371516e+01 -1.168653e+01 -9.063806e+00 -6.201816e+00 -3.680427e+00 -2.027184e+00 -8.090879e-01 -8.088335e-01 -1.622653e-02 -8.088335e-01 -8.090879e-01 -2.027184e+00 -3.680427e+00 -6.201816e+00 -9.063806e+00 -1.168653e+01 -1.371516e+01 -1.565326e+01 -1.736687e+01 -1.877753e+01 -2.002947e+01 -2.062563e+01 -2.139700e+01 -2.141959e+01 
-2.324585e+01 -2.285086e+01 -2.289198e+01 -2.208378e+01 -2.149556e+01 -2.009181e+01 -1.832320e+01 -1.622007e+01 -1.343481e+01 -1.142647e+01 -9.738038e+00 -6.499483e+00 -3.149513e+00 -5.436552e-01 1.350785e+00 1.335177e+00 2.099375e+00 1.335177e+00 1.350785e+00 -5.436552e-01 -3.149513e+00 -6.499483e+00 -9.738038e+00 -1.142647e+01 -1.343481e+01 -1.622007e+01 -1.832320e+01 -2.009181e+01 -2.149556e+01 -2.208378e+01 -2.289198e+01 -2.285086e+01 
-2.506515e+01 -2.461834e+01 -2.482813e+01 -2.400256e+01 -2.360931e+01 -2.211037e+01 -2.008209e+01 -1.776554e+01 -1.548849e+01 -1.331289e+01 -7.689512e+00 1.527548e+00 1.009014e+01 1.515738e+01 1.849972e+01 1.843133e+01 1.838006e+01 1.843133e+01 1.849972e+01 1.515738e+01 1.009014e+01 1.527548e+00 -7.689512e+00 -1.331289e+01 -1.548849e+01 -1.776554e+01 -2.008209e+01 -2.211037e+01 -2.360931e+01 -2.400256e+01 -2.482813e+01 -2.461834e+01 
-2.695100e+01 -2.651967e+01 -2.691315e+01 -2.615809e+01 -2.612779e+01 -2.454811e+01 -2.208982e+01 -1.819108e+01 -7.753254e+00 6.427924e+00 2.086104e+01 3.144249e+01 3.772110e+01 3.972927e+01 4.039039e+01 3.973006e+01 3.870549e+01 3.973006e+01 4.039039e+01 3.972927e+01 3.772110e+01 3.144249e+01 2.086104e+01 6.427924e+00 -7.753254e+00 -1.819108e+01 -2.208982e+01 -2.454811e+01 -2.612779e+01 -2.615809e+01 -2.691315e+01 -2.651967e+01 
-2.903883e+01 -2.862112e+01 -2.933733e+01 -2.870784e+01 -2.946137e+01 -2.792360e+01 -2.179673e+01 -3.960635e+00 2.372691e+01 4.020484e+01 4.711231e+01 4.752267e+01 4.598331e+01 4.423720e+01 4.284783e+01 4.191327e+01 4.123167e+01 4.191327e+01 4.284783e+01 4.423720e+01 4.598331e+01 4.752267e+01 4.711231e+01 4.020484e+01 2.372691e+01 -3.960635e+00 -2.179673e+01 -2.792360e+01 -2.946137e+01 -2.870784e+01 -2.933733e+01 -2.862112e+01 
-3.094427e+01 -3.068568e+01 -3.169929e+01 -3.143697e+01 -3.364537e+01 -2.950431e+01 -3.889589e+00 3.024736e+01 5.043900e+01 5.238599e+01 5.049607e+01 4.773878e+01 4.583653e+01 4.457762e+01 4.396219e+01 4.349782e+01 4.323761e+01 4.349782e+01 4.396219e+01 4.457762e+01 4.583653e+01 4.773878e+01 5.049607e+01 5.238599e+01 5.043900e+01 3.024736e+01 -3.889589e+00 -2.950431e+01 -3.364537e+01 -3.143697e+01 -3.169929e+01 -3.068568e+01 
-3.252037e+01 -3.248175e+01 -3.385394e+01 -3.383336e+01 -3.813418e+01 -1.808434e+01 2.878121e+01 5.480055e+01 5.470491e+01 5.224160e+01 5.069063e+01 4.928837e+01 4.807926e+01 4.689225e+01 4.605451e+01 4.550696e+01 4.526358e+01 4.550696e+01 4.605451e+01 4.689225e+01 4.807926e+01 4.928837e+01 5.069063e+01 5.224160e+01 5.470491e+01 5.480055e+01 2.878121e+01 -1.808434e+01 -3.813418e+01 -3.383336e+01 -3.385394e+01 -3.248175e+01 
-3.340401e+01 -3.381941e+01 -3.487509e+01 -3.599343e+01 -3.814716e+01 4.063926e+00 5.255054e+01 5.832824e+01 5.524473e+01 5.291606e+01 5.113355e+01 4.937469e+01 4.819064e+01 4.702375e+01 4.641905e+01 4.596091e+01 4.587426e+01 4.596091e+01 4.641905e+01 4.702375e+01 4.819064e+01 4.937469e+01 5.113355e+01 5.291606e+01 5.524473e+01 5.832824e+01 5.255054e+01 4.063926e+00 -3.814716e+01 -3.599343e+01 -3.487509e+01 -3.381941e+01 
-3.347585e+01 -3.485422e+01 -3.490489e+01 -3.876588e+01 -3.473267e+01 2.076366e+01 6.220017e+01 5.889926e+01 5.691435e+01 5.349331e+01 5.205410e+01 5.030677e+01 4.932573e+01 4.818365e+01 4.756013e+01 4.708013e+01 4.697718e+01 4.708013e+01 4.756013e+01 4.818365e+01 4.932573e+01 5.030677e+01 5.205410e+01 5.349331e+01 5.691435e+01 5.889926e+01 6.220017e+01 2.076366e+01 -3.473267e+01 -3.876588e+01 -3.490489e+01 -3.485422e+01 
-3.380391e+01 -3.535164e+01 -3.539298e+01 -4.036317e+01 -3.403387e+01 2.602209e+01 6.467176e+01 5.875565e+01 5.746991e+01 5.370328e+01 5.210377e+01 5.007133e+01 4.895533e+01 4.772139e+01 4.713502e+01 4.664795e+01 4.660404e+01 4.664795e+01 4.713502e+01 4.772139e+01 4.895533e+01 5.007133e+01 5.210377e+01 5.370328e+01 5.746991e+01 5.875565e+01 6.467176e+01 2.602209e+01 -3.403387e+01 -4.036317e+01 -3.539298e+01 -3.535164e+01 
-3.347585e+01 -3.485422e+01 -3.490489e+01 -3.876588e+01 -3.473267e+01 2.076366e+01 6.220017e+01 5.889926e+01 5.691435e+01 5.349331e+01 5.205410e+01 5.030677e+01 4.932573e+01 4.818365e+01 4.756013e+01 4.708013e+01 4.697718e+01 4.708013e+01 4.756013e+01 4.818365e+01 4.932573e+01 5.030677e+01 5.205410e+01 5.349331e+01 5.691435e+01 5.889926e+01 6.220017e+01 2.076366e+01 -3.473267e+01 -3.876588e+01 -3.490489e+01 -3.485422e+01 
-3.340401e+01 -3.381941e+01 -3.487509e+01 -3.599343e+01 -3.814716e+01 4.063926e+00 5.255054e+01 5.832824e+01 5.524473e+01 5.291606e+01 5.113355e+01 4.937469e+01 4.819064e+01 4.702375e+01 4.641905e+01 4.596091e+01 4.587426e+01 4.596091e+01 4.641905e+01 4.702375e+01 4.819064e+01 4.937469e+01 5.113355e+01 5.291606e+01 5.524473e+01 5.832824e+01 5.255054e+01 4.063926e+00 -3.814716e+01 -3.599343e+01 -3.487509e+01 -3.381941e+01 
-3.252037e+01 -3.248175e+01 -3.385394e+01 -3.383336e+01 -3.813418e+01 -1.808434e+01 2.878121e+01 5.480055e+01 5.470491e+01 5.224160e+01 5.069063e+01 4.928837e+01 4.807926e+01 4.689225e+01 4.605451e+01 4.550696e+01 4.526358e+01 4.550696e+01 4.605451e+01 4.689225e+01 4.807926e+01 4.928837e+01 5.069063e+01 5.224160e+01 5.470491e+01 5.480055e+01 2.878121e+01 -1.808434e+01 -3.813418e+01 -3.383336e+01 -3.385394e+01 -3.248175e+01 
-3.094427e+01 -3.068568e+01 -3.169929e+01 -3.143697e+01 -3.364537e+01 -2.950431e+01 -3.889589e+00 3.024736e+01 5.043900e+01 5.238599e+01 5.049607e+01 4.773878e+01 4.583653e+01 4.457762e+01 4.396219e+01 4.349782e+01 4.323761e+01 4.349782e+01 4.396219e+01 4.457762e+01 4.583653e+01 4.773878e+01 5.049607e+01 5.238599e+01 5.043900e+01 3.024736e+01 -3.889589e+00 -2.950431e+01 -3.364537e+01 -3.143697e+01 -3.169929e+01 -3.068568e+01 
-2.903883e+01 -2.862112e+01 -2.933733e+01 -2.870784e+01 -2.946137e+01 -2.792360e+01 -2.179673e+01 -3.960635e+00 2.372691e+01 4.020484e+01 4.711231e+01 4.752267e+01 4.598331e+01 4.423720e+01 4.284783e+01 4.191327e+01 4.123167e+01 4.191327e+01 4.284783e+01 4.423720e+01 4.598331e+01 4.752267e+01 4.711231e+01 4.020484e+01 2.372691e+01 -3.960635e+00 -2.179673e+01 -2.792360e+01 -2.946137e+01 -2.870784e+01 -2.933733e+01 -2.862112e+01 
-2.695100e+01 -2.651967e+01 -2.691315e+01 -2.615809e+01 -2.612779e+01 -2.454811e+01 -2.208982e+01 -1.819108e+01 -7.753254e+00 6.427924e+00 2.086104e+01 3.144249e+01 3.772110e+01 3.972927e+01 4.039039e+01 3.973006e+01 3.870549e+01 3.973006e+01 4.039039e+01 3.972927e+01 3.772110e+01 3.144249e+01 2.086104e+01 6.427924e+00 -7.753254e+00 -1.819108e+01 -2.208982e+01 -2.454811e+01 -2.612779e+01 -2.615809e+01 -2.691315e+01 -2.651967e+01 
-2.506515e+01 -2.461834e+01 -2.482813e+01 -2.400256e+01 -2.360931e+01 -2.211037e+01 -2.008209e+01 -1.776554e+01 -1.548849e+01 -1.331289e+01 -7.689512e+00 1.527548e+00 1.009014e+01 1.515738e+01 1.849972e+01 1.843133e+01 1.838006e+01 1.843133e+01 1.849972e+01 1.515738e+01 1.009014e+01 1.527548e+00 -7.689512e+00 -1.331289e+01 -1.548849e+01 -1.776554e+01 -2.008209e+01 -2.211037e+01 -2.360931e+01 -2.400256e+01 -2.482813e+01 -2.461834e+01 
-2.324585e+01 -2.285086e+01 -2.289198e+01 -2.208378e+01 -2.149556e+01 -2.009181e+01 -1.832320e+01 -1.622007e+01 -1.343481e+01 -1.142647e+01 -9.738038e+00 -6.499483e+00 -3.149513e+00 -5.436552e-01 1.350785e+00 1.335177e+00 2.099375e+00 1.335177e+00 1.350785e+00 -5.436552e-01 -3.149513e+00 -6.499483e+00 -9.738038e+00 -1.142647e+01 -1.343481e+01 -1.622007e+01 -1.832320e+01 -2.009181e+01 -2.149556e+01 -2.208378e+01 -2.289198e+01 -2.285086e+01 
-2.178882e+01 -2.141959e+01 -2.139700e+01 -2.062563e+01 -2.002947e+01 -1.877753e+01 -1.736687e+01 -1.565326e+01 -1.371516e+01 -1.168653e+01 -9.063806e+00 -6.201816e+00 -3.680427e+00 -2.027184e+00 -8.090879e-01 -8.088335e-01 -1.622653e-02 -8.088335e-01 -8.090879e-01 -2.027184e+00 -3.680427e+00 -6.201816e+00 -9.063806e+00 -1.168653e+01 -1.371516e+01 -1.565326e+01 -1.736687e+01 -1.877753e+01 -2.002947e+01 -2.062563e+01 -2.139700e+01 -2.141959e+01 
-2.042688e+01 -2.011070e+01 -2.001544e+01 -1.929906e+01 -1.867367e+01 -1.752764e+01 -1.625100e+01 -1.472181e+01 -1.298678e+01 -1.133001e+01 -9.689355e+00 -7.749337e+00 -5.830255e+00 -4.367078e+00 -3.070770e+00 -2.605924e+00 -1.613307e+00 -2.605924e+00 -3.070770e+00 -4.367078e+00 -5.830255e+00 -7.749337e+00 -9.689355e+00 -1.133001e+01 -1.298678e+01 -1.472181e+01 -1.625100e+01 -1.752764e+01 -1.867367e+01 -1.929906e+01 -2.001544e+01 -2.011070e+01 
-1.942572e+01 -1.913563e+01 -1.902691e+01 -1.836038e+01 -1.778094e+01 -1.674293e+01 -1.564589e+01 -1.428643e+01 -1.278932e+01 -1.123267e+01 -9.483483e+00 -7.874695e+00 -6.299518e+00 -5.377219e+00 -4.501539e+00 -4.259933e+00 -3.214690e+00 -4.259933e+00 -4.501539e+00 -5.377219e+00 -6.299518e+00 -7.874695e+00 -9.483483e+00 -1.123267e+01 -1.278932e+01 -1.428643e+01 -1.564589e+01 -1.674293e+01 -1.778094e+01 -1.836038e+01 -1.902691e+01 -1.913563e+01 
-1.852337e+01 -1.827064e+01 -1.813908e+01 -1.752682e+01 -1.697197e+01 -1.602615e+01 -1.504966e+01 -1.384159e+01 -1.257851e+01 -1.125378e+01 -9.952663e+00 -8.659868e+00 -7.494119e+00 -6.709128e+00 -6.291969e+00 -6.000644e+00 -5.263303e+00 -6.000644e+00 -6.291969e+00 -6.709128e+00 -7.494119e+00 -8.659868e+00 -9.952663e+00 -1.125378e+01 -1.257851e+01 -1.384159e+01 -1.504966e+01 -1.602615e+01 -1.697197e+01 -1.752682e+01 -1.813908e+01 -1.827064e+01 
-1.792823e+01 -1.769305e+01 -1.756007e+01 -1.698359e+01 -1.645820e+01 -1.557619e+01 -1.467127e+01 -1.355356e+01 -1.236482e+01 -1.113549e+01 -9.834729e+00 -8.688839e+00 -7.608408e+00 -6.953211e+00 -6.619568e+00 -6.423338e+00 -5.934537e+00 -6.423338e+00 -6.619568e+00 -6.953211e+00 -7.608408e+00 -8.688839e+00 -9.834729e+00 -1.113549e+01 -1.236482e+01 -1.355356e+01 -1.467127e+01 -1.557619e+01 -1.645820e+01 -1.698359e+01 -1.756007e+01 -1.769305e+01 
-1.744013e+01 -1.722514e+01 -1.709069e+01 -1.655089e+01 -1.605898e+01 -1.523714e+01 -1.442208e+01 -1.339546e+01 -1.236378e+01 -1.125499e+01 -1.017493e+01 -9.153406e+00 -8.239580e+00 -7.610086e+00 -7.183303e+00 -6.955728e+00 -6.439388e+00 -6.955728e+00 -7.183303e+00 -7.610086e+00 -8.239580e+00 -9.153406e+00 -1.017493e+01 -1.125499e+01 -1.236378e+01 -1.339546e+01 -1.442208e+01 -1.523714e+01 -1.605898e+01 -1.655089e+01 -1.709069e+01 -1.722514e+01 
-1.720803e+01 -1.700007e+01 -1.686314e+01 -1.633656e+01 -1.584748e+01 -1.504767e+01 -1.423730e+01 -1.324113e+01 -1.219989e+01 -1.112829e+01 -1.000978e+01 -9.040672e+00 -8.072688e+00 -7.464898e+00 -6.854905e+00 -6.671527e+00 -6.065857e+00 -6.671527e+00 -6.854905e+00 -7.464898e+00 -8.072688e+00 -9.040672e+00 -1.000978e+01 -1.112829e+01 -1.219989e+01 -1.324113e+01 -1.423730e+01 -1.504767e+01 -1.584748e+01 -1.633656e+01 -1.686314e+01 -1.700007e+01 
