# vtk DataFile Version 2.0
Comment goes here
ASCII

DATASET STRUCTURED_POINTS
FIELD FieldData 1
TIME 1 1 double
0.20000000
DIMENSIONS    32   32   1

ORIGIN    0.000   0.000   0.000
SPACING   0.03125 0.03125   1.000

POINT_DATA   1024
SCALARS P double
LOOKUP_TABLE default

-1.646313e+01 -1.652967e+01 -1.661154e+01 -1.681716e+01 -1.701992e+01 -1.730752e+01 -1.754760e+01 -1.777369e+01 -1.787048e+01 -1.777366e+01 -1.747928e+01 -1.683438e+01 -1.618844e+01 -1.538775e+01 -1.501688e+01 -1.471154e+01 -1.415321e+01 -1.471154e+01 -1.501688e+01 -1.538775e+01 -1.618844e+01 -1.683438e+01 -1.747928e+01 -1.777366e+01 -1.787048e+01 -1.777369e+01 -1.754760e+01 -1.730752e+01 -1.701992e+01 -1.681716e+01 -1.661154e+01 -1.652967e+01 
-1.641910e+01 -1.647871e+01 -1.657070e+01 -1.677321e+01 -1.699146e+01 -1.728529e+01 -1.755091e+01 -1.780838e+01 -1.794667e+01 -1.794071e+01 -1.771137e+01 -1.727807e+01 -1.675697e+01 -1.638791e+01 -1.636761e+01 -1.607187e+01 -1.539379e+01 -1.607187e+01 -1.636761e+01 -1.638791e+01 -1.675697e+01 -1.727807e+01 -1.771137e+01 -1.794071e+01 -1.794667e+01 -1.780838e+01 -1.755091e+01 -1.728529e+01 -1.699146e+01 -1.677321e+01 -1.657070e+01 -1.647871e+01 
-1.642944e+01 -1.650068e+01 -1.659645e+01 -1.682933e+01 -1.706977e+01 -1.741844e+01 -1.773155e+01 -1.806138e+01 -1.826044e+01 -1.827797e+01 -1.803728e+01 -1.737510e+01 -1.666667e+01 -1.563355e+01 -1.526213e+01 -1.448841e+01 -1.364860e+01 -1.448841e+01 -1.526213e+01 -1.563355e+01 -1.666667e+01 -1.737510e+01 -1.803728e+01 -1.827797e+01 -1.826044e+01 -1.806138e+01 -1.773155e+01 -1.741844e+01 -1.706977e+01 -1.682933e+01 -1.659645e+01 -1.650068e+01 
-1.634652e+01 -1.641556e+01 -1.653433e+01 -1.678835e+01 -1.708060e+01 -1.748521e+01 -1.789599e+01 -1.832983e+01 -1.866913e+01 -1.883214e+01 -1.867761e+01 -1.815377e+01 -1.742888e+01 -1.730351e+01 -1.810744e+01 -1.618471e+01 -1.452241e+01 -1.618471e+01 -1.810744e+01 -1.730351e+01 -1.742888e+01 -1.815377e+01 -1.867761e+01 -1.883214e+01 -1.866913e+01 -1.832983e+01 -1.789599e+01 -1.748521e+01 -1.708060e+01 -1.678835e+01 -1.653433e+01 -1.641556e+01 
-1.629095e+01 -1.637393e+01 -1.651098e+01 -1.682330e+01 -1.717906e+01 -1.772251e+01 -1.829058e+01 -1.899923e+01 -1.965383e+01 -2.025686e+01 -2.045974e+01 -2.011953e+01 -1.930811e+01 -1.748305e+01 -1.550651e+01 -1.231789e+01 -9.405956e+00 -1.231789e+01 -1.550651e+01 -1.748305e+01 -1.930811e+01 -2.011953e+01 -2.045974e+01 -2.025686e+01 -1.965383e+01 -1.899923e+01 -1.829058e+01 -1.772251e+01 -1.717906e+01 -1.682330e+01 -1.651098e+01 -1.637393e+01 
-1.612502e+01 -1.620998e+01 -1.638020e+01 -1.673761e+01 -1.718105e+01 -1.784362e+01 -1.862075e+01 -1.956299e+01 -2.064860e+01 -2.164423e+01 -2.211753e+01 -2.156301e+01 -1.975894e+01 -1.887909e+01 -1.670914e+01 -1.099698e+01 -8.084428e+00 -1.099698e+01 -1.670914e+01 -1.887909e+01 -1.975894e+01 -2.156301e+01 -2.211753e+01 -2.164423e+01 -2.064860e+01 -1.956299e+01 -1.862075e+01 -1.784362e+01 -1.718105e+01 -1.673761e+01 -1.638020e+01 -1.620998e+01 
-1.592876e+01 -1.601948e+01 -1.621611e+01 -1.663612e+01 -1.715711e+01 -1.802095e+01 -1.904728e+01 -2.053137e+01 -2.251024e+01 -2.500951e+01 -2.701040e+01 -2.923128e+01 -2.675564e+01 -1.974839e+01 -1.508834e+01 -8.549724e+00 -3.907437e+00 -8.549724e+00 -1.508834e+01 -1.974839e+01 -2.675564e+01 -2.923128e+01 -2.701040e+01 -2.500951e+01 -2.251024e+01 -2.053137e+01 -1.904728e+01 -1.802095e+01 -1.715711e+01 -1.663612e+01 -1.621611e+01 -1.601948e+01 
-1.559024e+01 -1.568085e+01 -1.590693e+01 -1.637748e+01 -1.697656e+01 -1.802048e+01 -1.933362e+01 -2.137559e+01 -2.472283e+01 -2.841844e+01 -3.138785e+01 -2.842603e+01 -1.423922e+01 3.364101e+00 1.677223e+01 2.618136e+01 2.932107e+01 2.618136e+01 1.677223e+01 3.364101e+00 -1.423922e+01 -2.842603e+01 -3.138785e+01 -2.841844e+01 -2.472283e+01 -2.137559e+01 -1.933362e+01 -1.802048e+01 -1.697656e+01 -1.637748e+01 -1.590693e+01 -1.568085e+01 
-1.515723e+01 -1.522050e+01 -1.546524e+01 -1.592774e+01 -1.652218e+01 -1.766880e+01 -1.907010e+01 -2.169300e+01 -2.588960e+01 -2.929510e+01 -2.352275e+01 -7.491996e-01 2.526929e+01 3.996053e+01 4.517268e+01 4.679807e+01 4.697893e+01 4.679807e+01 4.517268e+01 3.996053e+01 2.526929e+01 -7.491996e-01 -2.352275e+01 -2.929510e+01 -2.588960e+01 -2.169300e+01 -1.907010e+01 -1.766880e+01 -1.652218e+01 -1.592774e+01 -1.546524e+01 -1.522050e+01 
-1.454681e+01 -1.458432e+01 -1.483160e+01 -1.527150e+01 -1.579608e+01 -1.700617e+01 -1.827081e+01 -2.133753e+01 -2.521406e+01 -2.031750e+01 5.952307e+00 3.583474e+01 4.686895e+01 4.707049e+01 4.705972e+01 4.657889e+01 4.649799e+01 4.657889e+01 4.705972e+01 4.707049e+01 4.686895e+01 3.583474e+01 5.952307e+00 -2.031750e+01 -2.521406e+01 -2.133753e+01 -1.827081e+01 -1.700617e+01 -1.579608e+01 -1.527150e+01 -1.483160e+01 -1.458432e+01 
-1.384990e+01 -1.379371e+01 -1.405630e+01 -1.432903e+01 -1.468171e+01 -1.571489e+01 -1.632778e+01 -1.935371e+01 -1.921296e+01 5.159370e+00 3.807309e+01 4.877984e+01 4.881291e+01 4.820207e+01 4.818054e+01 4.850647e+01 4.860341e+01 4.850647e+01 4.818054e+01 4.820207e+01 4.881291e+01 4.877984e+01 3.807309e+01 5.159370e+00 -1.921296e+01 -1.935371e+01 -1.632778e+01 -1.571489e+01 -1.468171e+01 -1.432903e+01 -1.405630e+01 -1.379371e+01 
-1.297875e+01 -1.283865e+01 -1.311722e+01 -1.323425e+01 -1.341226e+01 -1.437161e+01 -1.427197e+01 -1.811705e+01 -7.764881e+00 3.056977e+01 5.144777e+01 5.036081e+01 5.023927e+01 4.954848e+01 4.947893e+01 4.941325e+01 4.951723e+01 4.941325e+01 4.947893e+01 4.954848e+01 5.023927e+01 5.036081e+01 5.144777e+01 3.056977e+01 -7.764881e+00 -1.811705e+01 -1.427197e+01 -1.437161e+01 -1.341226e+01 -1.323425e+01 -1.311722e+01 -1.283865e+01 
-1.214992e+01 -1.184099e+01 -1.224257e+01 -1.200965e+01 -1.223448e+01 -1.261032e+01 -1.274652e+01 -1.591232e+01 5.155535e+00 4.231429e+01 5.186059e+01 5.004089e+01 5.068404e+01 5.031309e+01 5.061071e+01 5.078193e+01 5.091828e+01 5.078193e+01 5.061071e+01 5.031309e+01 5.068404e+01 5.004089e+01 5.186059e+01 4.231429e+01 5.155535e+00 -1.591232e+01 -1.274652e+01 -1.261032e+01 -1.223448e+01 -1.200965e+01 -1.224257e+01 -1.184099e+01 
-1.113575e+01 -1.068790e+01 -1.126053e+01 -1.066541e+01 -1.107932e+01 -1.052558e+01 -1.161410e+01 -1.177473e+01 1.845571e+01 4.899348e+01 5.153011e+01 5.088886e+01 5.122907e+01 5.116971e+01 5.129157e+01 5.137113e+01 5.143705e+01 5.137113e+01 5.129157e+01 5.116971e+01 5.122907e+01 5.088886e+01 5.153011e+01 4.899348e+01 1.845571e+01 -1.177473e+01 -1.161410e+01 -1.052558e+01 -1.107932e+01 -1.066541e+01 -1.126053e+01 -1.068790e+01 
-1.024981e+01 -9.662185e+00 -1.049899e+01 -9.545424e+00 -1.019859e+01 -8.536895e+00 -1.006863e+01 -4.882927e+00 3.139742e+01 5.425616e+01 5.267671e+01 5.243527e+01 5.185272e+01 5.190051e+01 5.175758e+01 5.191044e+01 5.186039e+01 5.191044e+01 5.175758e+01 5.190051e+01 5.185272e+01 5.243527e+01 5.267671e+01 5.425616e+01 3.139742e+01 -4.882927e+00 -1.006863e+01 -8.536895e+00 -1.019859e+01 -9.545424e+00 -1.049899e+01 -9.662185e+00 
-9.163268e+00 -8.520888e+00 -9.583596e+00 -8.452879e+00 -9.218882e+00 -6.505449e+00 -7.585239e+00 3.764519e+00 4.299967e+01 5.805845e+01 5.436058e+01 5.387710e+01 5.246244e+01 5.238273e+01 5.195505e+01 5.203718e+01 5.191284e+01 5.203718e+01 5.195505e+01 5.238273e+01 5.246244e+01 5.387710e+01 5.436058e+01 5.805845e+01 4.299967e+01 3.764519e+00 -7.585239e+00 -6.505449e+00 -9.218882e+00 -8.452879e+00 -9.583596e+00 -8.520888e+00 
-8.796936e+00 -8.129150e+00 -9.346241e+00 -8.161897e+00 -9.031460e+00 -5.947359e+00 -6.861660e+00 7.168353e+00 4.798641e+01 6.024735e+01 5.548843e+01 5.469073e+01 5.283387e+01 5.268059e+01 5.211443e+01 5.221763e+01 5.203912e+01 5.221763e+01 5.211443e+01 5.268059e+01 5.283387e+01 5.469073e+01 5.548843e+01 6.024735e+01 4.798641e+01 7.168353e+00 -6.861660e+00 -5.947359e+00 -9.031460e+00 -8.161897e+00 -9.346241e+00 -8.129150e+00 
-9.163268e+00 -8.520888e+00 -9.583596e+00 -8.452879e+00 -9.218882e+00 -6.505449e+00 -7.585239e+00 3.764519e+00 4.299967e+01 5.805845e+01 5.436058e+01 5.387710e+01 5.246244e+01 5.238273e+01 5.195505e+01 5.203718e+01 5.191284e+01 5.203718e+01 5.195505e+01 5.238273e+01 5.246244e+01 5.387710e+01 5.436058e+01 5.805845e+01 4.299967e+01 3.764519e+00 -7.585239e+00 -6.505449e+00 -9.218882e+00 -8.452879e+00 -9.583596e+00 -8.520888e+00 
-1.024981e+01 -9.662185e+00 -1.049899e+01 -9.545424e+00 -1.019859e+01 -8.536895e+00 -1.006863e+01 -4.882927e+00 3.139742e+01 5.425616e+01 5.267671e+01 5.243527e+01 5.185272e+01 5.190051e+01 5.175758e+01 5.191044e+01 5.186039e+01 5.191044e+01 5.175758e+01 5.190051e+01 5.185272e+01 5.243527e+01 5.267671e+01 5.425616e+01 3.139742e+01 -4.882927e+00 -1.006863e+01 -8.536895e+00 -1.019859e+01 -9.545424e+00 -1.049899e+01 -9.662185e+00 
-1.113575e+01 -1.068790e+01 -1.126053e+01 -1.066541e+01 -1.107932e+01 -1.052558e+01 -1.161410e+01 -1.177473e+01 1.845571e+01 4.899348e+01 5.153011e+01 5.088886e+01 5.122907e+01 5.116971e+01 5.129157e+01 5.137113e+01 5.143705e+01 5.137113e+01 5.129157e+01 5.116971e+01 5.122907e+01 5.088886e+01 5.153011e+01 4.899348e+01 1.845571e+01 -1.177473e+01 -1.161410e+01 -1.052558e+01 -1.107932e+01 -1.066541e+01 -1.126053e+01 -1.068790e+01 
-1.214992e+01 -1.184099e+01 -1.224257e+01 -1.200965e+01 -1.223448e+01 -1.261032e+01 -1.274652e+01 -1.591232e+01 5.155535e+00 4.231429e+01 5.186059e+01 5.004089e+01 5.068404e+01 5.031309e+01 5.061071e+01 5.078193e+01 5.091828e+01 5.078193e+01 5.061071e+01 5.031309e+01 5.068404e+01 5.004089e+01 5.186059e+01 4.231429e+01 5.155535e+00 -1.591232e+01 -1.274652e+01 -1.261032e+01 -1.223448e+01 -1.200965e+01 -1.224257e+01 -1.184099e+01 
-1.297875e+01 -1.283865e+01 -1.311722e+01 -1.323425e+01 -1.341226e+01 -1.437161e+01 -1.427197e+01 -1.811705e+01 -7.764881e+00 3.056977e+01 5.144777e+01 5.036081e+01 5.023927e+01 4.954848e+01 4.947893e+01 4.941325e+01 4.951723e+01 4.941325e+01 4.947893e+01 4.954848e+01 5.023927e+01 5.036081e+01 5.144777e+01 3.056977e+01 -7.764881e+00 -1.811705e+01 -1.427197e+01 -1.437161e+01 -1.341226e+01 -1.323425e+01 -1.311722e+01 -1.283865e+01 
-1.384990e+01 -1.379371e+01 -1.405630e+01 -1.432903e+01 -1.468171e+01 -1.571489e+01 -1.632778e+01 -1.935371e+01 -1.921296e+01 5.159370e+00 3.807309e+01 4.877984e+01 4.881291e+01 4.820207e+01 4.818054e+01 4.850647e+01 4.860341e+01 4.850647e+01 4.818054e+01 4.820207e+01 4.881291e+01 4.877984e+01 3.807309e+01 5.159370e+00 -1.921296e+01 -1.935371e+01 -1.632778e+01 -1.571489e+01 -1.468171e+01 -1.432903e+01 -1.405630e+01 -1.379371e+01 
-1.454681e+01 -1.458432e+01 -1.483160e+01 -1.527150e+01 -1.579608e+01 -1.700617e+01 -1.827081e+01 -2.133753e+01 -2.521406e+01 -2.031750e+01 5.952307e+00 3.583474e+01 4.686895e+01 4.707049e+01 4.705972e+01 4.657889e+01 4.649799e+01 4.657889e+01 4.705972e+01 4.707049e+01 4.686895e+01 3.583474e+01 5.952307e+00 -2.031750e+01 -2.521406e+01 -2.133753e+01 -1.827081e+01 -1.700617e+01 -1.579608e+01 -1.527150e+01 -1.483160e+01 -1.458432e+01 
-1.515723e+01 -1.522050e+01 -1.546524e+01 -1.592774e+01 -1.652218e+01 -1.766880e+01 -1.907010e+01 -2.169300e+01 -2.588960e+01 -2.929510e+01 -2.352275e+01 -7.491996e-01 2.526929e+01 3.996053e+01 4.517268e+01 4.679807e+01 4.697893e+01 4.679807e+01 4.517268e+01 3.996053e+01 2.526929e+01 -7.491996e-01 -2.352275e+01 -2.929510e+01 -2.588960e+01 -2.169300e+01 -1.907010e+01 -1.766880e+01 -1.652218e+01 -1.592774e+01 -1.546524e+01 -1.522050e+01 
-1.559024e+01 -1.568085e+01 -1.590693e+01 -1.637748e+01 -1.697656e+01 -1.802048e+01 -1.933362e+01 -2.137559e+01 -2.472283e+01 -2.841844e+01 -3.138785e+01 -2.842603e+01 -1.423922e+01 3.364101e+00 1.677223e+01 2.618136e+01 2.932107e+01 2.618136e+01 1.677223e+01 3.364101e+00 -1.423922e+01 -2.842603e+01 -3.138785e+01 -2.841844e+01 -2.472283e+01 -2.137559e+01 -1.933362e+01 -1.802048e+01 -1.697656e+01 -1.637748e+01 -1.590693e+01 -1.568085e+01 
-1.592876e+01 -1.601948e+01 -1.621611e+01 -1.663612e+01 -1.715711e+01 -1.802095e+01 -1.904728e+01 -2.053137e+01 -2.251024e+01 -2.500951e+01 -2.701040e+01 -2.923128e+01 -2.675564e+01 -1.974839e+01 -1.508834e+01 -8.549724e+00 -3.907437e+00 -8.549724e+00 -1.508834e+01 -1.974839e+01 -2.675564e+01 -2.923128e+01 -2.701040e+01 -2.500951e+01 -2.251024e+01 -2.053137e+01 -1.904728e+01 -1.802095e+01 -1.715711e+01 -1.663612e+01 -1.621611e+01 -1.601948e+01 
-1.612502e+01 -1.620998e+01 -1.638020e+01 -1.673761e+01 -1.718105e+01 -1.784362e+01 -1.862075e+01 -1.956299e+01 -2.064860e+01 -2.164423e+01 -2.211753e+01 -2.156301e+01 -1.975894e+01 -1.887909e+01 -1.670914e+01 -1.099698e+01 -8.084428e+00 -1.099698e+01 -1.670914e+01 -1.887909e+01 -1.975894e+01 -2.156301e+01 -2.211753e+01 -2.164423e+01 -2.064860e+01 -1.956299e+01 -1.862075e+01 -1.784362e+01 -1.718105e+01 -1.673761e+01 -1.638020e+01 -1.620998e+01 
-1.629095e+01 -1.637393e+01 -1.651098e+01 -1.682330e+01 -1.717906e+01 -1.772251e+01 -1.829058e+01 -1.899923e+01 -1.965383e+01 -2.025686e+01 -2.045974e+01 -2.011953e+01 -1.930811e+01 -1.748305e+01 -1.550651e+01 -1.231789e+01 -9.405956e+00 -1.231789e+01 -1.550651e+01 -1.748305e+01 -1.930811e+01 -2.011953e+01 -2.045974e+01 -2.025686e+01 -1.965383e+01 -1.899923e+01 -1.829058e+01 -1.772251e+01 -1.717906e+01 -1.682330e+01 -1.651098e+01 -1.637393e+01 
-1.634652e+01 -1.641556e+01 -1.653433e+01 -1.678835e+01 -1.708060e+01 -1.748521e+01 -1.789599e+01 -1.832983e+01 -1.866913e+01 -1.883214e+01 -1.867761e+01 -1.815377e+01 -1.742888e+01 -1.730351e+01 -1.810744e+01 -1.618471e+01 -1.452241e+01 -1.618471e+01 -1.810744e+01 -1.730351e+01 -1.742888e+01 -1.815377e+01 -1.867761e+01 -1.883214e+01 -1.866913e+01 -1.832983e+01 -1.789599e+01 -1.748521e+01 -1.708060e+01 -1.678835e+01 -1.653433e+01 -1.641556e+01 
-1.642944e+01 -1.650068e+01 -1.659645e+01 -1.682933e+01 -1.706977e+01 -1.741844e+01 -1.773155e+01 -1.806138e+01 -1.826044e+01 -1.827797e+01 -1.803728e+01 -1.737510e+01 -1.666667e+01 -1.563355e+01 -1.526213e+01 -1.448841e+01 -1.364860e+01 -1.448841e+01 -1.526213e+01 -1.563355e+01 -1.666667e+01 -1.737510e+01 -1.803728e+01 -1.827797e+01 -1.826044e+01 -1.806138e+01 -1.773155e+01 -1.741844e+01 -1.706977e+01 -1.682933e+01 -1.659645e+01 -1.650068e+01 
-1.641910e+01 -1.647871e+01 -1.657070e+01 -1.677321e+01 -1.699146e+01 -1.728529e+01 -1.755091e+01 -1.780838e+01 -1.794667e+01 -1.794071e+01 -1.771137e+01 -1.727807e+01 -1.675697e+01 -1.638791e+01 -1.636761e+01 -1.607187e+01 -1.539379e+01 -1.607187e+01 -1.636761e+01 -1.638791e+01 -1.675697e+01 -1.727807e+01 -1.771137e+01 -1.794071e+01 -1.794667e+01 -1.780838e+01 -1.755091e+01 -1.728529e+01 -1.699146e+01 -1.677321e+01 -1.657070e+01 -1.647871e+01 
