# vtk DataFile Version 2.0
Comment goes here
ASCII

DATASET STRUCTURED_POINTS
FIELD FieldData 1
TIME 1 1 double
0.12000000
DIMENSIONS    32   32   1

ORIGIN    0.000   0.000   0.000
SPACING   0.03125 0.03125   1.000

POINT_DATA   1024
SCALARS P double
LOOKUP_TABLE default

-1.764267e+01 -1.757210e+01 -1.761162e+01 -1.749306e+01 -1.744521e+01 -1.718850e+01 -1.691368e+01 -1.635828e+01 -1.566403e+01 -1.466548e+01 -1.347082e+01 -1.214159e+01 -1.073549e+01 -9.514929e+00 -8.372504e+00 -7.704981e+00 -7.302941e+00 -7.704981e+00 -8.372504e+00 -9.514929e+00 -1.073549e+01 -1.214159e+01 -1.347082e+01 -1.466548e+01 -1.566403e+01 -1.635828e+01 -1.691368e+01 -1.718850e+01 -1.744521e+01 -1.749306e+01 -1.761162e+01 -1.757210e+01 
-1.770072e+01 -1.759286e+01 -1.768034e+01 -1.754063e+01 -1.754746e+01 -1.729048e+01 -1.707150e+01 -1.652911e+01 -1.587770e+01 -1.487025e+01 -1.367720e+01 -1.228025e+01 -1.080692e+01 -9.469407e+00 -8.253649e+00 -7.493220e+00 -7.099815e+00 -7.493220e+00 -8.253649e+00 -9.469407e+00 -1.080692e+01 -1.228025e+01 -1.367720e+01 -1.487025e+01 -1.587770e+01 -1.652911e+01 -1.707150e+01 -1.729048e+01 -1.754746e+01 -1.754063e+01 -1.768034e+01 -1.759286e+01 
-1.779821e+01 -1.773556e+01 -1.780201e+01 -1.772412e+01 -1.773796e+01 -1.754596e+01 -1.734624e+01 -1.683633e+01 -1.615874e+01 -1.508962e+01 -1.375772e+01 -1.223728e+01 -1.064066e+01 -9.258096e+00 -7.992837e+00 -7.261466e+00 -6.825162e+00 -7.261466e+00 -7.992837e+00 -9.258096e+00 -1.064066e+01 -1.223728e+01 -1.375772e+01 -1.508962e+01 -1.615874e+01 -1.683633e+01 -1.734624e+01 -1.754596e+01 -1.773796e+01 -1.772412e+01 -1.780201e+01 -1.773556e+01 
-1.799146e+01 -1.789530e+01 -1.804129e+01 -1.798098e+01 -1.811920e+01 -1.800207e+01 -1.795070e+01 -1.753670e+01 -1.695057e+01 -1.584181e+01 -1.440346e+01 -1.261333e+01 -1.068997e+01 -8.959936e+00 -7.437120e+00 -6.505799e+00 -6.021318e+00 -6.505799e+00 -7.437120e+00 -8.959936e+00 -1.068997e+01 -1.261333e+01 -1.440346e+01 -1.584181e+01 -1.695057e+01 -1.753670e+01 -1.795070e+01 -1.800207e+01 -1.811920e+01 -1.798098e+01 -1.804129e+01 -1.789530e+01 
-1.819852e+01 -1.816391e+01 -1.831711e+01 -1.837938e+01 -1.861248e+01 -1.867147e+01 -1.878557e+01 -1.852286e+01 -1.800394e+01 -1.673793e+01 -1.489979e+01 -1.264978e+01 -1.034986e+01 -8.435054e+00 -6.822269e+00 -5.868578e+00 -5.223701e+00 -5.868578e+00 -6.822269e+00 -8.435054e+00 -1.034986e+01 -1.264978e+01 -1.489979e+01 -1.673793e+01 -1.800394e+01 -1.852286e+01 -1.878557e+01 -1.867147e+01 -1.861248e+01 -1.837938e+01 -1.831711e+01 -1.816391e+01 
-1.843528e+01 -1.837003e+01 -1.864257e+01 -1.876954e+01 -1.923541e+01 -1.950140e+01 -1.996477e+01 -2.006179e+01 -1.986216e+01 -1.865657e+01 -1.664885e+01 -1.379297e+01 -1.065064e+01 -7.978040e+00 -5.738155e+00 -4.125282e+00 -3.184008e+00 -4.125282e+00 -5.738155e+00 -7.978040e+00 -1.065064e+01 -1.379297e+01 -1.664885e+01 -1.865657e+01 -1.986216e+01 -2.006179e+01 -1.996477e+01 -1.950140e+01 -1.923541e+01 -1.876954e+01 -1.864257e+01 -1.837003e+01 
-1.860883e+01 -1.863252e+01 -1.893506e+01 -1.927369e+01 -1.997242e+01 -2.064616e+01 -2.166057e+01 -2.239342e+01 -2.281779e+01 -2.146601e+01 -1.841155e+01 -1.422795e+01 -1.026307e+01 -7.436823e+00 -5.309588e+00 -3.256024e+00 -1.616434e+00 -3.256024e+00 -5.309588e+00 -7.436823e+00 -1.026307e+01 -1.422795e+01 -1.841155e+01 -2.146601e+01 -2.281779e+01 -2.239342e+01 -2.166057e+01 -2.064616e+01 -1.997242e+01 -1.927369e+01 -1.893506e+01 -1.863252e+01 
-1.869090e+01 -1.868850e+01 -1.914312e+01 -1.958506e+01 -2.067658e+01 -2.176495e+01 -2.363090e+01 -2.565459e+01 -2.750221e+01 -2.697113e+01 -2.387431e+01 -1.836098e+01 -1.194795e+01 -7.265430e+00 -3.691973e+00 5.555090e-01 3.390763e+00 5.555090e-01 -3.691973e+00 -7.265430e+00 -1.194795e+01 -1.836098e+01 -2.387431e+01 -2.697113e+01 -2.750221e+01 -2.565459e+01 -2.363090e+01 -2.176495e+01 -2.067658e+01 -1.958506e+01 -1.914312e+01 -1.868850e+01 
-1.855635e+01 -1.867277e+01 -1.912769e+01 -1.985003e+01 -2.129431e+01 -2.317835e+01 -2.676094e+01 -3.164057e+01 -3.635982e+01 -3.578225e+01 -2.693229e+01 -1.032784e+01 3.845811e+00 1.051360e+01 1.607246e+01 2.129987e+01 2.347004e+01 2.129987e+01 1.607246e+01 1.051360e+01 3.845811e+00 -1.032784e+01 -2.693229e+01 -3.578225e+01 -3.635982e+01 -3.164057e+01 -2.676094e+01 -2.317835e+01 -2.129431e+01 -1.985003e+01 -1.912769e+01 -1.867277e+01 
-1.816872e+01 -1.827040e+01 -1.883481e+01 -1.960861e+01 -2.158468e+01 -2.405488e+01 -2.977934e+01 -3.746000e+01 -4.168993e+01 -2.924579e+01 1.165807e+00 2.815207e+01 3.843432e+01 3.918520e+01 4.071112e+01 4.203118e+01 4.198499e+01 4.203118e+01 4.071112e+01 3.918520e+01 3.843432e+01 2.815207e+01 1.165807e+00 -2.924579e+01 -4.168993e+01 -3.746000e+01 -2.977934e+01 -2.405488e+01 -2.158468e+01 -1.960861e+01 -1.883481e+01 -1.827040e+01 
-1.743900e+01 -1.765579e+01 -1.805624e+01 -1.899905e+01 -2.092506e+01 -2.377986e+01 -3.088554e+01 -3.813583e+01 -2.837070e+01 8.706196e+00 3.756610e+01 4.742483e+01 4.757566e+01 4.503324e+01 4.489421e+01 4.449598e+01 4.441317e+01 4.449598e+01 4.489421e+01 4.503324e+01 4.757566e+01 4.742483e+01 3.756610e+01 8.706196e+00 -2.837070e+01 -3.813583e+01 -3.088554e+01 -2.377986e+01 -2.092506e+01 -1.899905e+01 -1.805624e+01 -1.765579e+01 
-1.638664e+01 -1.664197e+01 -1.688560e+01 -1.757632e+01 -1.935792e+01 -2.090938e+01 -2.850037e+01 -2.484351e+01 8.140714e+00 4.240797e+01 4.923402e+01 4.868777e+01 4.694403e+01 4.535650e+01 4.579733e+01 4.565792e+01 4.603271e+01 4.565792e+01 4.579733e+01 4.535650e+01 4.694403e+01 4.868777e+01 4.923402e+01 4.240797e+01 8.140714e+00 -2.484351e+01 -2.850037e+01 -2.090938e+01 -1.935792e+01 -1.757632e+01 -1.688560e+01 -1.664197e+01 
-1.535080e+01 -1.564146e+01 -1.565516e+01 -1.621657e+01 -1.677571e+01 -1.763354e+01 -1.945789e+01 4.120193e+00 4.648729e+01 5.646911e+01 5.259248e+01 5.114254e+01 5.018580e+01 4.875073e+01 4.861029e+01 4.781877e+01 4.807958e+01 4.781877e+01 4.861029e+01 4.875073e+01 5.018580e+01 5.114254e+01 5.259248e+01 5.646911e+01 4.648729e+01 4.120193e+00 -1.945789e+01 -1.763354e+01 -1.677571e+01 -1.621657e+01 -1.565516e+01 -1.564146e+01 
-1.434185e+01 -1.502297e+01 -1.437478e+01 -1.577089e+01 -1.380057e+01 -1.561469e+01 -1.153700e+01 3.068348e+01 6.427927e+01 5.978903e+01 5.612105e+01 5.277326e+01 5.151995e+01 4.968790e+01 4.950909e+01 4.856292e+01 4.896792e+01 4.856292e+01 4.950909e+01 4.968790e+01 5.151995e+01 5.277326e+01 5.612105e+01 5.978903e+01 6.427927e+01 3.068348e+01 -1.153700e+01 -1.561469e+01 -1.380057e+01 -1.577089e+01 -1.437478e+01 -1.502297e+01 
-1.413135e+01 -1.467431e+01 -1.458411e+01 -1.505308e+01 -1.241115e+01 -1.266460e+01 -6.767284e+00 4.017330e+01 6.488700e+01 5.853106e+01 5.661612e+01 5.361682e+01 5.323747e+01 5.143407e+01 5.129907e+01 5.017218e+01 5.058955e+01 5.017218e+01 5.129907e+01 5.143407e+01 5.323747e+01 5.361682e+01 5.661612e+01 5.853106e+01 6.488700e+01 4.017330e+01 -6.767284e+00 -1.266460e+01 -1.241115e+01 -1.505308e+01 -1.458411e+01 -1.467431e+01 
-1.394107e+01 -1.437861e+01 -1.402377e+01 -1.353226e+01 -1.075525e+01 -1.161288e+01 -5.362403e+00 3.837540e+01 5.935717e+01 5.546400e+01 5.634927e+01 5.335476e+01 5.351283e+01 5.151044e+01 5.152814e+01 5.025623e+01 5.078336e+01 5.025623e+01 5.152814e+01 5.151044e+01 5.351283e+01 5.335476e+01 5.634927e+01 5.546400e+01 5.935717e+01 3.837540e+01 -5.362403e+00 -1.161288e+01 -1.075525e+01 -1.353226e+01 -1.402377e+01 -1.437861e+01 
-1.323243e+01 -1.383933e+01 -1.320621e+01 -1.270747e+01 -9.500903e+00 -1.157982e+01 -6.662683e+00 3.625151e+01 5.752770e+01 5.475423e+01 5.629751e+01 5.373374e+01 5.413912e+01 5.227402e+01 5.230838e+01 5.105873e+01 5.155651e+01 5.105873e+01 5.230838e+01 5.227402e+01 5.413912e+01 5.373374e+01 5.629751e+01 5.475423e+01 5.752770e+01 3.625151e+01 -6.662683e+00 -1.157982e+01 -9.500903e+00 -1.270747e+01 -1.320621e+01 -1.383933e+01 
-1.394107e+01 -1.437861e+01 -1.402377e+01 -1.353226e+01 -1.075525e+01 -1.161288e+01 -5.362403e+00 3.837540e+01 5.935717e+01 5.546400e+01 5.634927e+01 5.335476e+01 5.351283e+01 5.151044e+01 5.152814e+01 5.025623e+01 5.078336e+01 5.025623e+01 5.152814e+01 5.151044e+01 5.351283e+01 5.335476e+01 5.634927e+01 5.546400e+01 5.935717e+01 3.837540e+01 -5.362403e+00 -1.161288e+01 -1.075525e+01 -1.353226e+01 -1.402377e+01 -1.437861e+01 
-1.413135e+01 -1.467431e+01 -1.458411e+01 -1.505308e+01 -1.241115e+01 -1.266460e+01 -6.767284e+00 4.017330e+01 6.488700e+01 5.853106e+01 5.661612e+01 5.361682e+01 5.323747e+01 5.143407e+01 5.129907e+01 5.017218e+01 5.058955e+01 5.017218e+01 5.129907e+01 5.143407e+01 5.323747e+01 5.361682e+01 5.661612e+01 5.853106e+01 6.488700e+01 4.017330e+01 -6.767284e+00 -1.266460e+01 -1.241115e+01 -1.505308e+01 -1.458411e+01 -1.467431e+01 
-1.434185e+01 -1.502297e+01 -1.437478e+01 -1.577089e+01 -1.380057e+01 -1.561469e+01 -1.153700e+01 3.068348e+01 6.427927e+01 5.978903e+01 5.612105e+01 5.277326e+01 5.151995e+01 4.968790e+01 4.950909e+01 4.856292e+01 4.896792e+01 4.856292e+01 4.950909e+01 4.968790e+01 5.151995e+01 5.277326e+01 5.612105e+01 5.978903e+01 6.427927e+01 3.068348e+01 -1.153700e+01 -1.561469e+01 -1.380057e+01 -1.577089e+01 -1.437478e+01 -1.502297e+01 
-1.535080e+01 -1.564146e+01 -1.565516e+01 -1.621657e+01 -1.677571e+01 -1.763354e+01 -1.945789e+01 4.120193e+00 4.648729e+01 5.646911e+01 5.259248e+01 5.114254e+01 5.018580e+01 4.875073e+01 4.861029e+01 4.781877e+01 4.807958e+01 4.781877e+01 4.861029e+01 4.875073e+01 5.018580e+01 5.114254e+01 5.259248e+01 5.646911e+01 4.648729e+01 4.120193e+00 -1.945789e+01 -1.763354e+01 -1.677571e+01 -1.621657e+01 -1.565516e+01 -1.564146e+01 
-1.638664e+01 -1.664197e+01 -1.688560e+01 -1.757632e+01 -1.935792e+01 -2.090938e+01 -2.850037e+01 -2.484351e+01 8.140714e+00 4.240797e+01 4.923402e+01 4.868777e+01 4.694403e+01 4.535650e+01 4.579733e+01 4.565792e+01 4.603271e+01 4.565792e+01 4.579733e+01 4.535650e+01 4.694403e+01 4.868777e+01 4.923402e+01 4.240797e+01 8.140714e+00 -2.484351e+01 -2.850037e+01 -2.090938e+01 -1.935792e+01 -1.757632e+01 -1.688560e+01 -1.664197e+01 
-1.743900e+01 -1.765579e+01 -1.805624e+01 -1.899905e+01 -2.092506e+01 -2.377986e+01 -3.088554e+01 -3.813583e+01 -2.837070e+01 8.706196e+00 3.756610e+01 4.742483e+01 4.757566e+01 4.503324e+01 4.489421e+01 4.449598e+01 4.441317e+01 4.449598e+01 4.489421e+01 4.503324e+01 4.757566e+01 4.742483e+01 3.756610e+01 8.706196e+00 -2.837070e+01 -3.813583e+01 -3.088554e+01 -2.377986e+01 -2.092506e+01 -1.899905e+01 -1.805624e+01 -1.765579e+01 
-1.816872e+01 -1.827040e+01 -1.883481e+01 -1.960861e+01 -2.158468e+01 -2.405488e+01 -2.977934e+01 -3.746000e+01 -4.168993e+01 -2.924579e+01 1.165807e+00 2.815207e+01 3.843432e+01 3.918520e+01 4.071112e+01 4.203118e+01 4.198499e+01 4.203118e+01 4.071112e+01 3.918520e+01 3.843432e+01 2.815207e+01 1.165807e+00 -2.924579e+01 -4.168993e+01 -3.746000e+01 -2.977934e+01 -2.405488e+01 -2.158468e+01 -1.960861e+01 -1.883481e+01 -1.827040e+01 
-1.855635e+01 -1.867277e+01 -1.912769e+01 -1.985003e+01 -2.129431e+01 -2.317835e+01 -2.676094e+01 -3.164057e+01 -3.635982e+01 -3.578225e+01 -2.693229e+01 -1.032784e+01 3.845811e+00 1.051360e+01 1.607246e+01 2.129987e+01 2.347004e+01 2.129987e+01 1.607246e+01 1.051360e+01 3.845811e+00 -1.032784e+01 -2.693229e+01 -3.578225e+01 -3.635982e+01 -3.164057e+01 -2.676094e+01 -2.317835e+01 -2.129431e+01 -1.985003e+01 -1.912769e+01 -1.867277e+01 
-1.869090e+01 -1.868850e+01 -1.914312e+01 -1.958506e+01 -2.067658e+01 -2.176495e+01 -2.363090e+01 -2.565459e+01 -2.750221e+01 -2.697113e+01 -2.387431e+01 -1.836098e+01 -1.194795e+01 -7.265430e+00 -3.691973e+00 5.555090e-01 3.390763e+00 5.555090e-01 -3.691973e+00 -7.265430e+00 -1.194795e+01 -1.836098e+01 -2.387431e+01 -2.697113e+01 -2.750221e+01 -2.565459e+01 -2.363090e+01 -2.176495e+01 -2.067658e+01 -1.958506e+01 -1.914312e+01 -1.868850e+01 
-1.860883e+01 -1.863252e+01 -1.893506e+01 -1.927369e+01 -1.997242e+01 -2.064616e+01 -2.166057e+01 -2.239342e+01 -2.281779e+01 -2.146601e+01 -1.841155e+01 -1.422795e+01 -1.026307e+01 -7.436823e+00 -5.309588e+00 -3.256024e+00 -1.616434e+00 -3.256024e+00 -5.309588e+00 -7.436823e+00 -1.026307e+01 -1.422795e+01 -1.841155e+01 -2.146601e+01 -2.281779e+01 -2.239342e+01 -2.166057e+01 -2.064616e+01 -1.997242e+01 -1.927369e+01 -1.893506e+01 -1.863252e+01 
-1.843528e+01 -1.837003e+01 -1.864257e+01 -1.876954e+01 -1.923541e+01 -1.950140e+01 -1.996477e+01 -2.006179e+01 -1.986216e+01 -1.865657e+01 -1.664885e+01 -1.379297e+01 -1.065064e+01 -7.978040e+00 -5.738155e+00 -4.125282e+00 -3.184008e+00 -4.125282e+00 -5.738155e+00 -7.978040e+00 -1.065064e+01 -1.379297e+01 -1.664885e+01 -1.865657e+01 -1.986216e+01 -2.006179e+01 -1.996477e+01 -1.950140e+01 -1.923541e+01 -1.876954e+01 -1.864257e+01 -1.837003e+01 
-1.819852e+01 -1.816391e+01 -1.831711e+01 -1.837938e+01 -1.861248e+01 -1.867147e+01 -1.878557e+01 -1.852286e+01 -1.800394e+01 -1.673793e+01 -1.489979e+01 -1.264978e+01 -1.034986e+01 -8.435054e+00 -6.822269e+00 -5.868578e+00 -5.223701e+00 -5.868578e+00 -6.822269e+00 -8.435054e+00 -1.034986e+01 -1.264978e+01 -1.489979e+01 -1.673793e+01 -1.800394e+01 -1.852286e+01 -1.878557e+01 -1.867147e+01 -1.861248e+01 -1.837938e+01 -1.831711e+01 -1.816391e+01 
-1.799146e+01 -1.789530e+01 -1.804129e+01 -1.798098e+01 -1.811920e+01 -1.800207e+01 -1.795070e+01 -1.753670e+01 -1.695057e+01 -1.584181e+01 -1.440346e+01 -1.261333e+01 -1.068997e+01 -8.959936e+00 -7.437120e+00 -6.505799e+00 -6.021318e+00 -6.505799e+00 -7.437120e+00 -8.959936e+00 -1.068997e+01 -1.261333e+01 -1.440346e+01 -1.584181e+01 -1.695057e+01 -1.753670e+01 -1.795070e+01 -1.800207e+01 -1.811920e+01 -1.798098e+01 -1.804129e+01 -1.789530e+01 
-1.779821e+01 -1.773556e+01 -1.780201e+01 -1.772412e+01 -1.773796e+01 -1.754596e+01 -1.734624e+01 -1.683633e+01 -1.615874e+01 -1.508962e+01 -1.375772e+01 -1.223728e+01 -1.064066e+01 -9.258096e+00 -7.992837e+00 -7.261466e+00 -6.825162e+00 -7.261466e+00 -7.992837e+00 -9.258096e+00 -1.064066e+01 -1.223728e+01 -1.375772e+01 -1.508962e+01 -1.615874e+01 -1.683633e+01 -1.734624e+01 -1.754596e+01 -1.773796e+01 -1.772412e+01 -1.780201e+01 -1.773556e+01 
-1.770072e+01 -1.759286e+01 -1.768034e+01 -1.754063e+01 -1.754746e+01 -1.729048e+01 -1.707150e+01 -1.652911e+01 -1.587770e+01 -1.487025e+01 -1.367720e+01 -1.228025e+01 -1.080692e+01 -9.469407e+00 -8.253649e+00 -7.493220e+00 -7.099815e+00 -7.493220e+00 -8.253649e+00 -9.469407e+00 -1.080692e+01 -1.228025e+01 -1.367720e+01 -1.487025e+01 -1.587770e+01 -1.652911e+01 -1.707150e+01 -1.729048e+01 -1.754746e+01 -1.754063e+01 -1.768034e+01 -1.759286e+01 
