# vtk DataFile Version 2.0
Comment goes here
ASCII

DATASET STRUCTURED_POINTS
FIELD FieldData 1
TIME 1 1 double
1.34000000
DIMENSIONS    32   32   1

ORIGIN    0.000   0.000   0.000
SPACING   0.03125 0.03125   1.000

POINT_DATA   1024
SCALARS P double
LOOKUP_TABLE default

-8.520785e+00 -8.420483e+00 -8.483225e+00 -8.350856e+00 -8.372783e+00 -8.232187e+00 -8.236388e+00 -8.143575e+00 -8.152547e+00 -8.130689e+00 -8.086164e+00 -8.059602e+00 -7.828679e+00 -7.688859e+00 -7.240367e+00 -7.074052e+00 -6.796374e+00 -7.074052e+00 -7.240367e+00 -7.688859e+00 -7.828679e+00 -8.059602e+00 -8.086164e+00 -8.130689e+00 -8.152547e+00 -8.143575e+00 -8.236388e+00 -8.232187e+00 -8.372783e+00 -8.350856e+00 -8.483225e+00 -8.420483e+00 
-8.496692e+00 -8.428407e+00 -8.455911e+00 -8.354369e+00 -8.337103e+00 -8.227887e+00 -8.189208e+00 -8.126323e+00 -8.089638e+00 -8.087543e+00 -7.996262e+00 -7.967301e+00 -7.690857e+00 -7.528941e+00 -7.042226e+00 -6.858443e+00 -6.562013e+00 -6.858443e+00 -7.042226e+00 -7.528941e+00 -7.690857e+00 -7.967301e+00 -7.996262e+00 -8.087543e+00 -8.089638e+00 -8.126323e+00 -8.189208e+00 -8.227887e+00 -8.337103e+00 -8.354369e+00 -8.455911e+00 -8.428407e+00 
-8.558750e+00 -8.456226e+00 -8.524585e+00 -8.392794e+00 -8.426913e+00 -8.290510e+00 -8.314837e+00 -8.227795e+00 -8.259991e+00 -8.243036e+00 -8.219802e+00 -8.209389e+00 -8.005943e+00 -7.921552e+00 -7.502225e+00 -7.365751e+00 -7.079921e+00 -7.365751e+00 -7.502225e+00 -7.921552e+00 -8.005943e+00 -8.209389e+00 -8.219802e+00 -8.243036e+00 -8.259991e+00 -8.227795e+00 -8.314837e+00 -8.290510e+00 -8.426913e+00 -8.392794e+00 -8.524585e+00 -8.456226e+00 
-8.581582e+00 -8.507830e+00 -8.549998e+00 -8.450732e+00 -8.458401e+00 -8.356961e+00 -8.349288e+00 -8.292253e+00 -8.279902e+00 -8.273885e+00 -8.195439e+00 -8.166178e+00 -7.912031e+00 -7.804602e+00 -7.353659e+00 -7.217059e+00 -6.899825e+00 -7.217059e+00 -7.353659e+00 -7.804602e+00 -7.912031e+00 -8.166178e+00 -8.195439e+00 -8.273885e+00 -8.279902e+00 -8.292253e+00 -8.349288e+00 -8.356961e+00 -8.458401e+00 -8.450732e+00 -8.549998e+00 -8.507830e+00 
-8.678259e+00 -8.571785e+00 -8.659242e+00 -8.532414e+00 -8.598117e+00 -8.462457e+00 -8.521326e+00 -8.413392e+00 -8.465982e+00 -8.398568e+00 -8.378200e+00 -8.331165e+00 -8.149958e+00 -8.172797e+00 -7.776482e+00 -7.713205e+00 -7.392415e+00 -7.713205e+00 -7.776482e+00 -8.172797e+00 -8.149958e+00 -8.331165e+00 -8.378200e+00 -8.398568e+00 -8.465982e+00 -8.413392e+00 -8.521326e+00 -8.462457e+00 -8.598117e+00 -8.532414e+00 -8.659242e+00 -8.571785e+00 
-8.768441e+00 -8.687113e+00 -8.763545e+00 -8.672908e+00 -8.725105e+00 -8.621867e+00 -8.642570e+00 -8.547977e+00 -8.517565e+00 -8.424969e+00 -8.285351e+00 -8.138005e+00 -7.841934e+00 -7.705026e+00 -7.205438e+00 -7.146147e+00 -6.749303e+00 -7.146147e+00 -7.205438e+00 -7.705026e+00 -7.841934e+00 -8.138005e+00 -8.285351e+00 -8.424969e+00 -8.517565e+00 -8.547977e+00 -8.642570e+00 -8.621867e+00 -8.725105e+00 -8.672908e+00 -8.763545e+00 -8.687113e+00 
-8.917517e+00 -8.810800e+00 -8.933625e+00 -8.822425e+00 -8.930739e+00 -8.778740e+00 -8.856365e+00 -8.659886e+00 -8.680762e+00 -8.433212e+00 -8.337674e+00 -8.067398e+00 -7.911631e+00 -8.046699e+00 -7.452377e+00 -7.398032e+00 -6.957473e+00 -7.398032e+00 -7.452377e+00 -8.046699e+00 -7.911631e+00 -8.067398e+00 -8.337674e+00 -8.433212e+00 -8.680762e+00 -8.659886e+00 -8.856365e+00 -8.778740e+00 -8.930739e+00 -8.822425e+00 -8.933625e+00 -8.810800e+00 
-9.102090e+00 -9.013930e+00 -9.146752e+00 -9.072467e+00 -9.186883e+00 -9.063637e+00 -9.109990e+00 -8.930200e+00 -8.839400e+00 -8.588888e+00 -8.270201e+00 -7.831610e+00 -7.453650e+00 -6.910809e+00 -6.043012e+00 -6.190521e+00 -5.648727e+00 -6.190521e+00 -6.043012e+00 -6.910809e+00 -7.453650e+00 -7.831610e+00 -8.270201e+00 -8.588888e+00 -8.839400e+00 -8.930200e+00 -9.109990e+00 -9.063637e+00 -9.186883e+00 -9.072467e+00 -9.146752e+00 -9.013930e+00 
-9.310650e+00 -9.211664e+00 -9.382862e+00 -9.302552e+00 -9.461116e+00 -9.287439e+00 -9.388295e+00 -9.070321e+00 -9.052993e+00 -8.536036e+00 -8.233106e+00 -7.266937e+00 -7.435140e+00 -7.906433e+00 -6.491170e+00 -6.266541e+00 -5.957413e+00 -6.266541e+00 -6.491170e+00 -7.906433e+00 -7.435140e+00 -7.266937e+00 -8.233106e+00 -8.536036e+00 -9.052993e+00 -9.070321e+00 -9.388295e+00 -9.287439e+00 -9.461116e+00 -9.302552e+00 -9.382862e+00 -9.211664e+00 
-9.556845e+00 -9.466221e+00 -9.670525e+00 -9.618235e+00 -9.818625e+00 -9.664851e+00 -9.805532e+00 -9.548366e+00 -9.508837e+00 -9.317216e+00 -8.600546e+00 -8.005719e+00 -5.929472e+00 -5.143368e-01 8.171261e+00 1.233827e+01 1.290281e+01 1.233827e+01 8.171261e+00 -5.143368e-01 -5.929472e+00 -8.005719e+00 -8.600546e+00 -9.317216e+00 -9.508837e+00 -9.548366e+00 -9.805532e+00 -9.664851e+00 -9.818625e+00 -9.618235e+00 -9.670525e+00 -9.466221e+00 
-9.751600e+00 -9.674855e+00 -9.897696e+00 -9.871575e+00 -1.009212e+01 -9.935194e+00 -1.015261e+01 -9.809642e+00 -1.002832e+01 -9.557978e+00 -7.764238e+00 2.188398e-01 1.582932e+01 2.852788e+01 3.854085e+01 4.340899e+01 4.404567e+01 4.340899e+01 3.854085e+01 2.852788e+01 1.582932e+01 2.188398e-01 -7.764238e+00 -9.557978e+00 -1.002832e+01 -9.809642e+00 -1.015261e+01 -9.935194e+00 -1.009212e+01 -9.871575e+00 -9.897696e+00 -9.674855e+00 
-9.915879e+00 -9.847377e+00 -1.011874e+01 -1.011146e+01 -1.042192e+01 -1.023633e+01 -1.066598e+01 -1.022008e+01 -1.098134e+01 -9.621762e+00 1.051851e+00 2.219033e+01 4.014724e+01 4.542755e+01 4.631933e+01 4.683803e+01 4.709997e+01 4.683803e+01 4.631933e+01 4.542755e+01 4.014724e+01 2.219033e+01 1.051851e+00 -9.621762e+00 -1.098134e+01 -1.022008e+01 -1.066598e+01 -1.023633e+01 -1.042192e+01 -1.011146e+01 -1.011874e+01 -9.847377e+00 
-9.945514e+00 -9.926918e+00 -1.018892e+01 -1.026533e+01 -1.053434e+01 -1.044397e+01 -1.089877e+01 -1.048969e+01 -1.265869e+01 -4.323355e+00 2.142361e+01 4.186517e+01 4.620220e+01 4.594122e+01 4.531603e+01 4.528089e+01 4.545546e+01 4.528089e+01 4.531603e+01 4.594122e+01 4.620220e+01 4.186517e+01 2.142361e+01 -4.323355e+00 -1.265869e+01 -1.048969e+01 -1.089877e+01 -1.044397e+01 -1.053434e+01 -1.026533e+01 -1.018892e+01 -9.926918e+00 
-9.839976e+00 -9.867459e+00 -1.014676e+01 -1.028772e+01 -1.061676e+01 -1.049558e+01 -1.118905e+01 -1.040177e+01 -1.321260e+01 8.059121e+00 3.897552e+01 4.690394e+01 4.651916e+01 4.644349e+01 4.670310e+01 4.660571e+01 4.690406e+01 4.660571e+01 4.670310e+01 4.644349e+01 4.651916e+01 4.690394e+01 3.897552e+01 8.059121e+00 -1.321260e+01 -1.040177e+01 -1.118905e+01 -1.049558e+01 -1.061676e+01 -1.028772e+01 -1.014676e+01 -9.867459e+00 
-9.624236e+00 -9.726777e+00 -9.952671e+00 -1.024628e+01 -1.034067e+01 -1.054729e+01 -1.020604e+01 -1.054560e+01 -6.430481e+00 2.260174e+01 4.674019e+01 4.649987e+01 4.682101e+01 4.613113e+01 4.624587e+01 4.584065e+01 4.611064e+01 4.584065e+01 4.624587e+01 4.613113e+01 4.682101e+01 4.649987e+01 4.674019e+01 2.260174e+01 -6.430481e+00 -1.054560e+01 -1.020604e+01 -1.054729e+01 -1.034067e+01 -1.024628e+01 -9.952671e+00 -9.726777e+00 
-9.299433e+00 -9.497153e+00 -9.606495e+00 -1.007756e+01 -9.817556e+00 -1.043965e+01 -8.933843e+00 -1.055029e+01 -1.213705e+00 3.303820e+01 4.923164e+01 4.681941e+01 4.762742e+01 4.667068e+01 4.716094e+01 4.664921e+01 4.707823e+01 4.664921e+01 4.716094e+01 4.667068e+01 4.762742e+01 4.681941e+01 4.923164e+01 3.303820e+01 -1.213705e+00 -1.055029e+01 -8.933843e+00 -1.043965e+01 -9.817556e+00 -1.007756e+01 -9.606495e+00 -9.497153e+00 
-9.230164e+00 -9.424104e+00 -9.547143e+00 -1.000567e+01 -9.774544e+00 -1.029623e+01 -8.970167e+00 -1.023815e+01 -2.023615e+00 3.465033e+01 5.066046e+01 4.638101e+01 4.774558e+01 4.624532e+01 4.669598e+01 4.601985e+01 4.641029e+01 4.601985e+01 4.669598e+01 4.624532e+01 4.774558e+01 4.638101e+01 5.066046e+01 3.465033e+01 -2.023615e+00 -1.023815e+01 -8.970167e+00 -1.029623e+01 -9.774544e+00 -1.000567e+01 -9.547143e+00 -9.424104e+00 
-9.299433e+00 -9.497153e+00 -9.606495e+00 -1.007756e+01 -9.817556e+00 -1.043965e+01 -8.933843e+00 -1.055029e+01 -1.213705e+00 3.303820e+01 4.923164e+01 4.681941e+01 4.762742e+01 4.667068e+01 4.716094e+01 4.664921e+01 4.707823e+01 4.664921e+01 4.716094e+01 4.667068e+01 4.762742e+01 4.681941e+01 4.923164e+01 3.303820e+01 -1.213705e+00 -1.055029e+01 -8.933843e+00 -1.043965e+01 -9.817556e+00 -1.007756e+01 -9.606495e+00 -9.497153e+00 
-9.624236e+00 -9.726777e+00 -9.952671e+00 -1.024628e+01 -1.034067e+01 -1.054729e+01 -1.020604e+01 -1.054560e+01 -6.430481e+00 2.260174e+01 4.674019e+01 4.649987e+01 4.682101e+01 4.613113e+01 4.624587e+01 4.584065e+01 4.611064e+01 4.584065e+01 4.624587e+01 4.613113e+01 4.682101e+01 4.649987e+01 4.674019e+01 2.260174e+01 -6.430481e+00 -1.054560e+01 -1.020604e+01 -1.054729e+01 -1.034067e+01 -1.024628e+01 -9.952671e+00 -9.726777e+00 
-9.839976e+00 -9.867459e+00 -1.014676e+01 -1.028772e+01 -1.061676e+01 -1.049558e+01 -1.118905e+01 -1.040177e+01 -1.321260e+01 8.059121e+00 3.897552e+01 4.690394e+01 4.651916e+01 4.644349e+01 4.670310e+01 4.660571e+01 4.690406e+01 4.660571e+01 4.670310e+01 4.644349e+01 4.651916e+01 4.690394e+01 3.897552e+01 8.059121e+00 -1.321260e+01 -1.040177e+01 -1.118905e+01 -1.049558e+01 -1.061676e+01 -1.028772e+01 -1.014676e+01 -9.867459e+00 
-9.945514e+00 -9.926918e+00 -1.018892e+01 -1.026533e+01 -1.053434e+01 -1.044397e+01 -1.089877e+01 -1.048969e+01 -1.265869e+01 -4.323355e+00 2.142361e+01 4.186517e+01 4.620220e+01 4.594122e+01 4.531603e+01 4.528089e+01 4.545546e+01 4.528089e+01 4.531603e+01 4.594122e+01 4.620220e+01 4.186517e+01 2.142361e+01 -4.323355e+00 -1.265869e+01 -1.048969e+01 -1.089877e+01 -1.044397e+01 -1.053434e+01 -1.026533e+01 -1.018892e+01 -9.926918e+00 
-9.915879e+00 -9.847377e+00 -1.011874e+01 -1.011146e+01 -1.042192e+01 -1.023633e+01 -1.066598e+01 -1.022008e+01 -1.098134e+01 -9.621762e+00 1.051851e+00 2.219033e+01 4.014724e+01 4.542755e+01 4.631933e+01 4.683803e+01 4.709997e+01 4.683803e+01 4.631933e+01 4.542755e+01 4.014724e+01 2.219033e+01 1.051851e+00 -9.621762e+00 -1.098134e+01 -1.022008e+01 -1.066598e+01 -1.023633e+01 -1.042192e+01 -1.011146e+01 -1.011874e+01 -9.847377e+00 
-9.751600e+00 -9.674855e+00 -9.897696e+00 -9.871575e+00 -1.009212e+01 -9.935194e+00 -1.015261e+01 -9.809642e+00 -1.002832e+01 -9.557978e+00 -7.764238e+00 2.188398e-01 1.582932e+01 2.852788e+01 3.854085e+01 4.340899e+01 4.404567e+01 4.340899e+01 3.854085e+01 2.852788e+01 1.582932e+01 2.188398e-01 -7.764238e+00 -9.557978e+00 -1.002832e+01 -9.809642e+00 -1.015261e+01 -9.935194e+00 -1.009212e+01 -9.871575e+00 -9.897696e+00 -9.674855e+00 
-9.556845e+00 -9.466221e+00 -9.670525e+00 -9.618235e+00 -9.818625e+00 -9.664851e+00 -9.805532e+00 -9.548366e+00 -9.508837e+00 -9.317216e+00 -8.600546e+00 -8.005719e+00 -5.929472e+00 -5.143368e-01 8.171261e+00 1.233827e+01 1.290281e+01 1.233827e+01 8.171261e+00 -5.143368e-01 -5.929472e+00 -8.005719e+00 -8.600546e+00 -9.317216e+00 -9.508837e+00 -9.548366e+00 -9.805532e+00 -9.664851e+00 -9.818625e+00 -9.618235e+00 -9.670525e+00 -9.466221e+00 
-9.310650e+00 -9.211664e+00 -9.382862e+00 -9.302552e+00 -9.461116e+00 -9.287439e+00 -9.388295e+00 -9.070321e+00 -9.052993e+00 -8.536036e+00 -8.233106e+00 -7.266937e+00 -7.435140e+00 -7.906433e+00 -6.491170e+00 -6.266541e+00 -5.957413e+00 -6.266541e+00 -6.491170e+00 -7.906433e+00 -7.435140e+00 -7.266937e+00 -8.233106e+00 -8.536036e+00 -9.052993e+00 -9.070321e+00 -9.388295e+00 -9.287439e+00 -9.461116e+00 -9.302552e+00 -9.382862e+00 -9.211664e+00 
-9.102090e+00 -9.013930e+00 -9.146752e+00 -9.072467e+00 -9.186883e+00 -9.063637e+00 -9.109990e+00 -8.930200e+00 -8.839400e+00 -8.588888e+00 -8.270201e+00 -7.831610e+00 -7.453650e+00 -6.910809e+00 -6.043012e+00 -6.190521e+00 -5.648727e+00 -6.190521e+00 -6.043012e+00 -6.910809e+00 -7.453650e+00 -7.831610e+00 -8.270201e+00 -8.588888e+00 -8.839400e+00 -8.930200e+00 -9.109990e+00 -9.063637e+00 -9.186883e+00 -9.072467e+00 -9.146752e+00 -9.013930e+00 
-8.917517e+00 -8.810800e+00 -8.933625e+00 -8.822425e+00 -8.930739e+00 -8.778740e+00 -8.856365e+00 -8.659886e+00 -8.680762e+00 -8.433212e+00 -8.337674e+00 -8.067398e+00 -7.911631e+00 -8.046699e+00 -7.452377e+00 -7.398032e+00 -6.957473e+00 -7.398032e+00 -7.452377e+00 -8.046699e+00 -7.911631e+00 -8.067398e+00 -8.337674e+00 -8.433212e+00 -8.680762e+00 -8.659886e+00 -8.856365e+00 -8.778740e+00 -8.930739e+00 -8.822425e+00 -8.933625e+00 -8.810800e+00 
-8.768441e+00 -8.687113e+00 -8.763545e+00 -8.672908e+00 -8.725105e+00 -8.621867e+00 -8.642570e+00 -8.547977e+00 -8.517565e+00 -8.424969e+00 -8.285351e+00 -8.138005e+00 -7.841934e+00 -7.705026e+00 -7.205438e+00 -7.146147e+00 -6.749303e+00 -7.146147e+00 -7.205438e+00 -7.705026e+00 -7.841934e+00 -8.138005e+00 -8.285351e+00 -8.424969e+00 -8.517565e+00 -8.547977e+00 -8.642570e+00 -8.621867e+00 -8.725105e+00 -8.672908e+00 -8.763545e+00 -8.687113e+00 
-8.678259e+00 -8.571785e+00 -8.659242e+00 -8.532414e+00 -8.598117e+00 -8.462457e+00 -8.521326e+00 -8.413392e+00 -8.465982e+00 -8.398568e+00 -8.378200e+00 -8.331165e+00 -8.149958e+00 -8.172797e+00 -7.776482e+00 -7.713205e+00 -7.392415e+00 -7.713205e+00 -7.776482e+00 -8.172797e+00 -8.149958e+00 -8.331165e+00 -8.378200e+00 -8.398568e+00 -8.465982e+00 -8.413392e+00 -8.521326e+00 -8.462457e+00 -8.598117e+00 -8.532414e+00 -8.659242e+00 -8.571785e+00 
-8.581582e+00 -8.507830e+00 -8.549998e+00 -8.450732e+00 -8.458401e+00 -8.356961e+00 -8.349288e+00 -8.292253e+00 -8.279902e+00 -8.273885e+00 -8.195439e+00 -8.166178e+00 -7.912031e+00 -7.804602e+00 -7.353659e+00 -7.217059e+00 -6.899825e+00 -7.217059e+00 -7.353659e+00 -7.804602e+00 -7.912031e+00 -8.166178e+00 -8.195439e+00 -8.273885e+00 -8.279902e+00 -8.292253e+00 -8.349288e+00 -8.356961e+00 -8.458401e+00 -8.450732e+00 -8.549998e+00 -8.507830e+00 
-8.558750e+00 -8.456226e+00 -8.524585e+00 -8.392794e+00 -8.426913e+00 -8.290510e+00 -8.314837e+00 -8.227795e+00 -8.259991e+00 -8.243036e+00 -8.219802e+00 -8.209389e+00 -8.005943e+00 -7.921552e+00 -7.502225e+00 -7.365751e+00 -7.079921e+00 -7.365751e+00 -7.502225e+00 -7.921552e+00 -8.005943e+00 -8.209389e+00 -8.219802e+00 -8.243036e+00 -8.259991e+00 -8.227795e+00 -8.314837e+00 -8.290510e+00 -8.426913e+00 -8.392794e+00 -8.524585e+00 -8.456226e+00 
-8.496692e+00 -8.428407e+00 -8.455911e+00 -8.354369e+00 -8.337103e+00 -8.227887e+00 -8.189208e+00 -8.126323e+00 -8.089638e+00 -8.087543e+00 -7.996262e+00 -7.967301e+00 -7.690857e+00 -7.528941e+00 -7.042226e+00 -6.858443e+00 -6.562013e+00 -6.858443e+00 -7.042226e+00 -7.528941e+00 -7.690857e+00 -7.967301e+00 -7.996262e+00 -8.087543e+00 -8.089638e+00 -8.126323e+00 -8.189208e+00 -8.227887e+00 -8.337103e+00 -8.354369e+00 -8.455911e+00 -8.428407e+00 
