# vtk DataFile Version 2.0
Comment goes here
ASCII

DATASET STRUCTURED_POINTS
FIELD FieldData 1
TIME 1 1 double
0.30000000
DIMENSIONS    32   32   1

ORIGIN    0.000   0.000   0.000
SPACING   0.03125 0.03125   1.000

POINT_DATA   1024
SCALARS P double
LOOKUP_TABLE default

-1.652333e+01 -1.660623e+01 -1.672623e+01 -1.700359e+01 -1.732763e+01 -1.778000e+01 -1.827662e+01 -1.884029e+01 -1.939401e+01 -1.990275e+01 -2.026456e+01 -2.041575e+01 -2.026079e+01 -1.974684e+01 -1.901695e+01 -1.809220e+01 -1.773098e+01 -1.809220e+01 -1.901695e+01 -1.974684e+01 -2.026079e+01 -2.041575e+01 -2.026456e+01 -1.990275e+01 -1.939401e+01 -1.884029e+01 -1.827662e+01 -1.778000e+01 -1.732763e+01 -1.700359e+01 -1.672623e+01 -1.660623e+01 
-1.636176e+01 -1.643829e+01 -1.656752e+01 -1.684098e+01 -1.718392e+01 -1.764168e+01 -1.817945e+01 -1.877411e+01 -1.940736e+01 -1.999824e+01 -2.049025e+01 -2.079669e+01 -2.081703e+01 -2.053934e+01 -1.998737e+01 -1.918198e+01 -1.888216e+01 -1.918198e+01 -1.998737e+01 -2.053934e+01 -2.081703e+01 -2.079669e+01 -2.049025e+01 -1.999824e+01 -1.940736e+01 -1.877411e+01 -1.817945e+01 -1.764168e+01 -1.718392e+01 -1.684098e+01 -1.656752e+01 -1.643829e+01 
-1.636974e+01 -1.645838e+01 -1.658222e+01 -1.687655e+01 -1.722594e+01 -1.772137e+01 -1.828740e+01 -1.894379e+01 -1.962716e+01 -2.028203e+01 -2.078446e+01 -2.104255e+01 -2.087380e+01 -2.033609e+01 -1.968704e+01 -1.895066e+01 -1.873127e+01 -1.895066e+01 -1.968704e+01 -2.033609e+01 -2.087380e+01 -2.104255e+01 -2.078446e+01 -2.028203e+01 -1.962716e+01 -1.894379e+01 -1.828740e+01 -1.772137e+01 -1.722594e+01 -1.687655e+01 -1.658222e+01 -1.645838e+01 
-1.604661e+01 -1.613524e+01 -1.626595e+01 -1.656744e+01 -1.694933e+01 -1.747805e+01 -1.813838e+01 -1.889192e+01 -1.976767e+01 -2.062131e+01 -2.139063e+01 -2.190055e+01 -2.194469e+01 -2.179994e+01 -2.135762e+01 -2.062146e+01 -2.041476e+01 -2.062146e+01 -2.135762e+01 -2.179994e+01 -2.194469e+01 -2.190055e+01 -2.139063e+01 -2.062131e+01 -1.976767e+01 -1.889192e+01 -1.813838e+01 -1.747805e+01 -1.694933e+01 -1.656744e+01 -1.626595e+01 -1.613524e+01 
-1.587902e+01 -1.598414e+01 -1.611009e+01 -1.644436e+01 -1.685212e+01 -1.745872e+01 -1.822098e+01 -1.915163e+01 -2.026468e+01 -2.142844e+01 -2.248648e+01 -2.311690e+01 -2.262240e+01 -2.152987e+01 -2.068862e+01 -2.012115e+01 -2.008808e+01 -2.012115e+01 -2.068862e+01 -2.152987e+01 -2.262240e+01 -2.311690e+01 -2.248648e+01 -2.142844e+01 -2.026468e+01 -1.915163e+01 -1.822098e+01 -1.745872e+01 -1.685212e+01 -1.644436e+01 -1.611009e+01 -1.598414e+01 
-1.536822e+01 -1.548050e+01 -1.559598e+01 -1.593513e+01 -1.636014e+01 -1.699918e+01 -1.788070e+01 -1.894520e+01 -2.039382e+01 -2.193154e+01 -2.358241e+01 -2.463804e+01 -2.459649e+01 -2.478769e+01 -2.406045e+01 -2.197129e+01 -2.122693e+01 -2.197129e+01 -2.406045e+01 -2.478769e+01 -2.459649e+01 -2.463804e+01 -2.358241e+01 -2.193154e+01 -2.039382e+01 -1.894520e+01 -1.788070e+01 -1.699918e+01 -1.636014e+01 -1.593513e+01 -1.559598e+01 -1.548050e+01 
-1.498273e+01 -1.511315e+01 -1.521093e+01 -1.557446e+01 -1.601130e+01 -1.672967e+01 -1.774869e+01 -1.910345e+01 -2.112603e+01 -2.366488e+01 -2.689632e+01 -2.913763e+01 -2.650162e+01 -1.656480e+01 -4.114483e+00 5.047820e+00 8.163391e+00 5.047820e+00 -4.114483e+00 -1.656480e+01 -2.650162e+01 -2.913763e+01 -2.689632e+01 -2.366488e+01 -2.112603e+01 -1.910345e+01 -1.774869e+01 -1.672967e+01 -1.601130e+01 -1.557446e+01 -1.521093e+01 -1.511315e+01 
-1.427220e+01 -1.441874e+01 -1.446678e+01 -1.481646e+01 -1.520028e+01 -1.590418e+01 -1.699574e+01 -1.847952e+01 -2.109226e+01 -2.425573e+01 -2.767701e+01 -2.216022e+01 8.433532e-01 2.830915e+01 4.567444e+01 5.342025e+01 5.544197e+01 5.342025e+01 4.567444e+01 2.830915e+01 8.433532e-01 -2.216022e+01 -2.767701e+01 -2.425573e+01 -2.109226e+01 -1.847952e+01 -1.699574e+01 -1.590418e+01 -1.520028e+01 -1.481646e+01 -1.446678e+01 -1.441874e+01 
-1.364755e+01 -1.381149e+01 -1.380956e+01 -1.414233e+01 -1.445238e+01 -1.511923e+01 -1.616503e+01 -1.767906e+01 -2.032189e+01 -2.352333e+01 -1.989341e+01 6.671790e+00 3.851276e+01 5.357774e+01 5.824119e+01 5.866660e+01 5.874195e+01 5.866660e+01 5.824119e+01 5.357774e+01 3.851276e+01 6.671790e+00 -1.989341e+01 -2.352333e+01 -2.032189e+01 -1.767906e+01 -1.616503e+01 -1.511923e+01 -1.445238e+01 -1.414233e+01 -1.380956e+01 -1.381149e+01 
-1.280349e+01 -1.299452e+01 -1.288870e+01 -1.318221e+01 -1.327955e+01 -1.381985e+01 -1.457650e+01 -1.553836e+01 -1.809624e+01 -1.615300e+01 5.402940e+00 3.760424e+01 5.094414e+01 5.221016e+01 5.352739e+01 5.413408e+01 5.475713e+01 5.413408e+01 5.352739e+01 5.221016e+01 5.094414e+01 3.760424e+01 5.402940e+00 -1.615300e+01 -1.809624e+01 -1.553836e+01 -1.457650e+01 -1.381985e+01 -1.327955e+01 -1.318221e+01 -1.288870e+01 -1.299452e+01 
-1.203008e+01 -1.224346e+01 -1.205301e+01 -1.229146e+01 -1.220809e+01 -1.253775e+01 -1.291409e+01 -1.311350e+01 -1.494490e+01 -9.367045e-01 3.162232e+01 4.933760e+01 5.039822e+01 5.181692e+01 5.324314e+01 5.398390e+01 5.460509e+01 5.398390e+01 5.324314e+01 5.181692e+01 5.039822e+01 4.933760e+01 3.162232e+01 -9.367045e-01 -1.494490e+01 -1.311350e+01 -1.291409e+01 -1.253775e+01 -1.220809e+01 -1.229146e+01 -1.205301e+01 -1.224346e+01 
-1.129814e+01 -1.154617e+01 -1.124622e+01 -1.148409e+01 -1.107601e+01 -1.141974e+01 -1.059763e+01 -1.110838e+01 -7.712058e+00 1.758057e+01 4.438874e+01 4.984195e+01 4.993296e+01 5.039805e+01 5.117690e+01 5.137726e+01 5.198505e+01 5.137726e+01 5.117690e+01 5.039805e+01 4.993296e+01 4.984195e+01 4.438874e+01 1.758057e+01 -7.712058e+00 -1.110838e+01 -1.059763e+01 -1.141974e+01 -1.107601e+01 -1.148409e+01 -1.124622e+01 -1.154617e+01 
-1.064756e+01 -1.094439e+01 -1.056772e+01 -1.083099e+01 -1.015823e+01 -1.056227e+01 -8.962065e+00 -1.077593e+01 -1.389993e+00 3.216930e+01 4.936602e+01 4.915232e+01 5.036663e+01 5.058390e+01 5.178007e+01 5.175209e+01 5.242399e+01 5.175209e+01 5.178007e+01 5.058390e+01 5.036663e+01 4.915232e+01 4.936602e+01 3.216930e+01 -1.389993e+00 -1.077593e+01 -8.962065e+00 -1.056227e+01 -1.015823e+01 -1.083099e+01 -1.056772e+01 -1.094439e+01 
-1.033227e+01 -1.061452e+01 -1.025861e+01 -1.047932e+01 -9.998850e+00 -9.966144e+00 -8.467439e+00 -9.188402e+00 2.614035e+00 3.696767e+01 4.809997e+01 4.737359e+01 4.940349e+01 4.931715e+01 5.057463e+01 5.023567e+01 5.096841e+01 5.023567e+01 5.057463e+01 4.931715e+01 4.940349e+01 4.737359e+01 4.809997e+01 3.696767e+01 2.614035e+00 -9.188402e+00 -8.467439e+00 -9.966144e+00 -9.998850e+00 -1.047932e+01 -1.025861e+01 -1.061452e+01 
-9.863315e+00 -1.019829e+01 -9.964041e+00 -1.037111e+01 -9.815776e+00 -8.624139e+00 -7.108170e+00 -7.006200e+00 8.162224e+00 3.930319e+01 4.636261e+01 4.657459e+01 4.925927e+01 4.940819e+01 5.095121e+01 5.058351e+01 5.141057e+01 5.058351e+01 5.095121e+01 4.940819e+01 4.925927e+01 4.657459e+01 4.636261e+01 3.930319e+01 8.162224e+00 -7.006200e+00 -7.108170e+00 -8.624139e+00 -9.815776e+00 -1.037111e+01 -9.964041e+00 -1.019829e+01 
-9.775153e+00 -1.010415e+01 -9.817422e+00 -1.008667e+01 -9.150153e+00 -7.391511e+00 -5.614805e+00 -5.699147e+00 1.297076e+01 4.216170e+01 4.607190e+01 4.631109e+01 4.878090e+01 4.875965e+01 5.024358e+01 4.972457e+01 5.058779e+01 4.972457e+01 5.024358e+01 4.875965e+01 4.878090e+01 4.631109e+01 4.607190e+01 4.216170e+01 1.297076e+01 -5.699147e+00 -5.614805e+00 -7.391511e+00 -9.150153e+00 -1.008667e+01 -9.817422e+00 -1.010415e+01 
-9.057316e+00 -9.366593e+00 -9.061632e+00 -9.142621e+00 -7.641017e+00 -5.159723e+00 -3.534970e+00 -2.661341e+00 1.712888e+01 4.402087e+01 4.625285e+01 4.676881e+01 4.908451e+01 4.924448e+01 5.076586e+01 5.031740e+01 5.118661e+01 5.031740e+01 5.076586e+01 4.924448e+01 4.908451e+01 4.676881e+01 4.625285e+01 4.402087e+01 1.712888e+01 -2.661341e+00 -3.534970e+00 -5.159723e+00 -7.641017e+00 -9.142621e+00 -9.061632e+00 -9.366593e+00 
-9.775153e+00 -1.010415e+01 -9.817422e+00 -1.008667e+01 -9.150153e+00 -7.391511e+00 -5.614805e+00 -5.699147e+00 1.297076e+01 4.216170e+01 4.607190e+01 4.631109e+01 4.878090e+01 4.875965e+01 5.024358e+01 4.972457e+01 5.058779e+01 4.972457e+01 5.024358e+01 4.875965e+01 4.878090e+01 4.631109e+01 4.607190e+01 4.216170e+01 1.297076e+01 -5.699147e+00 -5.614805e+00 -7.391511e+00 -9.150153e+00 -1.008667e+01 -9.817422e+00 -1.010415e+01 
-9.863315e+00 -1.019829e+01 -9.964041e+00 -1.037111e+01 -9.815776e+00 -8.624139e+00 -7.108170e+00 -7.006200e+00 8.162224e+00 3.930319e+01 4.636261e+01 4.657459e+01 4.925927e+01 4.940819e+01 5.095121e+01 5.058351e+01 5.141057e+01 5.058351e+01 5.095121e+01 4.940819e+01 4.925927e+01 4.657459e+01 4.636261e+01 3.930319e+01 8.162224e+00 -7.006200e+00 -7.108170e+00 -8.624139e+00 -9.815776e+00 -1.037111e+01 -9.964041e+00 -1.019829e+01 
-1.033227e+01 -1.061452e+01 -1.025861e+01 -1.047932e+01 -9.998850e+00 -9.966144e+00 -8.467439e+00 -9.188402e+00 2.614035e+00 3.696767e+01 4.809997e+01 4.737359e+01 4.940349e+01 4.931715e+01 5.057463e+01 5.023567e+01 5.096841e+01 5.023567e+01 5.057463e+01 4.931715e+01 4.940349e+01 4.737359e+01 4.809997e+01 3.696767e+01 2.614035e+00 -9.188402e+00 -8.467439e+00 -9.966144e+00 -9.998850e+00 -1.047932e+01 -1.025861e+01 -1.061452e+01 
-1.064756e+01 -1.094439e+01 -1.056772e+01 -1.083099e+01 -1.015823e+01 -1.056227e+01 -8.962065e+00 -1.077593e+01 -1.389993e+00 3.216930e+01 4.936602e+01 4.915232e+01 5.036663e+01 5.058390e+01 5.178007e+01 5.175209e+01 5.242399e+01 5.175209e+01 5.178007e+01 5.058390e+01 5.036663e+01 4.915232e+01 4.936602e+01 3.216930e+01 -1.389993e+00 -1.077593e+01 -8.962065e+00 -1.056227e+01 -1.015823e+01 -1.083099e+01 -1.056772e+01 -1.094439e+01 
-1.129814e+01 -1.154617e+01 -1.124622e+01 -1.148409e+01 -1.107601e+01 -1.141974e+01 -1.059763e+01 -1.110838e+01 -7.712058e+00 1.758057e+01 4.438874e+01 4.984195e+01 4.993296e+01 5.039805e+01 5.117690e+01 5.137726e+01 5.198505e+01 5.137726e+01 5.117690e+01 5.039805e+01 4.993296e+01 4.984195e+01 4.438874e+01 1.758057e+01 -7.712058e+00 -1.110838e+01 -1.059763e+01 -1.141974e+01 -1.107601e+01 -1.148409e+01 -1.124622e+01 -1.154617e+01 
-1.203008e+01 -1.224346e+01 -1.205301e+01 -1.229146e+01 -1.220809e+01 -1.253775e+01 -1.291409e+01 -1.311350e+01 -1.494490e+01 -9.367045e-01 3.162232e+01 4.933760e+01 5.039822e+01 5.181692e+01 5.324314e+01 5.398390e+01 5.460509e+01 5.398390e+01 5.324314e+01 5.181692e+01 5.039822e+01 4.933760e+01 3.162232e+01 -9.367045e-01 -1.494490e+01 -1.311350e+01 -1.291409e+01 -1.253775e+01 -1.220809e+01 -1.229146e+01 -1.205301e+01 -1.224346e+01 
-1.280349e+01 -1.299452e+01 -1.288870e+01 -1.318221e+01 -1.327955e+01 -1.381985e+01 -1.457650e+01 -1.553836e+01 -1.809624e+01 -1.615300e+01 5.402940e+00 3.760424e+01 5.094414e+01 5.221016e+01 5.352739e+01 5.413408e+01 5.475713e+01 5.413408e+01 5.352739e+01 5.221016e+01 5.094414e+01 3.760424e+01 5.402940e+00 -1.615300e+01 -1.809624e+01 -1.553836e+01 -1.457650e+01 -1.381985e+01 -1.327955e+01 -1.318221e+01 -1.288870e+01 -1.299452e+01 
-1.364755e+01 -1.381149e+01 -1.380956e+01 -1.414233e+01 -1.445238e+01 -1.511923e+01 -1.616503e+01 -1.767906e+01 -2.032189e+01 -2.352333e+01 -1.989341e+01 6.671790e+00 3.851276e+01 5.357774e+01 5.824119e+01 5.866660e+01 5.874195e+01 5.866660e+01 5.824119e+01 5.357774e+01 3.851276e+01 6.671790e+00 -1.989341e+01 -2.352333e+01 -2.032189e+01 -1.767906e+01 -1.616503e+01 -1.511923e+01 -1.445238e+01 -1.414233e+01 -1.380956e+01 -1.381149e+01 
-1.427220e+01 -1.441874e+01 -1.446678e+01 -1.481646e+01 -1.520028e+01 -1.590418e+01 -1.699574e+01 -1.847952e+01 -2.109226e+01 -2.425573e+01 -2.767701e+01 -2.216022e+01 8.433532e-01 2.830915e+01 4.567444e+01 5.342025e+01 5.544197e+01 5.342025e+01 4.567444e+01 2.830915e+01 8.433532e-01 -2.216022e+01 -2.767701e+01 -2.425573e+01 -2.109226e+01 -1.847952e+01 -1.699574e+01 -1.590418e+01 -1.520028e+01 -1.481646e+01 -1.446678e+01 -1.441874e+01 
-1.498273e+01 -1.511315e+01 -1.521093e+01 -1.557446e+01 -1.601130e+01 -1.672967e+01 -1.774869e+01 -1.910345e+01 -2.112603e+01 -2.366488e+01 -2.689632e+01 -2.913763e+01 -2.650162e+01 -1.656480e+01 -4.114483e+00 5.047820e+00 8.163391e+00 5.047820e+00 -4.114483e+00 -1.656480e+01 -2.650162e+01 -2.913763e+01 -2.689632e+01 -2.366488e+01 -2.112603e+01 -1.910345e+01 -1.774869e+01 -1.672967e+01 -1.601130e+01 -1.557446e+01 -1.521093e+01 -1.511315e+01 
-1.536822e+01 -1.548050e+01 -1.559598e+01 -1.593513e+01 -1.636014e+01 -1.699918e+01 -1.788070e+01 -1.894520e+01 -2.039382e+01 -2.193154e+01 -2.358241e+01 -2.463804e+01 -2.459649e+01 -2.478769e+01 -2.406045e+01 -2.197129e+01 -2.122693e+01 -2.197129e+01 -2.406045e+01 -2.478769e+01 -2.459649e+01 -2.463804e+01 -2.358241e+01 -2.193154e+01 -2.039382e+01 -1.894520e+01 -1.788070e+01 -1.699918e+01 -1.636014e+01 -1.593513e+01 -1.559598e+01 -1.548050e+01 
-1.587902e+01 -1.598414e+01 -1.611009e+01 -1.644436e+01 -1.685212e+01 -1.745872e+01 -1.822098e+01 -1.915163e+01 -2.026468e+01 -2.142844e+01 -2.248648e+01 -2.311690e+01 -2.262240e+01 -2.152987e+01 -2.068862e+01 -2.012115e+01 -2.008808e+01 -2.012115e+01 -2.068862e+01 -2.152987e+01 -2.262240e+01 -2.311690e+01 -2.248648e+01 -2.142844e+01 -2.026468e+01 -1.915163e+01 -1.822098e+01 -1.745872e+01 -1.685212e+01 -1.644436e+01 -1.611009e+01 -1.598414e+01 
-1.604661e+01 -1.613524e+01 -1.626595e+01 -1.656744e+01 -1.694933e+01 -1.747805e+01 -1.813838e+01 -1.889192e+01 -1.976767e+01 -2.062131e+01 -2.139063e+01 -2.190055e+01 -2.194469e+01 -2.179994e+01 -2.135762e+01 -2.062146e+01 -2.041476e+01 -2.062146e+01 -2.135762e+01 -2.179994e+01 -2.194469e+01 -2.190055e+01 -2.139063e+01 -2.062131e+01 -1.976767e+01 -1.889192e+01 -1.813838e+01 -1.747805e+01 -1.694933e+01 -1.656744e+01 -1.626595e+01 -1.613524e+01 
-1.636974e+01 -1.645838e+01 -1.658222e+01 -1.687655e+01 -1.722594e+01 -1.772137e+01 -1.828740e+01 -1.894379e+01 -1.962716e+01 -2.028203e+01 -2.078446e+01 -2.104255e+01 -2.087380e+01 -2.033609e+01 -1.968704e+01 -1.895066e+01 -1.873127e+01 -1.895066e+01 -1.968704e+01 -2.033609e+01 -2.087380e+01 -2.104255e+01 -2.078446e+01 -2.028203e+01 -1.962716e+01 -1.894379e+01 -1.828740e+01 -1.772137e+01 -1.722594e+01 -1.687655e+01 -1.658222e+01 -1.645838e+01 
-1.636176e+01 -1.643829e+01 -1.656752e+01 -1.684098e+01 -1.718392e+01 -1.764168e+01 -1.817945e+01 -1.877411e+01 -1.940736e+01 -1.999824e+01 -2.049025e+01 -2.079669e+01 -2.081703e+01 -2.053934e+01 -1.998737e+01 -1.918198e+01 -1.888216e+01 -1.918198e+01 -1.998737e+01 -2.053934e+01 -2.081703e+01 -2.079669e+01 -2.049025e+01 -1.999824e+01 -1.940736e+01 -1.877411e+01 -1.817945e+01 -1.764168e+01 -1.718392e+01 -1.684098e+01 -1.656752e+01 -1.643829e+01 
