# vtk DataFile Version 2.0
Comment goes here
ASCII

DATASET STRUCTURED_POINTS
FIELD FieldData 1
TIME 1 1 double
0.28000000
DIMENSIONS    32   32   1

ORIGIN    0.000   0.000   0.000
SPACING   0.03125 0.03125   1.000

POINT_DATA   1024
SCALARS P double
LOOKUP_TABLE default

-1.654256e+01 -1.645689e+01 -1.647764e+01 -1.632410e+01 -1.625299e+01 -1.599602e+01 -1.577228e+01 -1.534003e+01 -1.488640e+01 -1.420889e+01 -1.350601e+01 -1.263068e+01 -1.181357e+01 -1.092382e+01 -1.010330e+01 -9.241191e+00 -8.733252e+00 -9.241191e+00 -1.010330e+01 -1.092382e+01 -1.181357e+01 -1.263068e+01 -1.350601e+01 -1.420889e+01 -1.488640e+01 -1.534003e+01 -1.577228e+01 -1.599602e+01 -1.625299e+01 -1.632410e+01 -1.647764e+01 -1.645689e+01 
-1.645577e+01 -1.636466e+01 -1.639319e+01 -1.623657e+01 -1.617631e+01 -1.591992e+01 -1.570709e+01 -1.527641e+01 -1.482174e+01 -1.412926e+01 -1.339077e+01 -1.245434e+01 -1.155350e+01 -1.054446e+01 -9.664223e+00 -8.752396e+00 -8.275129e+00 -8.752396e+00 -9.664223e+00 -1.054446e+01 -1.155350e+01 -1.245434e+01 -1.339077e+01 -1.412926e+01 -1.482174e+01 -1.527641e+01 -1.570709e+01 -1.591992e+01 -1.617631e+01 -1.623657e+01 -1.639319e+01 -1.636466e+01 
-1.667061e+01 -1.658720e+01 -1.662246e+01 -1.648795e+01 -1.644678e+01 -1.622258e+01 -1.603069e+01 -1.562295e+01 -1.516658e+01 -1.445349e+01 -1.367437e+01 -1.270024e+01 -1.182114e+01 -1.093811e+01 -1.025752e+01 -9.561031e+00 -9.198102e+00 -9.561031e+00 -1.025752e+01 -1.093811e+01 -1.182114e+01 -1.270024e+01 -1.367437e+01 -1.445349e+01 -1.516658e+01 -1.562295e+01 -1.603069e+01 -1.622258e+01 -1.644678e+01 -1.648795e+01 -1.662246e+01 -1.658720e+01 
-1.670644e+01 -1.662021e+01 -1.667767e+01 -1.655912e+01 -1.656283e+01 -1.637602e+01 -1.623957e+01 -1.587525e+01 -1.543609e+01 -1.469862e+01 -1.381811e+01 -1.269542e+01 -1.158703e+01 -1.041395e+01 -9.572324e+00 -8.836930e+00 -8.482821e+00 -8.836930e+00 -9.572324e+00 -1.041395e+01 -1.158703e+01 -1.269542e+01 -1.381811e+01 -1.469862e+01 -1.543609e+01 -1.587525e+01 -1.623957e+01 -1.637602e+01 -1.656283e+01 -1.655912e+01 -1.667767e+01 -1.662021e+01 
-1.701777e+01 -1.694248e+01 -1.702622e+01 -1.695744e+01 -1.702605e+01 -1.692831e+01 -1.687294e+01 -1.658949e+01 -1.615558e+01 -1.532440e+01 -1.421581e+01 -1.277315e+01 -1.147528e+01 -1.037690e+01 -9.777384e+00 -9.349104e+00 -9.036636e+00 -9.349104e+00 -9.777384e+00 -1.037690e+01 -1.147528e+01 -1.277315e+01 -1.421581e+01 -1.532440e+01 -1.615558e+01 -1.658949e+01 -1.687294e+01 -1.692831e+01 -1.702605e+01 -1.695744e+01 -1.702622e+01 -1.694248e+01 
-1.713172e+01 -1.705876e+01 -1.718127e+01 -1.715356e+01 -1.732320e+01 -1.732676e+01 -1.743073e+01 -1.731359e+01 -1.700145e+01 -1.619952e+01 -1.494619e+01 -1.332646e+01 -1.150645e+01 -9.494712e+00 -8.279827e+00 -7.372675e+00 -6.826781e+00 -7.372675e+00 -8.279827e+00 -9.494712e+00 -1.150645e+01 -1.332646e+01 -1.494619e+01 -1.619952e+01 -1.700145e+01 -1.731359e+01 -1.743073e+01 -1.732676e+01 -1.732320e+01 -1.715356e+01 -1.718127e+01 -1.705876e+01 
-1.745322e+01 -1.739601e+01 -1.757276e+01 -1.763718e+01 -1.796047e+01 -1.818120e+01 -1.854943e+01 -1.876943e+01 -1.866142e+01 -1.777123e+01 -1.591051e+01 -1.315618e+01 -1.071024e+01 -9.137116e+00 -8.832230e+00 -8.165885e+00 -7.443370e+00 -8.165885e+00 -8.832230e+00 -9.137116e+00 -1.071024e+01 -1.315618e+01 -1.591051e+01 -1.777123e+01 -1.866142e+01 -1.876943e+01 -1.854943e+01 -1.818120e+01 -1.796047e+01 -1.763718e+01 -1.757276e+01 -1.739601e+01 
-1.754529e+01 -1.750247e+01 -1.773021e+01 -1.786560e+01 -1.838456e+01 -1.881374e+01 -1.960535e+01 -2.040544e+01 -2.091816e+01 -2.040498e+01 -1.856594e+01 -1.621214e+01 -1.299028e+01 -8.639621e+00 -5.171280e+00 -1.260300e+00 1.149862e+00 -1.260300e+00 -5.171280e+00 -8.639621e+00 -1.299028e+01 -1.621214e+01 -1.856594e+01 -2.040498e+01 -2.091816e+01 -2.040544e+01 -1.960535e+01 -1.881374e+01 -1.838456e+01 -1.786560e+01 -1.773021e+01 -1.750247e+01 
-1.770974e+01 -1.768732e+01 -1.799327e+01 -1.825343e+01 -1.906162e+01 -1.992268e+01 -2.152789e+01 -2.382638e+01 -2.558006e+01 -2.540016e+01 -2.105382e+01 -9.558856e+00 5.191428e+00 1.846589e+01 2.789783e+01 3.442426e+01 3.754595e+01 3.442426e+01 2.789783e+01 1.846589e+01 5.191428e+00 -9.558856e+00 -2.105382e+01 -2.540016e+01 -2.558006e+01 -2.382638e+01 -2.152789e+01 -1.992268e+01 -1.906162e+01 -1.825343e+01 -1.799327e+01 -1.768732e+01 
-1.762952e+01 -1.764980e+01 -1.798127e+01 -1.832169e+01 -1.943151e+01 -2.060603e+01 -2.333736e+01 -2.706062e+01 -2.910800e+01 -2.305442e+01 -1.718035e+00 2.403480e+01 4.006703e+01 4.827260e+01 5.245635e+01 5.417095e+01 5.513417e+01 5.417095e+01 5.245635e+01 4.827260e+01 4.006703e+01 2.403480e+01 -1.718035e+00 -2.305442e+01 -2.910800e+01 -2.706062e+01 -2.333736e+01 -2.060603e+01 -1.943151e+01 -1.832169e+01 -1.798127e+01 -1.764980e+01 
-1.744422e+01 -1.748922e+01 -1.786418e+01 -1.824367e+01 -1.968921e+01 -2.109122e+01 -2.494252e+01 -3.017116e+01 -2.435370e+01 3.474004e+00 3.295731e+01 4.692951e+01 5.052133e+01 5.061588e+01 5.146600e+01 5.208280e+01 5.291628e+01 5.208280e+01 5.146600e+01 5.061588e+01 5.052133e+01 4.692951e+01 3.295731e+01 3.474004e+00 -2.435370e+01 -3.017116e+01 -2.494252e+01 -2.109122e+01 -1.968921e+01 -1.824367e+01 -1.786418e+01 -1.748922e+01 
-1.714552e+01 -1.730508e+01 -1.756631e+01 -1.797473e+01 -1.947209e+01 -2.044697e+01 -2.556716e+01 -2.630825e+01 -3.322486e+00 3.309227e+01 4.674154e+01 4.777847e+01 4.935577e+01 4.994830e+01 5.149493e+01 5.218291e+01 5.304001e+01 5.218291e+01 5.149493e+01 4.994830e+01 4.935577e+01 4.777847e+01 4.674154e+01 3.309227e+01 -3.322486e+00 -2.630825e+01 -2.556716e+01 -2.044697e+01 -1.947209e+01 -1.797473e+01 -1.756631e+01 -1.730508e+01 
-1.666372e+01 -1.691113e+01 -1.702933e+01 -1.722852e+01 -1.883918e+01 -1.845526e+01 -2.501672e+01 -1.109245e+01 2.618871e+01 4.644432e+01 4.826245e+01 4.938804e+01 5.034787e+01 5.056872e+01 5.131922e+01 5.141851e+01 5.195820e+01 5.141851e+01 5.131922e+01 5.056872e+01 5.034787e+01 4.938804e+01 4.826245e+01 4.644432e+01 2.618871e+01 -1.109245e+01 -2.501672e+01 -1.845526e+01 -1.883918e+01 -1.722852e+01 -1.702933e+01 -1.691113e+01 
-1.636312e+01 -1.690377e+01 -1.657718e+01 -1.731865e+01 -1.807243e+01 -1.781139e+01 -1.951333e+01 5.874620e+00 4.313851e+01 4.913358e+01 4.890394e+01 4.967089e+01 5.053709e+01 5.088360e+01 5.176646e+01 5.176180e+01 5.228521e+01 5.176180e+01 5.176646e+01 5.088360e+01 5.053709e+01 4.967089e+01 4.890394e+01 4.913358e+01 4.313851e+01 5.874620e+00 -1.951333e+01 -1.781139e+01 -1.807243e+01 -1.731865e+01 -1.657718e+01 -1.690377e+01 
-1.575819e+01 -1.671806e+01 -1.579533e+01 -1.753664e+01 -1.547065e+01 -1.581287e+01 -1.271601e+01 2.010313e+01 4.813636e+01 4.849851e+01 4.937312e+01 4.982381e+01 5.103331e+01 5.118438e+01 5.185754e+01 5.162217e+01 5.204972e+01 5.162217e+01 5.185754e+01 5.118438e+01 5.103331e+01 4.982381e+01 4.937312e+01 4.849851e+01 4.813636e+01 2.010313e+01 -1.271601e+01 -1.581287e+01 -1.547065e+01 -1.753664e+01 -1.579533e+01 -1.671806e+01 
-1.560125e+01 -1.658380e+01 -1.538807e+01 -1.645199e+01 -1.356272e+01 -1.237177e+01 -9.655434e+00 2.639243e+01 4.906408e+01 4.769496e+01 4.977707e+01 4.994400e+01 5.141226e+01 5.147483e+01 5.225599e+01 5.196183e+01 5.242943e+01 5.196183e+01 5.225599e+01 5.147483e+01 5.141226e+01 4.994400e+01 4.977707e+01 4.769496e+01 4.906408e+01 2.639243e+01 -9.655434e+00 -1.237177e+01 -1.356272e+01 -1.645199e+01 -1.538807e+01 -1.658380e+01 
-1.492668e+01 -1.583589e+01 -1.451461e+01 -1.486871e+01 -1.146621e+01 -1.029709e+01 -7.508224e+00 2.798808e+01 4.884201e+01 4.751390e+01 4.988264e+01 5.000299e+01 5.153785e+01 5.152822e+01 5.221722e+01 5.185837e+01 5.228388e+01 5.185837e+01 5.221722e+01 5.152822e+01 5.153785e+01 5.000299e+01 4.988264e+01 4.751390e+01 4.884201e+01 2.798808e+01 -7.508224e+00 -1.029709e+01 -1.146621e+01 -1.486871e+01 -1.451461e+01 -1.583589e+01 
-1.560125e+01 -1.658380e+01 -1.538807e+01 -1.645199e+01 -1.356272e+01 -1.237177e+01 -9.655434e+00 2.639243e+01 4.906408e+01 4.769496e+01 4.977707e+01 4.994400e+01 5.141226e+01 5.147483e+01 5.225599e+01 5.196183e+01 5.242943e+01 5.196183e+01 5.225599e+01 5.147483e+01 5.141226e+01 4.994400e+01 4.977707e+01 4.769496e+01 4.906408e+01 2.639243e+01 -9.655434e+00 -1.237177e+01 -1.356272e+01 -1.645199e+01 -1.538807e+01 -1.658380e+01 
-1.575819e+01 -1.671806e+01 -1.579533e+01 -1.753664e+01 -1.547065e+01 -1.581287e+01 -1.271601e+01 2.010313e+01 4.813636e+01 4.849851e+01 4.937312e+01 4.982381e+01 5.103331e+01 5.118438e+01 5.185754e+01 5.162217e+01 5.204972e+01 5.162217e+01 5.185754e+01 5.118438e+01 5.103331e+01 4.982381e+01 4.937312e+01 4.849851e+01 4.813636e+01 2.010313e+01 -1.271601e+01 -1.581287e+01 -1.547065e+01 -1.753664e+01 -1.579533e+01 -1.671806e+01 
-1.636312e+01 -1.690377e+01 -1.657718e+01 -1.731865e+01 -1.807243e+01 -1.781139e+01 -1.951333e+01 5.874620e+00 4.313851e+01 4.913358e+01 4.890394e+01 4.967089e+01 5.053709e+01 5.088360e+01 5.176646e+01 5.176180e+01 5.228521e+01 5.176180e+01 5.176646e+01 5.088360e+01 5.053709e+01 4.967089e+01 4.890394e+01 4.913358e+01 4.313851e+01 5.874620e+00 -1.951333e+01 -1.781139e+01 -1.807243e+01 -1.731865e+01 -1.657718e+01 -1.690377e+01 
-1.666372e+01 -1.691113e+01 -1.702933e+01 -1.722852e+01 -1.883918e+01 -1.845526e+01 -2.501672e+01 -1.109245e+01 2.618871e+01 4.644432e+01 4.826245e+01 4.938804e+01 5.034787e+01 5.056872e+01 5.131922e+01 5.141851e+01 5.195820e+01 5.141851e+01 5.131922e+01 5.056872e+01 5.034787e+01 4.938804e+01 4.826245e+01 4.644432e+01 2.618871e+01 -1.109245e+01 -2.501672e+01 -1.845526e+01 -1.883918e+01 -1.722852e+01 -1.702933e+01 -1.691113e+01 
-1.714552e+01 -1.730508e+01 -1.756631e+01 -1.797473e+01 -1.947209e+01 -2.044697e+01 -2.556716e+01 -2.630825e+01 -3.322486e+00 3.309227e+01 4.674154e+01 4.777847e+01 4.935577e+01 4.994830e+01 5.149493e+01 5.218291e+01 5.304001e+01 5.218291e+01 5.149493e+01 4.994830e+01 4.935577e+01 4.777847e+01 4.674154e+01 3.309227e+01 -3.322486e+00 -2.630825e+01 -2.556716e+01 -2.044697e+01 -1.947209e+01 -1.797473e+01 -1.756631e+01 -1.730508e+01 
-1.744422e+01 -1.748922e+01 -1.786418e+01 -1.824367e+01 -1.968921e+01 -2.109122e+01 -2.494252e+01 -3.017116e+01 -2.435370e+01 3.474004e+00 3.295731e+01 4.692951e+01 5.052133e+01 5.061588e+01 5.146600e+01 5.208280e+01 5.291628e+01 5.208280e+01 5.146600e+01 5.061588e+01 5.052133e+01 4.692951e+01 3.295731e+01 3.474004e+00 -2.435370e+01 -3.017116e+01 -2.494252e+01 -2.109122e+01 -1.968921e+01 -1.824367e+01 -1.786418e+01 -1.748922e+01 
-1.762952e+01 -1.764980e+01 -1.798127e+01 -1.832169e+01 -1.943151e+01 -2.060603e+01 -2.333736e+01 -2.706062e+01 -2.910800e+01 -2.305442e+01 -1.718035e+00 2.403480e+01 4.006703e+01 4.827260e+01 5.245635e+01 5.417095e+01 5.513417e+01 5.417095e+01 5.245635e+01 4.827260e+01 4.006703e+01 2.403480e+01 -1.718035e+00 -2.305442e+01 -2.910800e+01 -2.706062e+01 -2.333736e+01 -2.060603e+01 -1.943151e+01 -1.832169e+01 -1.798127e+01 -1.764980e+01 
-1.770974e+01 -1.768732e+01 -1.799327e+01 -1.825343e+01 -1.906162e+01 -1.992268e+01 -2.152789e+01 -2.382638e+01 -2.558006e+01 -2.540016e+01 -2.105382e+01 -9.558856e+00 5.191428e+00 1.846589e+01 2.789783e+01 3.442426e+01 3.754595e+01 3.442426e+01 2.789783e+01 1.846589e+01 5.191428e+00 -9.558856e+00 -2.105382e+01 -2.540016e+01 -2.558006e+01 -2.382638e+01 -2.152789e+01 -1.992268e+01 -1.906162e+01 -1.825343e+01 -1.799327e+01 -1.768732e+01 
-1.754529e+01 -1.750247e+01 -1.773021e+01 -1.786560e+01 -1.838456e+01 -1.881374e+01 -1.960535e+01 -2.040544e+01 -2.091816e+01 -2.040498e+01 -1.856594e+01 -1.621214e+01 -1.299028e+01 -8.639621e+00 -5.171280e+00 -1.260300e+00 1.149862e+00 -1.260300e+00 -5.171280e+00 -8.639621e+00 -1.299028e+01 -1.621214e+01 -1.856594e+01 -2.040498e+01 -2.091816e+01 -2.040544e+01 -1.960535e+01 -1.881374e+01 -1.838456e+01 -1.786560e+01 -1.773021e+01 -1.750247e+01 
-1.745322e+01 -1.739601e+01 -1.757276e+01 -1.763718e+01 -1.796047e+01 -1.818120e+01 -1.854943e+01 -1.876943e+01 -1.866142e+01 -1.777123e+01 -1.591051e+01 -1.315618e+01 -1.071024e+01 -9.137116e+00 -8.832230e+00 -8.165885e+00 -7.443370e+00 -8.165885e+00 -8.832230e+00 -9.137116e+00 -1.071024e+01 -1.315618e+01 -1.591051e+01 -1.777123e+01 -1.866142e+01 -1.876943e+01 -1.854943e+01 -1.818120e+01 -1.796047e+01 -1.763718e+01 -1.757276e+01 -1.739601e+01 
-1.713172e+01 -1.705876e+01 -1.718127e+01 -1.715356e+01 -1.732320e+01 -1.732676e+01 -1.743073e+01 -1.731359e+01 -1.700145e+01 -1.619952e+01 -1.494619e+01 -1.332646e+01 -1.150645e+01 -9.494712e+00 -8.279827e+00 -7.372675e+00 -6.826781e+00 -7.372675e+00 -8.279827e+00 -9.494712e+00 -1.150645e+01 -1.332646e+01 -1.494619e+01 -1.619952e+01 -1.700145e+01 -1.731359e+01 -1.743073e+01 -1.732676e+01 -1.732320e+01 -1.715356e+01 -1.718127e+01 -1.705876e+01 
-1.701777e+01 -1.694248e+01 -1.702622e+01 -1.695744e+01 -1.702605e+01 -1.692831e+01 -1.687294e+01 -1.658949e+01 -1.615558e+01 -1.532440e+01 -1.421581e+01 -1.277315e+01 -1.147528e+01 -1.037690e+01 -9.777384e+00 -9.349104e+00 -9.036636e+00 -9.349104e+00 -9.777384e+00 -1.037690e+01 -1.147528e+01 -1.277315e+01 -1.421581e+01 -1.532440e+01 -1.615558e+01 -1.658949e+01 -1.687294e+01 -1.692831e+01 -1.702605e+01 -1.695744e+01 -1.702622e+01 -1.694248e+01 
-1.670644e+01 -1.662021e+01 -1.667767e+01 -1.655912e+01 -1.656283e+01 -1.637602e+01 -1.623957e+01 -1.587525e+01 -1.543609e+01 -1.469862e+01 -1.381811e+01 -1.269542e+01 -1.158703e+01 -1.041395e+01 -9.572324e+00 -8.836930e+00 -8.482821e+00 -8.836930e+00 -9.572324e+00 -1.041395e+01 -1.158703e+01 -1.269542e+01 -1.381811e+01 -1.469862e+01 -1.543609e+01 -1.587525e+01 -1.623957e+01 -1.637602e+01 -1.656283e+01 -1.655912e+01 -1.667767e+01 -1.662021e+01 
-1.667061e+01 -1.658720e+01 -1.662246e+01 -1.648795e+01 -1.644678e+01 -1.622258e+01 -1.603069e+01 -1.562295e+01 -1.516658e+01 -1.445349e+01 -1.367437e+01 -1.270024e+01 -1.182114e+01 -1.093811e+01 -1.025752e+01 -9.561031e+00 -9.198102e+00 -9.561031e+00 -1.025752e+01 -1.093811e+01 -1.182114e+01 -1.270024e+01 -1.367437e+01 -1.445349e+01 -1.516658e+01 -1.562295e+01 -1.603069e+01 -1.622258e+01 -1.644678e+01 -1.648795e+01 -1.662246e+01 -1.658720e+01 
-1.645577e+01 -1.636466e+01 -1.639319e+01 -1.623657e+01 -1.617631e+01 -1.591992e+01 -1.570709e+01 -1.527641e+01 -1.482174e+01 -1.412926e+01 -1.339077e+01 -1.245434e+01 -1.155350e+01 -1.054446e+01 -9.664223e+00 -8.752396e+00 -8.275129e+00 -8.752396e+00 -9.664223e+00 -1.054446e+01 -1.155350e+01 -1.245434e+01 -1.339077e+01 -1.412926e+01 -1.482174e+01 -1.527641e+01 -1.570709e+01 -1.591992e+01 -1.617631e+01 -1.623657e+01 -1.639319e+01 -1.636466e+01 
