# vtk DataFile Version 2.0
Comment goes here
ASCII

DATASET STRUCTURED_POINTS
FIELD FieldData 1
TIME 1 1 double
0.56000000
DIMENSIONS    32   32   1

ORIGIN    0.000   0.000   0.000
SPACING   0.03125 0.03125   1.000

POINT_DATA   1024
SCALARS P double
LOOKUP_TABLE default

-1.498229e+01 -1.477754e+01 -1.478898e+01 -1.438952e+01 -1.420293e+01 -1.361790e+01 -1.323620e+01 -1.252086e+01 -1.198276e+01 -1.127334e+01 -1.067550e+01 -1.015117e+01 -9.549441e+00 -9.180032e+00 -8.412347e+00 -8.044209e+00 -7.339107e+00 -8.044209e+00 -8.412347e+00 -9.180032e+00 -9.549441e+00 -1.015117e+01 -1.067550e+01 -1.127334e+01 -1.198276e+01 -1.252086e+01 -1.323620e+01 -1.361790e+01 -1.420293e+01 -1.438952e+01 -1.478898e+01 -1.477754e+01 
-1.497797e+01 -1.478894e+01 -1.478508e+01 -1.439915e+01 -1.419986e+01 -1.362386e+01 -1.323462e+01 -1.252387e+01 -1.198769e+01 -1.128350e+01 -1.070823e+01 -1.020816e+01 -9.682801e+00 -9.390152e+00 -8.745258e+00 -8.416275e+00 -7.761896e+00 -8.416275e+00 -8.745258e+00 -9.390152e+00 -9.682801e+00 -1.020816e+01 -1.070823e+01 -1.128350e+01 -1.198769e+01 -1.252387e+01 -1.323462e+01 -1.362386e+01 -1.419986e+01 -1.439915e+01 -1.478508e+01 -1.478894e+01 
-1.518192e+01 -1.497706e+01 -1.498860e+01 -1.458316e+01 -1.439536e+01 -1.378919e+01 -1.340145e+01 -1.264539e+01 -1.209593e+01 -1.133586e+01 -1.072774e+01 -1.018074e+01 -9.590274e+00 -9.250517e+00 -8.571663e+00 -8.236381e+00 -7.551071e+00 -8.236381e+00 -8.571663e+00 -9.250517e+00 -9.590274e+00 -1.018074e+01 -1.072774e+01 -1.133586e+01 -1.209593e+01 -1.264539e+01 -1.340145e+01 -1.378919e+01 -1.439536e+01 -1.458316e+01 -1.498860e+01 -1.497706e+01 
-1.537863e+01 -1.519211e+01 -1.518632e+01 -1.479079e+01 -1.458621e+01 -1.396668e+01 -1.355778e+01 -1.275455e+01 -1.217431e+01 -1.134125e+01 -1.070529e+01 -1.011890e+01 -9.598032e+00 -9.400577e+00 -8.951220e+00 -8.684109e+00 -8.053092e+00 -8.684109e+00 -8.951220e+00 -9.400577e+00 -9.598032e+00 -1.011890e+01 -1.070529e+01 -1.134125e+01 -1.217431e+01 -1.275455e+01 -1.355778e+01 -1.396668e+01 -1.458621e+01 -1.479079e+01 -1.518632e+01 -1.519211e+01 
-1.579055e+01 -1.559144e+01 -1.560509e+01 -1.519242e+01 -1.500502e+01 -1.434038e+01 -1.392863e+01 -1.303286e+01 -1.241332e+01 -1.144241e+01 -1.073767e+01 -1.000337e+01 -9.264649e+00 -8.839307e+00 -8.138716e+00 -7.807428e+00 -6.977716e+00 -7.807428e+00 -8.138716e+00 -8.839307e+00 -9.264649e+00 -1.000337e+01 -1.073767e+01 -1.144241e+01 -1.241332e+01 -1.303286e+01 -1.392863e+01 -1.434038e+01 -1.500502e+01 -1.519242e+01 -1.560509e+01 -1.559144e+01 
-1.620191e+01 -1.603284e+01 -1.602721e+01 -1.563566e+01 -1.543136e+01 -1.473939e+01 -1.429092e+01 -1.327581e+01 -1.255512e+01 -1.135488e+01 -1.045827e+01 -9.461368e+00 -8.703742e+00 -8.438355e+00 -7.792318e+00 -7.411960e+00 -6.331543e+00 -7.411960e+00 -7.792318e+00 -8.438355e+00 -8.703742e+00 -9.461368e+00 -1.045827e+01 -1.135488e+01 -1.255512e+01 -1.327581e+01 -1.429092e+01 -1.473939e+01 -1.543136e+01 -1.563566e+01 -1.602721e+01 -1.603284e+01 
-1.683604e+01 -1.666691e+01 -1.669162e+01 -1.630492e+01 -1.613770e+01 -1.539978e+01 -1.495323e+01 -1.378437e+01 -1.297227e+01 -1.154690e+01 -1.065436e+01 -9.398585e+00 -8.193890e+00 -7.048425e+00 -5.463040e+00 -4.829524e+00 -3.262149e+00 -4.829524e+00 -5.463040e+00 -7.048425e+00 -8.193890e+00 -9.398585e+00 -1.065436e+01 -1.154690e+01 -1.297227e+01 -1.378437e+01 -1.495323e+01 -1.539978e+01 -1.613770e+01 -1.630492e+01 -1.669162e+01 -1.666691e+01 
-1.748558e+01 -1.737319e+01 -1.737973e+01 -1.705598e+01 -1.688621e+01 -1.614132e+01 -1.567801e+01 -1.432013e+01 -1.335229e+01 -1.145315e+01 -1.000131e+01 -7.890486e+00 -6.823199e+00 -6.279736e+00 -5.145484e+00 -4.582867e+00 -2.483458e+00 -4.582867e+00 -5.145484e+00 -6.279736e+00 -6.823199e+00 -7.890486e+00 -1.000131e+01 -1.145315e+01 -1.335229e+01 -1.432013e+01 -1.567801e+01 -1.614132e+01 -1.688621e+01 -1.705598e+01 -1.737973e+01 -1.737319e+01 
-1.834467e+01 -1.826001e+01 -1.831810e+01 -1.805712e+01 -1.797504e+01 -1.722743e+01 -1.682280e+01 -1.519583e+01 -1.391784e+01 -1.151655e+01 -1.072943e+01 -9.056342e+00 -6.881217e+00 -3.703638e+00 6.177982e-02 1.454574e+00 4.585526e+00 1.454574e+00 6.177982e-02 -3.703638e+00 -6.881217e+00 -9.056342e+00 -1.072943e+01 -1.151655e+01 -1.391784e+01 -1.519583e+01 -1.682280e+01 -1.722743e+01 -1.797504e+01 -1.805712e+01 -1.831810e+01 -1.826001e+01 
-1.922564e+01 -1.924206e+01 -1.928748e+01 -1.918189e+01 -1.913116e+01 -1.850075e+01 -1.822060e+01 -1.641652e+01 -1.519294e+01 -1.225470e+01 -7.858179e+00 2.345006e+00 1.316400e+01 2.066273e+01 2.802815e+01 3.081311e+01 3.245593e+01 3.081311e+01 2.802815e+01 2.066273e+01 1.316400e+01 2.345006e+00 -7.858179e+00 -1.225470e+01 -1.519294e+01 -1.641652e+01 -1.822060e+01 -1.850075e+01 -1.913116e+01 -1.918189e+01 -1.928748e+01 -1.924206e+01 
-2.020144e+01 -2.029589e+01 -2.041869e+01 -2.049712e+01 -2.065298e+01 -2.026043e+01 -2.044981e+01 -1.826706e+01 -1.449666e+01 -3.756756e-01 1.834839e+01 3.248208e+01 4.211471e+01 4.441651e+01 4.590707e+01 4.598912e+01 4.571565e+01 4.598912e+01 4.590707e+01 4.441651e+01 4.211471e+01 3.248208e+01 1.834839e+01 -3.756756e-01 -1.449666e+01 -1.826706e+01 -2.044981e+01 -2.026043e+01 -2.065298e+01 -2.049712e+01 -2.041869e+01 -2.029589e+01 
-2.112395e+01 -2.137515e+01 -2.149053e+01 -2.188333e+01 -2.208561e+01 -2.216654e+01 -2.286587e+01 -1.694791e+01 1.422281e+00 2.896197e+01 4.544140e+01 4.858161e+01 4.831853e+01 4.662123e+01 4.601713e+01 4.512833e+01 4.533523e+01 4.512833e+01 4.601713e+01 4.662123e+01 4.831853e+01 4.858161e+01 4.544140e+01 2.896197e+01 1.422281e+00 -1.694791e+01 -2.286587e+01 -2.216654e+01 -2.208561e+01 -2.188333e+01 -2.149053e+01 -2.137515e+01 
-2.180308e+01 -2.221341e+01 -2.236118e+01 -2.309640e+01 -2.348448e+01 -2.424416e+01 -2.518280e+01 -1.514708e+00 3.254940e+01 5.007879e+01 5.104526e+01 4.917337e+01 4.830202e+01 4.735734e+01 4.760241e+01 4.718315e+01 4.745253e+01 4.718315e+01 4.760241e+01 4.735734e+01 4.830202e+01 4.917337e+01 5.104526e+01 5.007879e+01 3.254940e+01 -1.514708e+00 -2.518280e+01 -2.424416e+01 -2.348448e+01 -2.309640e+01 -2.236118e+01 -2.221341e+01 
-2.228000e+01 -2.288098e+01 -2.298489e+01 -2.420321e+01 -2.422206e+01 -2.658797e+01 -1.861464e+01 2.352656e+01 5.212791e+01 5.277271e+01 5.171145e+01 5.005732e+01 4.969161e+01 4.827719e+01 4.815790e+01 4.728123e+01 4.763766e+01 4.728123e+01 4.815790e+01 4.827719e+01 4.969161e+01 5.005732e+01 5.171145e+01 5.277271e+01 5.212791e+01 2.352656e+01 -1.861464e+01 -2.658797e+01 -2.422206e+01 -2.420321e+01 -2.298489e+01 -2.288098e+01 
-2.216820e+01 -2.301434e+01 -2.293788e+01 -2.460755e+01 -2.397709e+01 -2.740683e+01 -4.776457e+00 4.284335e+01 5.589032e+01 5.208658e+01 5.232676e+01 5.000925e+01 5.006144e+01 4.871194e+01 4.896252e+01 4.821021e+01 4.866119e+01 4.821021e+01 4.896252e+01 4.871194e+01 5.006144e+01 5.000925e+01 5.232676e+01 5.208658e+01 5.589032e+01 4.284335e+01 -4.776457e+00 -2.740683e+01 -2.397709e+01 -2.460755e+01 -2.293788e+01 -2.301434e+01 
-2.211674e+01 -2.297310e+01 -2.303539e+01 -2.450489e+01 -2.450697e+01 -2.613378e+01 4.871602e+00 5.189730e+01 5.627965e+01 5.282781e+01 5.280421e+01 5.052228e+01 5.056972e+01 4.906303e+01 4.916720e+01 4.824334e+01 4.869452e+01 4.824334e+01 4.916720e+01 4.906303e+01 5.056972e+01 5.052228e+01 5.280421e+01 5.282781e+01 5.627965e+01 5.189730e+01 4.871602e+00 -2.613378e+01 -2.450697e+01 -2.450489e+01 -2.303539e+01 -2.297310e+01 
-2.191728e+01 -2.281237e+01 -2.292914e+01 -2.425405e+01 -2.473853e+01 -2.506171e+01 8.797710e+00 5.488527e+01 5.617760e+01 5.306012e+01 5.303250e+01 5.053152e+01 5.066665e+01 4.914592e+01 4.941562e+01 4.854306e+01 4.905647e+01 4.854306e+01 4.941562e+01 4.914592e+01 5.066665e+01 5.053152e+01 5.303250e+01 5.306012e+01 5.617760e+01 5.488527e+01 8.797710e+00 -2.506171e+01 -2.473853e+01 -2.425405e+01 -2.292914e+01 -2.281237e+01 
-2.211674e+01 -2.297310e+01 -2.303539e+01 -2.450489e+01 -2.450697e+01 -2.613378e+01 4.871602e+00 5.189730e+01 5.627965e+01 5.282781e+01 5.280421e+01 5.052228e+01 5.056972e+01 4.906303e+01 4.916720e+01 4.824334e+01 4.869452e+01 4.824334e+01 4.916720e+01 4.906303e+01 5.056972e+01 5.052228e+01 5.280421e+01 5.282781e+01 5.627965e+01 5.189730e+01 4.871602e+00 -2.613378e+01 -2.450697e+01 -2.450489e+01 -2.303539e+01 -2.297310e+01 
-2.216820e+01 -2.301434e+01 -2.293788e+01 -2.460755e+01 -2.397709e+01 -2.740683e+01 -4.776457e+00 4.284335e+01 5.589032e+01 5.208658e+01 5.232676e+01 5.000925e+01 5.006144e+01 4.871194e+01 4.896252e+01 4.821021e+01 4.866119e+01 4.821021e+01 4.896252e+01 4.871194e+01 5.006144e+01 5.000925e+01 5.232676e+01 5.208658e+01 5.589032e+01 4.284335e+01 -4.776457e+00 -2.740683e+01 -2.397709e+01 -2.460755e+01 -2.293788e+01 -2.301434e+01 
-2.228000e+01 -2.288098e+01 -2.298489e+01 -2.420321e+01 -2.422206e+01 -2.658797e+01 -1.861464e+01 2.352656e+01 5.212791e+01 5.277271e+01 5.171145e+01 5.005732e+01 4.969161e+01 4.827719e+01 4.815790e+01 4.728123e+01 4.763766e+01 4.728123e+01 4.815790e+01 4.827719e+01 4.969161e+01 5.005732e+01 5.171145e+01 5.277271e+01 5.212791e+01 2.352656e+01 -1.861464e+01 -2.658797e+01 -2.422206e+01 -2.420321e+01 -2.298489e+01 -2.288098e+01 
-2.180308e+01 -2.221341e+01 -2.236118e+01 -2.309640e+01 -2.348448e+01 -2.424416e+01 -2.518280e+01 -1.514708e+00 3.254940e+01 5.007879e+01 5.104526e+01 4.917337e+01 4.830202e+01 4.735734e+01 4.760241e+01 4.718315e+01 4.745253e+01 4.718315e+01 4.760241e+01 4.735734e+01 4.830202e+01 4.917337e+01 5.104526e+01 5.007879e+01 3.254940e+01 -1.514708e+00 -2.518280e+01 -2.424416e+01 -2.348448e+01 -2.309640e+01 -2.236118e+01 -2.221341e+01 
-2.112395e+01 -2.137515e+01 -2.149053e+01 -2.188333e+01 -2.208561e+01 -2.216654e+01 -2.286587e+01 -1.694791e+01 1.422281e+00 2.896197e+01 4.544140e+01 4.858161e+01 4.831853e+01 4.662123e+01 4.601713e+01 4.512833e+01 4.533523e+01 4.512833e+01 4.601713e+01 4.662123e+01 4.831853e+01 4.858161e+01 4.544140e+01 2.896197e+01 1.422281e+00 -1.694791e+01 -2.286587e+01 -2.216654e+01 -2.208561e+01 -2.188333e+01 -2.149053e+01 -2.137515e+01 
-2.020144e+01 -2.029589e+01 -2.041869e+01 -2.049712e+01 -2.065298e+01 -2.026043e+01 -2.044981e+01 -1.826706e+01 -1.449666e+01 -3.756756e-01 1.834839e+01 3.248208e+01 4.211471e+01 4.441651e+01 4.590707e+01 4.598912e+01 4.571565e+01 4.598912e+01 4.590707e+01 4.441651e+01 4.211471e+01 3.248208e+01 1.834839e+01 -3.756756e-01 -1.449666e+01 -1.826706e+01 -2.044981e+01 -2.026043e+01 -2.065298e+01 -2.049712e+01 -2.041869e+01 -2.029589e+01 
-1.922564e+01 -1.924206e+01 -1.928748e+01 -1.918189e+01 -1.913116e+01 -1.850075e+01 -1.822060e+01 -1.641652e+01 -1.519294e+01 -1.225470e+01 -7.858179e+00 2.345006e+00 1.316400e+01 2.066273e+01 2.802815e+01 3.081311e+01 3.245593e+01 3.081311e+01 2.802815e+01 2.066273e+01 1.316400e+01 2.345006e+00 -7.858179e+00 -1.225470e+01 -1.519294e+01 -1.641652e+01 -1.822060e+01 -1.850075e+01 -1.913116e+01 -1.918189e+01 -1.928748e+01 -1.924206e+01 
-1.834467e+01 -1.826001e+01 -1.831810e+01 -1.805712e+01 -1.797504e+01 -1.722743e+01 -1.682280e+01 -1.519583e+01 -1.391784e+01 -1.151655e+01 -1.072943e+01 -9.056342e+00 -6.881217e+00 -3.703638e+00 6.177982e-02 1.454574e+00 4.585526e+00 1.454574e+00 6.177982e-02 -3.703638e+00 -6.881217e+00 -9.056342e+00 -1.072943e+01 -1.151655e+01 -1.391784e+01 -1.519583e+01 -1.682280e+01 -1.722743e+01 -1.797504e+01 -1.805712e+01 -1.831810e+01 -1.826001e+01 
-1.748558e+01 -1.737319e+01 -1.737973e+01 -1.705598e+01 -1.688621e+01 -1.614132e+01 -1.567801e+01 -1.432013e+01 -1.335229e+01 -1.145315e+01 -1.000131e+01 -7.890486e+00 -6.823199e+00 -6.279736e+00 -5.145484e+00 -4.582867e+00 -2.483458e+00 -4.582867e+00 -5.145484e+00 -6.279736e+00 -6.823199e+00 -7.890486e+00 -1.000131e+01 -1.145315e+01 -1.335229e+01 -1.432013e+01 -1.567801e+01 -1.614132e+01 -1.688621e+01 -1.705598e+01 -1.737973e+01 -1.737319e+01 
-1.683604e+01 -1.666691e+01 -1.669162e+01 -1.630492e+01 -1.613770e+01 -1.539978e+01 -1.495323e+01 -1.378437e+01 -1.297227e+01 -1.154690e+01 -1.065436e+01 -9.398585e+00 -8.193890e+00 -7.048425e+00 -5.463040e+00 -4.829524e+00 -3.262149e+00 -4.829524e+00 -5.463040e+00 -7.048425e+00 -8.193890e+00 -9.398585e+00 -1.065436e+01 -1.154690e+01 -1.297227e+01 -1.378437e+01 -1.495323e+01 -1.539978e+01 -1.613770e+01 -1.630492e+01 -1.669162e+01 -1.666691e+01 
-1.620191e+01 -1.603284e+01 -1.602721e+01 -1.563566e+01 -1.543136e+01 -1.473939e+01 -1.429092e+01 -1.327581e+01 -1.255512e+01 -1.135488e+01 -1.045827e+01 -9.461368e+00 -8.703742e+00 -8.438355e+00 -7.792318e+00 -7.411960e+00 -6.331543e+00 -7.411960e+00 -7.792318e+00 -8.438355e+00 -8.703742e+00 -9.461368e+00 -1.045827e+01 -1.135488e+01 -1.255512e+01 -1.327581e+01 -1.429092e+01 -1.473939e+01 -1.543136e+01 -1.563566e+01 -1.602721e+01 -1.603284e+01 
-1.579055e+01 -1.559144e+01 -1.560509e+01 -1.519242e+01 -1.500502e+01 -1.434038e+01 -1.392863e+01 -1.303286e+01 -1.241332e+01 -1.144241e+01 -1.073767e+01 -1.000337e+01 -9.264649e+00 -8.839307e+00 -8.138716e+00 -7.807428e+00 -6.977716e+00 -7.807428e+00 -8.138716e+00 -8.839307e+00 -9.264649e+00 -1.000337e+01 -1.073767e+01 -1.144241e+01 -1.241332e+01 -1.303286e+01 -1.392863e+01 -1.434038e+01 -1.500502e+01 -1.519242e+01 -1.560509e+01 -1.559144e+01 
-1.537863e+01 -1.519211e+01 -1.518632e+01 -1.479079e+01 -1.458621e+01 -1.396668e+01 -1.355778e+01 -1.275455e+01 -1.217431e+01 -1.134125e+01 -1.070529e+01 -1.011890e+01 -9.598032e+00 -9.400577e+00 -8.951220e+00 -8.684109e+00 -8.053092e+00 -8.684109e+00 -8.951220e+00 -9.400577e+00 -9.598032e+00 -1.011890e+01 -1.070529e+01 -1.134125e+01 -1.217431e+01 -1.275455e+01 -1.355778e+01 -1.396668e+01 -1.458621e+01 -1.479079e+01 -1.518632e+01 -1.519211e+01 
-1.518192e+01 -1.497706e+01 -1.498860e+01 -1.458316e+01 -1.439536e+01 -1.378919e+01 -1.340145e+01 -1.264539e+01 -1.209593e+01 -1.133586e+01 -1.072774e+01 -1.018074e+01 -9.590274e+00 -9.250517e+00 -8.571663e+00 -8.236381e+00 -7.551071e+00 -8.236381e+00 -8.571663e+00 -9.250517e+00 -9.590274e+00 -1.018074e+01 -1.072774e+01 -1.133586e+01 -1.209593e+01 -1.264539e+01 -1.340145e+01 -1.378919e+01 -1.439536e+01 -1.458316e+01 -1.498860e+01 -1.497706e+01 
-1.497797e+01 -1.478894e+01 -1.478508e+01 -1.439915e+01 -1.419986e+01 -1.362386e+01 -1.323462e+01 -1.252387e+01 -1.198769e+01 -1.128350e+01 -1.070823e+01 -1.020816e+01 -9.682801e+00 -9.390152e+00 -8.745258e+00 -8.416275e+00 -7.761896e+00 -8.416275e+00 -8.745258e+00 -9.390152e+00 -9.682801e+00 -1.020816e+01 -1.070823e+01 -1.128350e+01 -1.198769e+01 -1.252387e+01 -1.323462e+01 -1.362386e+01 -1.419986e+01 -1.439915e+01 -1.478508e+01 -1.478894e+01 
