# vtk DataFile Version 2.0
Comment goes here
ASCII

DATASET STRUCTURED_POINTS
FIELD FieldData 1
TIME 1 1 double
0.18000000
DIMENSIONS    32   32   1

ORIGIN    0.000   0.000   0.000
SPACING   0.03125 0.03125   1.000

POINT_DATA   1024
SCALARS P double
LOOKUP_TABLE default

-1.682916e+01 -1.688055e+01 -1.719430e+01 -1.762036e+01 -1.831434e+01 -1.914018e+01 -2.024442e+01 -2.147762e+01 -2.299409e+01 -2.455606e+01 -2.636839e+01 -2.804488e+01 -2.985961e+01 -3.135090e+01 -3.228471e+01 -3.198704e+01 -3.135065e+01 -3.198704e+01 -3.228471e+01 -3.135090e+01 -2.985961e+01 -2.804488e+01 -2.636839e+01 -2.455606e+01 -2.299409e+01 -2.147762e+01 -2.024442e+01 -1.914018e+01 -1.831434e+01 -1.762036e+01 -1.719430e+01 -1.688055e+01 
-1.682793e+01 -1.686032e+01 -1.718747e+01 -1.758491e+01 -1.828813e+01 -1.906749e+01 -2.017516e+01 -2.132638e+01 -2.283303e+01 -2.424024e+01 -2.601192e+01 -2.739363e+01 -2.905676e+01 -3.004602e+01 -3.049780e+01 -3.104774e+01 -3.060775e+01 -3.104774e+01 -3.049780e+01 -3.004602e+01 -2.905676e+01 -2.739363e+01 -2.601192e+01 -2.424024e+01 -2.283303e+01 -2.132638e+01 -2.017516e+01 -1.906749e+01 -1.828813e+01 -1.758491e+01 -1.718747e+01 -1.686032e+01 
-1.650269e+01 -1.655007e+01 -1.685725e+01 -1.727260e+01 -1.795255e+01 -1.877361e+01 -1.987205e+01 -2.113371e+01 -2.269754e+01 -2.437002e+01 -2.639066e+01 -2.835433e+01 -3.071237e+01 -3.283674e+01 -3.390464e+01 -3.227350e+01 -3.053886e+01 -3.227350e+01 -3.390464e+01 -3.283674e+01 -3.071237e+01 -2.835433e+01 -2.639066e+01 -2.437002e+01 -2.269754e+01 -2.113371e+01 -1.987205e+01 -1.877361e+01 -1.795255e+01 -1.727260e+01 -1.685725e+01 -1.655007e+01 
-1.618532e+01 -1.621390e+01 -1.652676e+01 -1.691205e+01 -1.759032e+01 -1.838106e+01 -1.948961e+01 -2.074378e+01 -2.237509e+01 -2.407967e+01 -2.633282e+01 -2.831004e+01 -3.132486e+01 -3.228117e+01 -3.205559e+01 -3.224164e+01 -3.113251e+01 -3.224164e+01 -3.205559e+01 -3.228117e+01 -3.132486e+01 -2.831004e+01 -2.633282e+01 -2.407967e+01 -2.237509e+01 -2.074378e+01 -1.948961e+01 -1.838106e+01 -1.759032e+01 -1.691205e+01 -1.652676e+01 -1.621390e+01 
-1.554133e+01 -1.557333e+01 -1.585947e+01 -1.623399e+01 -1.686269e+01 -1.765351e+01 -1.870783e+01 -2.003230e+01 -2.167593e+01 -2.367112e+01 -2.634174e+01 -2.918303e+01 -3.371475e+01 -3.898716e+01 -3.867137e+01 -3.038677e+01 -2.412097e+01 -3.038677e+01 -3.867137e+01 -3.898716e+01 -3.371475e+01 -2.918303e+01 -2.634174e+01 -2.367112e+01 -2.167593e+01 -2.003230e+01 -1.870783e+01 -1.765351e+01 -1.686269e+01 -1.623399e+01 -1.585947e+01 -1.557333e+01 
-1.492914e+01 -1.494116e+01 -1.522144e+01 -1.555732e+01 -1.616135e+01 -1.692754e+01 -1.797514e+01 -1.938970e+01 -2.117983e+01 -2.376211e+01 -2.734277e+01 -3.141765e+01 -3.434651e+01 -2.395937e+01 -4.854270e+00 1.386244e+01 2.390597e+01 1.386244e+01 -4.854270e+00 -2.395937e+01 -3.434651e+01 -3.141765e+01 -2.734277e+01 -2.376211e+01 -2.117983e+01 -1.938970e+01 -1.797514e+01 -1.692754e+01 -1.616135e+01 -1.555732e+01 -1.522144e+01 -1.494116e+01 
-1.400501e+01 -1.399989e+01 -1.424848e+01 -1.452424e+01 -1.504337e+01 -1.572726e+01 -1.663893e+01 -1.801405e+01 -1.966885e+01 -2.257734e+01 -2.610504e+01 -2.628004e+01 -1.196793e+01 1.913789e+01 4.487691e+01 5.654503e+01 6.043678e+01 5.654503e+01 4.487691e+01 1.913789e+01 -1.196793e+01 -2.628004e+01 -2.610504e+01 -2.257734e+01 -1.966885e+01 -1.801405e+01 -1.663893e+01 -1.572726e+01 -1.504337e+01 -1.452424e+01 -1.424848e+01 -1.399989e+01 
-1.313878e+01 -1.310472e+01 -1.333100e+01 -1.352947e+01 -1.397367e+01 -1.455476e+01 -1.533943e+01 -1.668026e+01 -1.826092e+01 -2.149367e+01 -2.356485e+01 -6.679311e+00 2.523380e+01 4.655414e+01 5.245426e+01 5.364448e+01 5.464738e+01 5.364448e+01 5.245426e+01 4.655414e+01 2.523380e+01 -6.679311e+00 -2.356485e+01 -2.149367e+01 -1.826092e+01 -1.668026e+01 -1.533943e+01 -1.455476e+01 -1.397367e+01 -1.352947e+01 -1.333100e+01 -1.310472e+01 
-1.201838e+01 -1.193931e+01 -1.213336e+01 -1.219939e+01 -1.252475e+01 -1.288329e+01 -1.343092e+01 -1.456112e+01 -1.564692e+01 -1.926898e+01 -1.341879e+01 2.127684e+01 4.720359e+01 4.960909e+01 5.102967e+01 5.223590e+01 5.343744e+01 5.223590e+01 5.102967e+01 4.960909e+01 4.720359e+01 2.127684e+01 -1.341879e+01 -1.926898e+01 -1.564692e+01 -1.456112e+01 -1.343092e+01 -1.288329e+01 -1.252475e+01 -1.219939e+01 -1.213336e+01 -1.193931e+01 
-1.098773e+01 -1.086562e+01 -1.102137e+01 -1.094192e+01 -1.115135e+01 -1.123743e+01 -1.164004e+01 -1.238921e+01 -1.329696e+01 -1.679593e+01 3.311936e-01 3.593716e+01 4.819189e+01 4.801684e+01 4.996537e+01 5.018459e+01 5.114871e+01 5.018459e+01 4.996537e+01 4.801684e+01 4.819189e+01 3.593716e+01 3.311936e-01 -1.679593e+01 -1.329696e+01 -1.238921e+01 -1.164004e+01 -1.123743e+01 -1.115135e+01 -1.094192e+01 -1.102137e+01 -1.086562e+01 
-9.814781e+00 -9.627804e+00 -9.757293e+00 -9.472031e+00 -9.575688e+00 -9.214493e+00 -9.560319e+00 -9.331338e+00 -1.083290e+01 -1.029210e+01 1.354714e+01 3.993922e+01 4.577234e+01 4.690515e+01 4.874047e+01 4.968376e+01 5.056918e+01 4.968376e+01 4.874047e+01 4.690515e+01 4.577234e+01 3.993922e+01 1.354714e+01 -1.029210e+01 -1.083290e+01 -9.331338e+00 -9.560319e+00 -9.214493e+00 -9.575688e+00 -9.472031e+00 -9.757293e+00 -9.627804e+00 
-8.777203e+00 -8.554486e+00 -8.624908e+00 -8.157759e+00 -8.066904e+00 -7.249865e+00 -7.243198e+00 -5.897908e+00 -7.168469e+00 2.818271e-03 2.713764e+01 4.275280e+01 4.523693e+01 4.722456e+01 4.890659e+01 4.969538e+01 5.041333e+01 4.969538e+01 4.890659e+01 4.722456e+01 4.523693e+01 4.275280e+01 2.713764e+01 2.818271e-03 -7.168469e+00 -5.897908e+00 -7.243198e+00 -7.249865e+00 -8.066904e+00 -8.157759e+00 -8.624908e+00 -8.554486e+00 
-7.738431e+00 -7.483815e+00 -7.528113e+00 -6.897942e+00 -6.590364e+00 -5.376285e+00 -4.825154e+00 -2.610986e+00 -2.191996e+00 1.277631e+01 3.895795e+01 4.541650e+01 4.615965e+01 4.760635e+01 4.887119e+01 4.953119e+01 5.013713e+01 4.953119e+01 4.887119e+01 4.760635e+01 4.615965e+01 4.541650e+01 3.895795e+01 1.277631e+01 -2.191996e+00 -2.610986e+00 -4.825154e+00 -5.376285e+00 -6.590364e+00 -6.897942e+00 -7.528113e+00 -7.483815e+00 
-6.900782e+00 -6.673753e+00 -6.692039e+00 -6.001636e+00 -5.424992e+00 -3.926788e+00 -2.598789e+00 1.531524e-01 2.870957e+00 2.435018e+01 4.709078e+01 4.746543e+01 4.753079e+01 4.816571e+01 4.909365e+01 4.940883e+01 4.994815e+01 4.940883e+01 4.909365e+01 4.816571e+01 4.753079e+01 4.746543e+01 4.709078e+01 2.435018e+01 2.870957e+00 1.531524e-01 -2.598789e+00 -3.926788e+00 -5.424992e+00 -6.001636e+00 -6.692039e+00 -6.673753e+00 
-6.118185e+00 -5.941309e+00 -6.040283e+00 -5.352989e+00 -4.608192e+00 -3.081076e+00 -1.368997e+00 1.001366e+00 4.762069e+00 2.912077e+01 4.961249e+01 4.818112e+01 4.823526e+01 4.832376e+01 4.901156e+01 4.912191e+01 4.956974e+01 4.912191e+01 4.901156e+01 4.832376e+01 4.823526e+01 4.818112e+01 4.961249e+01 2.912077e+01 4.762069e+00 1.001366e+00 -1.368997e+00 -3.081076e+00 -4.608192e+00 -5.352989e+00 -6.040283e+00 -5.941309e+00 
-5.438460e+00 -5.329193e+00 -5.502034e+00 -4.962580e+00 -4.238582e+00 -2.927314e+00 -1.324386e+00 1.252639e-01 2.800579e+00 2.772677e+01 4.868086e+01 4.796488e+01 4.843476e+01 4.839333e+01 4.903877e+01 4.900969e+01 4.944545e+01 4.900969e+01 4.903877e+01 4.839333e+01 4.843476e+01 4.796488e+01 4.868086e+01 2.772677e+01 2.800579e+00 1.252639e-01 -1.324386e+00 -2.927314e+00 -4.238582e+00 -4.962580e+00 -5.502034e+00 -5.329193e+00 
-4.913501e+00 -4.837859e+00 -5.121604e+00 -4.629456e+00 -3.947576e+00 -2.710542e+00 -1.368593e+00 -2.759748e-01 1.269780e+00 2.577202e+01 4.759700e+01 4.761444e+01 4.834693e+01 4.830503e+01 4.892997e+01 4.888141e+01 4.928664e+01 4.888141e+01 4.892997e+01 4.830503e+01 4.834693e+01 4.761444e+01 4.759700e+01 2.577202e+01 1.269780e+00 -2.759748e-01 -1.368593e+00 -2.710542e+00 -3.947576e+00 -4.629456e+00 -5.121604e+00 -4.837859e+00 
-5.438460e+00 -5.329193e+00 -5.502034e+00 -4.962580e+00 -4.238582e+00 -2.927314e+00 -1.324386e+00 1.252639e-01 2.800579e+00 2.772677e+01 4.868086e+01 4.796488e+01 4.843476e+01 4.839333e+01 4.903877e+01 4.900969e+01 4.944545e+01 4.900969e+01 4.903877e+01 4.839333e+01 4.843476e+01 4.796488e+01 4.868086e+01 2.772677e+01 2.800579e+00 1.252639e-01 -1.324386e+00 -2.927314e+00 -4.238582e+00 -4.962580e+00 -5.502034e+00 -5.329193e+00 
-6.118185e+00 -5.941309e+00 -6.040283e+00 -5.352989e+00 -4.608192e+00 -3.081076e+00 -1.368997e+00 1.001366e+00 4.762069e+00 2.912077e+01 4.961249e+01 4.818112e+01 4.823526e+01 4.832376e+01 4.901156e+01 4.912191e+01 4.956974e+01 4.912191e+01 4.901156e+01 4.832376e+01 4.823526e+01 4.818112e+01 4.961249e+01 2.912077e+01 4.762069e+00 1.001366e+00 -1.368997e+00 -3.081076e+00 -4.608192e+00 -5.352989e+00 -6.040283e+00 -5.941309e+00 
-6.900782e+00 -6.673753e+00 -6.692039e+00 -6.001636e+00 -5.424992e+00 -3.926788e+00 -2.598789e+00 1.531524e-01 2.870957e+00 2.435018e+01 4.709078e+01 4.746543e+01 4.753079e+01 4.816571e+01 4.909365e+01 4.940883e+01 4.994815e+01 4.940883e+01 4.909365e+01 4.816571e+01 4.753079e+01 4.746543e+01 4.709078e+01 2.435018e+01 2.870957e+00 1.531524e-01 -2.598789e+00 -3.926788e+00 -5.424992e+00 -6.001636e+00 -6.692039e+00 -6.673753e+00 
-7.738431e+00 -7.483815e+00 -7.528113e+00 -6.897942e+00 -6.590364e+00 -5.376285e+00 -4.825154e+00 -2.610986e+00 -2.191996e+00 1.277631e+01 3.895795e+01 4.541650e+01 4.615965e+01 4.760635e+01 4.887119e+01 4.953119e+01 5.013713e+01 4.953119e+01 4.887119e+01 4.760635e+01 4.615965e+01 4.541650e+01 3.895795e+01 1.277631e+01 -2.191996e+00 -2.610986e+00 -4.825154e+00 -5.376285e+00 -6.590364e+00 -6.897942e+00 -7.528113e+00 -7.483815e+00 
-8.777203e+00 -8.554486e+00 -8.624908e+00 -8.157759e+00 -8.066904e+00 -7.249865e+00 -7.243198e+00 -5.897908e+00 -7.168469e+00 2.818271e-03 2.713764e+01 4.275280e+01 4.523693e+01 4.722456e+01 4.890659e+01 4.969538e+01 5.041333e+01 4.969538e+01 4.890659e+01 4.722456e+01 4.523693e+01 4.275280e+01 2.713764e+01 2.818271e-03 -7.168469e+00 -5.897908e+00 -7.243198e+00 -7.249865e+00 -8.066904e+00 -8.157759e+00 -8.624908e+00 -8.554486e+00 
-9.814781e+00 -9.627804e+00 -9.757293e+00 -9.472031e+00 -9.575688e+00 -9.214493e+00 -9.560319e+00 -9.331338e+00 -1.083290e+01 -1.029210e+01 1.354714e+01 3.993922e+01 4.577234e+01 4.690515e+01 4.874047e+01 4.968376e+01 5.056918e+01 4.968376e+01 4.874047e+01 4.690515e+01 4.577234e+01 3.993922e+01 1.354714e+01 -1.029210e+01 -1.083290e+01 -9.331338e+00 -9.560319e+00 -9.214493e+00 -9.575688e+00 -9.472031e+00 -9.757293e+00 -9.627804e+00 
-1.098773e+01 -1.086562e+01 -1.102137e+01 -1.094192e+01 -1.115135e+01 -1.123743e+01 -1.164004e+01 -1.238921e+01 -1.329696e+01 -1.679593e+01 3.311936e-01 3.593716e+01 4.819189e+01 4.801684e+01 4.996537e+01 5.018459e+01 5.114871e+01 5.018459e+01 4.996537e+01 4.801684e+01 4.819189e+01 3.593716e+01 3.311936e-01 -1.679593e+01 -1.329696e+01 -1.238921e+01 -1.164004e+01 -1.123743e+01 -1.115135e+01 -1.094192e+01 -1.102137e+01 -1.086562e+01 
-1.201838e+01 -1.193931e+01 -1.213336e+01 -1.219939e+01 -1.252475e+01 -1.288329e+01 -1.343092e+01 -1.456112e+01 -1.564692e+01 -1.926898e+01 -1.341879e+01 2.127684e+01 4.720359e+01 4.960909e+01 5.102967e+01 5.223590e+01 5.343744e+01 5.223590e+01 5.102967e+01 4.960909e+01 4.720359e+01 2.127684e+01 -1.341879e+01 -1.926898e+01 -1.564692e+01 -1.456112e+01 -1.343092e+01 -1.288329e+01 -1.252475e+01 -1.219939e+01 -1.213336e+01 -1.193931e+01 
-1.313878e+01 -1.310472e+01 -1.333100e+01 -1.352947e+01 -1.397367e+01 -1.455476e+01 -1.533943e+01 -1.668026e+01 -1.826092e+01 -2.149367e+01 -2.356485e+01 -6.679311e+00 2.523380e+01 4.655414e+01 5.245426e+01 5.364448e+01 5.464738e+01 5.364448e+01 5.245426e+01 4.655414e+01 2.523380e+01 -6.679311e+00 -2.356485e+01 -2.149367e+01 -1.826092e+01 -1.668026e+01 -1.533943e+01 -1.455476e+01 -1.397367e+01 -1.352947e+01 -1.333100e+01 -1.310472e+01 
-1.400501e+01 -1.399989e+01 -1.424848e+01 -1.452424e+01 -1.504337e+01 -1.572726e+01 -1.663893e+01 -1.801405e+01 -1.966885e+01 -2.257734e+01 -2.610504e+01 -2.628004e+01 -1.196793e+01 1.913789e+01 4.487691e+01 5.654503e+01 6.043678e+01 5.654503e+01 4.487691e+01 1.913789e+01 -1.196793e+01 -2.628004e+01 -2.610504e+01 -2.257734e+01 -1.966885e+01 -1.801405e+01 -1.663893e+01 -1.572726e+01 -1.504337e+01 -1.452424e+01 -1.424848e+01 -1.399989e+01 
-1.492914e+01 -1.494116e+01 -1.522144e+01 -1.555732e+01 -1.616135e+01 -1.692754e+01 -1.797514e+01 -1.938970e+01 -2.117983e+01 -2.376211e+01 -2.734277e+01 -3.141765e+01 -3.434651e+01 -2.395937e+01 -4.854270e+00 1.386244e+01 2.390597e+01 1.386244e+01 -4.854270e+00 -2.395937e+01 -3.434651e+01 -3.141765e+01 -2.734277e+01 -2.376211e+01 -2.117983e+01 -1.938970e+01 -1.797514e+01 -1.692754e+01 -1.616135e+01 -1.555732e+01 -1.522144e+01 -1.494116e+01 
-1.554133e+01 -1.557333e+01 -1.585947e+01 -1.623399e+01 -1.686269e+01 -1.765351e+01 -1.870783e+01 -2.003230e+01 -2.167593e+01 -2.367112e+01 -2.634174e+01 -2.918303e+01 -3.371475e+01 -3.898716e+01 -3.867137e+01 -3.038677e+01 -2.412097e+01 -3.038677e+01 -3.867137e+01 -3.898716e+01 -3.371475e+01 -2.918303e+01 -2.634174e+01 -2.367112e+01 -2.167593e+01 -2.003230e+01 -1.870783e+01 -1.765351e+01 -1.686269e+01 -1.623399e+01 -1.585947e+01 -1.557333e+01 
-1.618532e+01 -1.621390e+01 -1.652676e+01 -1.691205e+01 -1.759032e+01 -1.838106e+01 -1.948961e+01 -2.074378e+01 -2.237509e+01 -2.407967e+01 -2.633282e+01 -2.831004e+01 -3.132486e+01 -3.228117e+01 -3.205559e+01 -3.224164e+01 -3.113251e+01 -3.224164e+01 -3.205559e+01 -3.228117e+01 -3.132486e+01 -2.831004e+01 -2.633282e+01 -2.407967e+01 -2.237509e+01 -2.074378e+01 -1.948961e+01 -1.838106e+01 -1.759032e+01 -1.691205e+01 -1.652676e+01 -1.621390e+01 
-1.650269e+01 -1.655007e+01 -1.685725e+01 -1.727260e+01 -1.795255e+01 -1.877361e+01 -1.987205e+01 -2.113371e+01 -2.269754e+01 -2.437002e+01 -2.639066e+01 -2.835433e+01 -3.071237e+01 -3.283674e+01 -3.390464e+01 -3.227350e+01 -3.053886e+01 -3.227350e+01 -3.390464e+01 -3.283674e+01 -3.071237e+01 -2.835433e+01 -2.639066e+01 -2.437002e+01 -2.269754e+01 -2.113371e+01 -1.987205e+01 -1.877361e+01 -1.795255e+01 -1.727260e+01 -1.685725e+01 -1.655007e+01 
-1.682793e+01 -1.686032e+01 -1.718747e+01 -1.758491e+01 -1.828813e+01 -1.906749e+01 -2.017516e+01 -2.132638e+01 -2.283303e+01 -2.424024e+01 -2.601192e+01 -2.739363e+01 -2.905676e+01 -3.004602e+01 -3.049780e+01 -3.104774e+01 -3.060775e+01 -3.104774e+01 -3.049780e+01 -3.004602e+01 -2.905676e+01 -2.739363e+01 -2.601192e+01 -2.424024e+01 -2.283303e+01 -2.132638e+01 -2.017516e+01 -1.906749e+01 -1.828813e+01 -1.758491e+01 -1.718747e+01 -1.686032e+01 
