# vtk DataFile Version 2.0
Comment goes here
ASCII

DATASET STRUCTURED_POINTS
FIELD FieldData 1
TIME 1 1 double
0.16000000
DIMENSIONS    32   32   1

ORIGIN    0.000   0.000   0.000
SPACING   0.03125 0.03125   1.000

POINT_DATA   1024
SCALARS P double
LOOKUP_TABLE default

-1.895444e+01 -1.907792e+01 -1.938726e+01 -1.995185e+01 -2.072215e+01 -2.176375e+01 -2.305066e+01 -2.460505e+01 -2.644736e+01 -2.848758e+01 -3.078395e+01 -3.308262e+01 -3.536019e+01 -3.718783e+01 -3.850247e+01 -3.898108e+01 -3.923739e+01 -3.898108e+01 -3.850247e+01 -3.718783e+01 -3.536019e+01 -3.308262e+01 -3.078395e+01 -2.848758e+01 -2.644736e+01 -2.460505e+01 -2.305066e+01 -2.176375e+01 -2.072215e+01 -1.995185e+01 -1.938726e+01 -1.907792e+01 
-1.878217e+01 -1.892946e+01 -1.920986e+01 -1.979711e+01 -2.053334e+01 -2.160516e+01 -2.286165e+01 -2.447310e+01 -2.632308e+01 -2.849401e+01 -3.093290e+01 -3.354776e+01 -3.628696e+01 -3.877350e+01 -4.116071e+01 -4.203861e+01 -4.218772e+01 -4.203861e+01 -4.116071e+01 -3.877350e+01 -3.628696e+01 -3.354776e+01 -3.093290e+01 -2.849401e+01 -2.632308e+01 -2.447310e+01 -2.286165e+01 -2.160516e+01 -2.053334e+01 -1.979711e+01 -1.920986e+01 -1.892946e+01 
-1.852753e+01 -1.864705e+01 -1.894335e+01 -1.949154e+01 -2.023672e+01 -2.126418e+01 -2.253697e+01 -2.411227e+01 -2.601361e+01 -2.817803e+01 -3.071611e+01 -3.337035e+01 -3.607759e+01 -3.834025e+01 -3.986671e+01 -4.042249e+01 -4.075757e+01 -4.042249e+01 -3.986671e+01 -3.834025e+01 -3.607759e+01 -3.337035e+01 -3.071611e+01 -2.817803e+01 -2.601361e+01 -2.411227e+01 -2.253697e+01 -2.126418e+01 -2.023672e+01 -1.949154e+01 -1.894335e+01 -1.864705e+01 
-1.793793e+01 -1.807338e+01 -1.832768e+01 -1.887359e+01 -1.955078e+01 -2.057552e+01 -2.176984e+01 -2.337686e+01 -2.524865e+01 -2.755359e+01 -3.029058e+01 -3.348968e+01 -3.689714e+01 -4.093016e+01 -4.558675e+01 -4.650761e+01 -4.565342e+01 -4.650761e+01 -4.558675e+01 -4.093016e+01 -3.689714e+01 -3.348968e+01 -3.029058e+01 -2.755359e+01 -2.524865e+01 -2.337686e+01 -2.176984e+01 -2.057552e+01 -1.955078e+01 -1.887359e+01 -1.832768e+01 -1.807338e+01 
-1.727865e+01 -1.738194e+01 -1.763431e+01 -1.811904e+01 -1.876614e+01 -1.971898e+01 -2.088864e+01 -2.246002e+01 -2.443215e+01 -2.684995e+01 -3.012101e+01 -3.397964e+01 -3.830646e+01 -3.915042e+01 -2.916819e+01 -1.473236e+01 -8.846437e+00 -1.473236e+01 -2.916819e+01 -3.915042e+01 -3.830646e+01 -3.397964e+01 -3.012101e+01 -2.684995e+01 -2.443215e+01 -2.246002e+01 -2.088864e+01 -1.971898e+01 -1.876614e+01 -1.811904e+01 -1.763431e+01 -1.738194e+01 
-1.632128e+01 -1.642506e+01 -1.662219e+01 -1.706241e+01 -1.759238e+01 -1.847593e+01 -1.946227e+01 -2.097142e+01 -2.270821e+01 -2.498335e+01 -2.811018e+01 -3.026719e+01 -2.067232e+01 9.408788e+00 4.181599e+01 6.137226e+01 6.766615e+01 6.137226e+01 4.181599e+01 9.408788e+00 -2.067232e+01 -3.026719e+01 -2.811018e+01 -2.498335e+01 -2.270821e+01 -2.097142e+01 -1.946227e+01 -1.847593e+01 -1.759238e+01 -1.706241e+01 -1.662219e+01 -1.642506e+01 
-1.532289e+01 -1.538567e+01 -1.555720e+01 -1.589688e+01 -1.632527e+01 -1.706388e+01 -1.786776e+01 -1.922408e+01 -2.077431e+01 -2.284577e+01 -2.636547e+01 -1.844533e+01 1.799956e+01 5.853084e+01 7.522305e+01 7.811453e+01 7.845477e+01 7.811453e+01 7.522305e+01 5.853084e+01 1.799956e+01 -1.844533e+01 -2.636547e+01 -2.284577e+01 -2.077431e+01 -1.922408e+01 -1.786776e+01 -1.706388e+01 -1.632527e+01 -1.589688e+01 -1.555720e+01 -1.538567e+01 
-1.410440e+01 -1.414305e+01 -1.425314e+01 -1.448679e+01 -1.475322e+01 -1.532561e+01 -1.582766e+01 -1.712691e+01 -1.807012e+01 -2.099034e+01 -2.137320e+01 9.796333e+00 5.449468e+01 6.980825e+01 6.873679e+01 6.902316e+01 6.918729e+01 6.902316e+01 6.873679e+01 6.980825e+01 5.449468e+01 9.796333e+00 -2.137320e+01 -2.099034e+01 -1.807012e+01 -1.712691e+01 -1.582766e+01 -1.532561e+01 -1.475322e+01 -1.448679e+01 -1.425314e+01 -1.414305e+01 
-1.289885e+01 -1.288161e+01 -1.295177e+01 -1.303253e+01 -1.313253e+01 -1.345694e+01 -1.356016e+01 -1.462509e+01 -1.445760e+01 -1.788442e+01 -7.524747e+00 3.603848e+01 6.387231e+01 6.438798e+01 6.569563e+01 6.637407e+01 6.725435e+01 6.637407e+01 6.569563e+01 6.438798e+01 6.387231e+01 3.603848e+01 -7.524747e+00 -1.788442e+01 -1.445760e+01 -1.462509e+01 -1.356016e+01 -1.345694e+01 -1.313253e+01 -1.303253e+01 -1.295177e+01 -1.288161e+01 
-1.159095e+01 -1.152238e+01 -1.153947e+01 -1.143342e+01 -1.136929e+01 -1.127761e+01 -1.111985e+01 -1.124044e+01 -1.057939e+01 -1.159931e+01 1.054586e+01 4.873638e+01 6.016288e+01 5.856978e+01 5.915056e+01 5.929767e+01 5.981488e+01 5.929767e+01 5.915056e+01 5.856978e+01 6.016288e+01 4.873638e+01 1.054586e+01 -1.159931e+01 -1.057939e+01 -1.124044e+01 -1.111985e+01 -1.127761e+01 -1.136929e+01 -1.143342e+01 -1.153947e+01 -1.152238e+01 
-1.037653e+01 -1.023860e+01 -1.023212e+01 -9.918548e+00 -9.735365e+00 -9.176922e+00 -8.883815e+00 -7.925626e+00 -7.422366e+00 -5.038795e+00 2.073054e+01 5.018721e+01 5.474969e+01 5.465873e+01 5.584339e+01 5.660026e+01 5.724465e+01 5.660026e+01 5.584339e+01 5.465873e+01 5.474969e+01 5.018721e+01 2.073054e+01 -5.038795e+00 -7.422366e+00 -7.925626e+00 -8.883815e+00 -9.176922e+00 -9.735365e+00 -9.918548e+00 -1.023212e+01 -1.023860e+01 
-9.204850e+00 -9.019798e+00 -8.977080e+00 -8.494550e+00 -8.157333e+00 -7.223200e+00 -6.588270e+00 -4.828881e+00 -4.086738e+00 1.374996e+00 2.687594e+01 4.612522e+01 4.826658e+01 4.989500e+01 5.104437e+01 5.197285e+01 5.219401e+01 5.197285e+01 5.104437e+01 4.989500e+01 4.826658e+01 4.612522e+01 2.687594e+01 1.374996e+00 -4.086738e+00 -4.828881e+00 -6.588270e+00 -7.223200e+00 -8.157333e+00 -8.494550e+00 -8.977080e+00 -9.019798e+00 
-8.211905e+00 -7.989499e+00 -7.945794e+00 -7.316256e+00 -6.819948e+00 -5.572562e+00 -4.612573e+00 -2.413666e+00 -1.031767e+00 6.438682e+00 3.055026e+01 4.312970e+01 4.401979e+01 4.682476e+01 4.807639e+01 4.945248e+01 4.956057e+01 4.945248e+01 4.807639e+01 4.682476e+01 4.401979e+01 4.312970e+01 3.055026e+01 6.438682e+00 -1.031767e+00 -2.413666e+00 -4.612573e+00 -5.572562e+00 -6.819948e+00 -7.316256e+00 -7.945794e+00 -7.989499e+00 
-7.432275e+00 -7.210000e+00 -7.175806e+00 -6.480881e+00 -5.868440e+00 -4.418062e+00 -3.063297e+00 -7.776189e-01 1.466886e+00 9.008224e+00 2.889865e+01 3.782649e+01 3.949898e+01 4.290139e+01 4.414610e+01 4.575809e+01 4.568575e+01 4.575809e+01 4.414610e+01 4.290139e+01 3.949898e+01 3.782649e+01 2.889865e+01 9.008224e+00 1.466886e+00 -7.776189e-01 -3.063297e+00 -4.418062e+00 -5.868440e+00 -6.480881e+00 -7.175806e+00 -7.210000e+00 
-6.848218e+00 -6.678721e+00 -6.755222e+00 -6.035629e+00 -5.217034e+00 -3.590610e+00 -2.019656e+00 -8.738686e-02 2.371705e+00 8.039099e+00 2.469706e+01 3.379690e+01 3.690636e+01 4.088293e+01 4.243335e+01 4.435152e+01 4.424279e+01 4.435152e+01 4.243335e+01 4.088293e+01 3.690636e+01 3.379690e+01 2.469706e+01 8.039099e+00 2.371705e+00 -8.738686e-02 -2.019656e+00 -3.590610e+00 -5.217034e+00 -6.035629e+00 -6.755222e+00 -6.678721e+00 
-6.431532e+00 -6.275106e+00 -6.373432e+00 -5.658703e+00 -4.737611e+00 -3.053355e+00 -1.405448e+00 6.896002e-02 2.459303e+00 6.201416e+00 2.024414e+01 3.001770e+01 3.399844e+01 3.840851e+01 4.015902e+01 4.223900e+01 4.210071e+01 4.223900e+01 4.015902e+01 3.840851e+01 3.399844e+01 3.001770e+01 2.024414e+01 6.201416e+00 2.459303e+00 6.896002e-02 -1.405448e+00 -3.053355e+00 -4.737611e+00 -5.658703e+00 -6.373432e+00 -6.275106e+00 
-5.861639e+00 -5.750148e+00 -5.915509e+00 -5.155523e+00 -4.003844e+00 -2.208345e+00 -6.283846e-01 8.456214e-01 3.447077e+00 6.880434e+00 1.966665e+01 2.967995e+01 3.391755e+01 3.856644e+01 4.037082e+01 4.254998e+01 4.240106e+01 4.254998e+01 4.037082e+01 3.856644e+01 3.391755e+01 2.967995e+01 1.966665e+01 6.880434e+00 3.447077e+00 8.456214e-01 -6.283846e-01 -2.208345e+00 -4.003844e+00 -5.155523e+00 -5.915509e+00 -5.750148e+00 
-6.431532e+00 -6.275106e+00 -6.373432e+00 -5.658703e+00 -4.737611e+00 -3.053355e+00 -1.405448e+00 6.896002e-02 2.459303e+00 6.201416e+00 2.024414e+01 3.001770e+01 3.399844e+01 3.840851e+01 4.015902e+01 4.223900e+01 4.210071e+01 4.223900e+01 4.015902e+01 3.840851e+01 3.399844e+01 3.001770e+01 2.024414e+01 6.201416e+00 2.459303e+00 6.896002e-02 -1.405448e+00 -3.053355e+00 -4.737611e+00 -5.658703e+00 -6.373432e+00 -6.275106e+00 
-6.848218e+00 -6.678721e+00 -6.755222e+00 -6.035629e+00 -5.217034e+00 -3.590610e+00 -2.019656e+00 -8.738686e-02 2.371705e+00 8.039099e+00 2.469706e+01 3.379690e+01 3.690636e+01 4.088293e+01 4.243335e+01 4.435152e+01 4.424279e+01 4.435152e+01 4.243335e+01 4.088293e+01 3.690636e+01 3.379690e+01 2.469706e+01 8.039099e+00 2.371705e+00 -8.738686e-02 -2.019656e+00 -3.590610e+00 -5.217034e+00 -6.035629e+00 -6.755222e+00 -6.678721e+00 
-7.432275e+00 -7.210000e+00 -7.175806e+00 -6.480881e+00 -5.868440e+00 -4.418062e+00 -3.063297e+00 -7.776189e-01 1.466886e+00 9.008224e+00 2.889865e+01 3.782649e+01 3.949898e+01 4.290139e+01 4.414610e+01 4.575809e+01 4.568575e+01 4.575809e+01 4.414610e+01 4.290139e+01 3.949898e+01 3.782649e+01 2.889865e+01 9.008224e+00 1.466886e+00 -7.776189e-01 -3.063297e+00 -4.418062e+00 -5.868440e+00 -6.480881e+00 -7.175806e+00 -7.210000e+00 
-8.211905e+00 -7.989499e+00 -7.945794e+00 -7.316256e+00 -6.819948e+00 -5.572562e+00 -4.612573e+00 -2.413666e+00 -1.031767e+00 6.438682e+00 3.055026e+01 4.312970e+01 4.401979e+01 4.682476e+01 4.807639e+01 4.945248e+01 4.956057e+01 4.945248e+01 4.807639e+01 4.682476e+01 4.401979e+01 4.312970e+01 3.055026e+01 6.438682e+00 -1.031767e+00 -2.413666e+00 -4.612573e+00 -5.572562e+00 -6.819948e+00 -7.316256e+00 -7.945794e+00 -7.989499e+00 
-9.204850e+00 -9.019798e+00 -8.977080e+00 -8.494550e+00 -8.157333e+00 -7.223200e+00 -6.588270e+00 -4.828881e+00 -4.086738e+00 1.374996e+00 2.687594e+01 4.612522e+01 4.826658e+01 4.989500e+01 5.104437e+01 5.197285e+01 5.219401e+01 5.197285e+01 5.104437e+01 4.989500e+01 4.826658e+01 4.612522e+01 2.687594e+01 1.374996e+00 -4.086738e+00 -4.828881e+00 -6.588270e+00 -7.223200e+00 -8.157333e+00 -8.494550e+00 -8.977080e+00 -9.019798e+00 
-1.037653e+01 -1.023860e+01 -1.023212e+01 -9.918548e+00 -9.735365e+00 -9.176922e+00 -8.883815e+00 -7.925626e+00 -7.422366e+00 -5.038795e+00 2.073054e+01 5.018721e+01 5.474969e+01 5.465873e+01 5.584339e+01 5.660026e+01 5.724465e+01 5.660026e+01 5.584339e+01 5.465873e+01 5.474969e+01 5.018721e+01 2.073054e+01 -5.038795e+00 -7.422366e+00 -7.925626e+00 -8.883815e+00 -9.176922e+00 -9.735365e+00 -9.918548e+00 -1.023212e+01 -1.023860e+01 
-1.159095e+01 -1.152238e+01 -1.153947e+01 -1.143342e+01 -1.136929e+01 -1.127761e+01 -1.111985e+01 -1.124044e+01 -1.057939e+01 -1.159931e+01 1.054586e+01 4.873638e+01 6.016288e+01 5.856978e+01 5.915056e+01 5.929767e+01 5.981488e+01 5.929767e+01 5.915056e+01 5.856978e+01 6.016288e+01 4.873638e+01 1.054586e+01 -1.159931e+01 -1.057939e+01 -1.124044e+01 -1.111985e+01 -1.127761e+01 -1.136929e+01 -1.143342e+01 -1.153947e+01 -1.152238e+01 
-1.289885e+01 -1.288161e+01 -1.295177e+01 -1.303253e+01 -1.313253e+01 -1.345694e+01 -1.356016e+01 -1.462509e+01 -1.445760e+01 -1.788442e+01 -7.524747e+00 3.603848e+01 6.387231e+01 6.438798e+01 6.569563e+01 6.637407e+01 6.725435e+01 6.637407e+01 6.569563e+01 6.438798e+01 6.387231e+01 3.603848e+01 -7.524747e+00 -1.788442e+01 -1.445760e+01 -1.462509e+01 -1.356016e+01 -1.345694e+01 -1.313253e+01 -1.303253e+01 -1.295177e+01 -1.288161e+01 
-1.410440e+01 -1.414305e+01 -1.425314e+01 -1.448679e+01 -1.475322e+01 -1.532561e+01 -1.582766e+01 -1.712691e+01 -1.807012e+01 -2.099034e+01 -2.137320e+01 9.796333e+00 5.449468e+01 6.980825e+01 6.873679e+01 6.902316e+01 6.918729e+01 6.902316e+01 6.873679e+01 6.980825e+01 5.449468e+01 9.796333e+00 -2.137320e+01 -2.099034e+01 -1.807012e+01 -1.712691e+01 -1.582766e+01 -1.532561e+01 -1.475322e+01 -1.448679e+01 -1.425314e+01 -1.414305e+01 
-1.532289e+01 -1.538567e+01 -1.555720e+01 -1.589688e+01 -1.632527e+01 -1.706388e+01 -1.786776e+01 -1.922408e+01 -2.077431e+01 -2.284577e+01 -2.636547e+01 -1.844533e+01 1.799956e+01 5.853084e+01 7.522305e+01 7.811453e+01 7.845477e+01 7.811453e+01 7.522305e+01 5.853084e+01 1.799956e+01 -1.844533e+01 -2.636547e+01 -2.284577e+01 -2.077431e+01 -1.922408e+01 -1.786776e+01 -1.706388e+01 -1.632527e+01 -1.589688e+01 -1.555720e+01 -1.538567e+01 
-1.632128e+01 -1.642506e+01 -1.662219e+01 -1.706241e+01 -1.759238e+01 -1.847593e+01 -1.946227e+01 -2.097142e+01 -2.270821e+01 -2.498335e+01 -2.811018e+01 -3.026719e+01 -2.067232e+01 9.408788e+00 4.181599e+01 6.137226e+01 6.766615e+01 6.137226e+01 4.181599e+01 9.408788e+00 -2.067232e+01 -3.026719e+01 -2.811018e+01 -2.498335e+01 -2.270821e+01 -2.097142e+01 -1.946227e+01 -1.847593e+01 -1.759238e+01 -1.706241e+01 -1.662219e+01 -1.642506e+01 
-1.727865e+01 -1.738194e+01 -1.763431e+01 -1.811904e+01 -1.876614e+01 -1.971898e+01 -2.088864e+01 -2.246002e+01 -2.443215e+01 -2.684995e+01 -3.012101e+01 -3.397964e+01 -3.830646e+01 -3.915042e+01 -2.916819e+01 -1.473236e+01 -8.846437e+00 -1.473236e+01 -2.916819e+01 -3.915042e+01 -3.830646e+01 -3.397964e+01 -3.012101e+01 -2.684995e+01 -2.443215e+01 -2.246002e+01 -2.088864e+01 -1.971898e+01 -1.876614e+01 -1.811904e+01 -1.763431e+01 -1.738194e+01 
-1.793793e+01 -1.807338e+01 -1.832768e+01 -1.887359e+01 -1.955078e+01 -2.057552e+01 -2.176984e+01 -2.337686e+01 -2.524865e+01 -2.755359e+01 -3.029058e+01 -3.348968e+01 -3.689714e+01 -4.093016e+01 -4.558675e+01 -4.650761e+01 -4.565342e+01 -4.650761e+01 -4.558675e+01 -4.093016e+01 -3.689714e+01 -3.348968e+01 -3.029058e+01 -2.755359e+01 -2.524865e+01 -2.337686e+01 -2.176984e+01 -2.057552e+01 -1.955078e+01 -1.887359e+01 -1.832768e+01 -1.807338e+01 
-1.852753e+01 -1.864705e+01 -1.894335e+01 -1.949154e+01 -2.023672e+01 -2.126418e+01 -2.253697e+01 -2.411227e+01 -2.601361e+01 -2.817803e+01 -3.071611e+01 -3.337035e+01 -3.607759e+01 -3.834025e+01 -3.986671e+01 -4.042249e+01 -4.075757e+01 -4.042249e+01 -3.986671e+01 -3.834025e+01 -3.607759e+01 -3.337035e+01 -3.071611e+01 -2.817803e+01 -2.601361e+01 -2.411227e+01 -2.253697e+01 -2.126418e+01 -2.023672e+01 -1.949154e+01 -1.894335e+01 -1.864705e+01 
-1.878217e+01 -1.892946e+01 -1.920986e+01 -1.979711e+01 -2.053334e+01 -2.160516e+01 -2.286165e+01 -2.447310e+01 -2.632308e+01 -2.849401e+01 -3.093290e+01 -3.354776e+01 -3.628696e+01 -3.877350e+01 -4.116071e+01 -4.203861e+01 -4.218772e+01 -4.203861e+01 -4.116071e+01 -3.877350e+01 -3.628696e+01 -3.354776e+01 -3.093290e+01 -2.849401e+01 -2.632308e+01 -2.447310e+01 -2.286165e+01 -2.160516e+01 -2.053334e+01 -1.979711e+01 -1.920986e+01 -1.892946e+01 
