# vtk DataFile Version 2.0
Comment goes here
ASCII

DATASET STRUCTURED_POINTS
FIELD FieldData 1
TIME 1 1 double
0.40000000
DIMENSIONS    32   32   1

ORIGIN    0.000   0.000   0.000
SPACING   0.03125 0.03125   1.000

POINT_DATA   1024
SCALARS P double
LOOKUP_TABLE default

-1.619338e+01 -1.617018e+01 -1.593864e+01 -1.565422e+01 -1.517839e+01 -1.463565e+01 -1.394732e+01 -1.318396e+01 -1.235904e+01 -1.147784e+01 -1.065732e+01 -9.842113e+00 -9.215458e+00 -8.606391e+00 -8.133732e+00 -7.588964e+00 -7.194617e+00 -7.588964e+00 -8.133732e+00 -8.606391e+00 -9.215458e+00 -9.842113e+00 -1.065732e+01 -1.147784e+01 -1.235904e+01 -1.318396e+01 -1.394732e+01 -1.463565e+01 -1.517839e+01 -1.565422e+01 -1.593864e+01 -1.617018e+01 
-1.626929e+01 -1.623134e+01 -1.601486e+01 -1.571620e+01 -1.525346e+01 -1.469572e+01 -1.401609e+01 -1.323695e+01 -1.241753e+01 -1.152547e+01 -1.072056e+01 -9.912180e+00 -9.352649e+00 -8.778160e+00 -8.422215e+00 -7.871947e+00 -7.544556e+00 -7.871947e+00 -8.422215e+00 -8.778160e+00 -9.352649e+00 -9.912180e+00 -1.072056e+01 -1.152547e+01 -1.241753e+01 -1.323695e+01 -1.401609e+01 -1.469572e+01 -1.525346e+01 -1.571620e+01 -1.601486e+01 -1.623134e+01 
-1.645838e+01 -1.643754e+01 -1.619881e+01 -1.591014e+01 -1.541613e+01 -1.485354e+01 -1.412981e+01 -1.332342e+01 -1.244763e+01 -1.150868e+01 -1.063670e+01 -9.776933e+00 -9.134823e+00 -8.522446e+00 -8.155044e+00 -7.611043e+00 -7.238908e+00 -7.611043e+00 -8.155044e+00 -8.522446e+00 -9.134823e+00 -9.776933e+00 -1.063670e+01 -1.150868e+01 -1.244763e+01 -1.332342e+01 -1.412981e+01 -1.485354e+01 -1.541613e+01 -1.591014e+01 -1.619881e+01 -1.643754e+01 
-1.680058e+01 -1.676699e+01 -1.653840e+01 -1.623244e+01 -1.573578e+01 -1.513837e+01 -1.438633e+01 -1.351396e+01 -1.257663e+01 -1.155003e+01 -1.059699e+01 -9.681247e+00 -9.072113e+00 -8.525726e+00 -8.396333e+00 -7.813536e+00 -7.531208e+00 -7.813536e+00 -8.396333e+00 -8.525726e+00 -9.072113e+00 -9.681247e+00 -1.059699e+01 -1.155003e+01 -1.257663e+01 -1.351396e+01 -1.438633e+01 -1.513837e+01 -1.573578e+01 -1.623244e+01 -1.653840e+01 -1.676699e+01 
-1.727053e+01 -1.725818e+01 -1.700424e+01 -1.671206e+01 -1.617061e+01 -1.555739e+01 -1.472624e+01 -1.378127e+01 -1.273326e+01 -1.158309e+01 -1.050671e+01 -9.436885e+00 -8.567396e+00 -7.859508e+00 -7.584673e+00 -6.916583e+00 -6.377470e+00 -6.916583e+00 -7.584673e+00 -7.859508e+00 -8.567396e+00 -9.436885e+00 -1.050671e+01 -1.158309e+01 -1.273326e+01 -1.378127e+01 -1.472624e+01 -1.555739e+01 -1.617061e+01 -1.671206e+01 -1.700424e+01 -1.725818e+01 
-1.789514e+01 -1.787331e+01 -1.763434e+01 -1.733402e+01 -1.678708e+01 -1.613312e+01 -1.524362e+01 -1.417046e+01 -1.297385e+01 -1.159016e+01 -1.019142e+01 -8.904104e+00 -7.948851e+00 -7.347428e+00 -7.000063e+00 -6.100379e+00 -5.414336e+00 -6.100379e+00 -7.000063e+00 -7.347428e+00 -7.948851e+00 -8.904104e+00 -1.019142e+01 -1.159016e+01 -1.297385e+01 -1.417046e+01 -1.524362e+01 -1.613312e+01 -1.678708e+01 -1.733402e+01 -1.763434e+01 -1.787331e+01 
-1.867268e+01 -1.867799e+01 -1.842432e+01 -1.816121e+01 -1.756919e+01 -1.691429e+01 -1.590467e+01 -1.470454e+01 -1.331432e+01 -1.171041e+01 -1.026621e+01 -8.671399e+00 -7.061846e+00 -5.706607e+00 -4.704883e+00 -3.418176e+00 -2.606996e+00 -3.418176e+00 -4.704883e+00 -5.706607e+00 -7.061846e+00 -8.671399e+00 -1.026621e+01 -1.171041e+01 -1.331432e+01 -1.470454e+01 -1.590467e+01 -1.691429e+01 -1.756919e+01 -1.816121e+01 -1.842432e+01 -1.867799e+01 
-1.959815e+01 -1.959835e+01 -1.938572e+01 -1.915132e+01 -1.857891e+01 -1.792888e+01 -1.686391e+01 -1.548873e+01 -1.394206e+01 -1.181202e+01 -9.340355e+00 -7.060178e+00 -5.574332e+00 -4.835845e+00 -4.063230e+00 -2.629414e+00 -2.119640e+00 -2.629414e+00 -4.063230e+00 -4.835845e+00 -5.574332e+00 -7.060178e+00 -9.340355e+00 -1.181202e+01 -1.394206e+01 -1.548873e+01 -1.686391e+01 -1.792888e+01 -1.857891e+01 -1.915132e+01 -1.938572e+01 -1.959835e+01 
-2.070331e+01 -2.073321e+01 -2.055050e+01 -2.041300e+01 -1.983324e+01 -1.927875e+01 -1.804652e+01 -1.644443e+01 -1.438252e+01 -1.183187e+01 -1.016393e+01 -7.970228e+00 -4.637880e+00 -2.265375e+00 -2.640019e-01 2.310956e+00 3.335578e+00 2.310956e+00 -2.640019e-01 -2.265375e+00 -4.637880e+00 -7.970228e+00 -1.016393e+01 -1.183187e+01 -1.438252e+01 -1.644443e+01 -1.804652e+01 -1.927875e+01 -1.983324e+01 -2.041300e+01 -2.055050e+01 -2.073321e+01 
-2.191653e+01 -2.193942e+01 -2.186303e+01 -2.183136e+01 -2.134131e+01 -2.098708e+01 -1.972040e+01 -1.802532e+01 -1.656158e+01 -1.287967e+01 -5.466551e+00 4.173432e+00 1.359252e+01 2.066748e+01 2.527574e+01 2.846702e+01 2.906860e+01 2.846702e+01 2.527574e+01 2.066748e+01 1.359252e+01 4.173432e+00 -5.466551e+00 -1.287967e+01 -1.656158e+01 -1.802532e+01 -1.972040e+01 -2.098708e+01 -2.134131e+01 -2.183136e+01 -2.186303e+01 -2.193942e+01 
-2.329063e+01 -2.332609e+01 -2.339331e+01 -2.356738e+01 -2.323153e+01 -2.337652e+01 -2.209634e+01 -1.985171e+01 -1.315161e+01 3.470713e+00 2.252482e+01 3.472118e+01 4.132965e+01 4.401200e+01 4.416707e+01 4.442007e+01 4.385114e+01 4.442007e+01 4.416707e+01 4.401200e+01 4.132965e+01 3.472118e+01 2.252482e+01 3.470713e+00 -1.315161e+01 -1.985171e+01 -2.209634e+01 -2.337652e+01 -2.323153e+01 -2.356738e+01 -2.339331e+01 -2.332609e+01 
-2.461912e+01 -2.461648e+01 -2.492095e+01 -2.529124e+01 -2.522501e+01 -2.607377e+01 -2.371057e+01 -1.239562e+01 1.274546e+01 3.662586e+01 4.685410e+01 4.884917e+01 4.739406e+01 4.632992e+01 4.484647e+01 4.453658e+01 4.392295e+01 4.453658e+01 4.484647e+01 4.632992e+01 4.739406e+01 4.884917e+01 4.685410e+01 3.662586e+01 1.274546e+01 -1.239562e+01 -2.371057e+01 -2.607377e+01 -2.522501e+01 -2.529124e+01 -2.492095e+01 -2.461648e+01 
-2.589226e+01 -2.582183e+01 -2.645221e+01 -2.706898e+01 -2.733972e+01 -2.961826e+01 -1.817543e+01 1.485375e+01 4.448276e+01 5.211033e+01 5.036241e+01 4.891334e+01 4.732027e+01 4.701996e+01 4.621341e+01 4.644329e+01 4.593626e+01 4.644329e+01 4.621341e+01 4.701996e+01 4.732027e+01 4.891334e+01 5.036241e+01 5.211033e+01 4.448276e+01 1.485375e+01 -1.817543e+01 -2.961826e+01 -2.733972e+01 -2.706898e+01 -2.645221e+01 -2.582183e+01 
-2.679232e+01 -2.655683e+01 -2.761907e+01 -2.825807e+01 -2.926418e+01 -3.126614e+01 1.955729e+00 4.396499e+01 5.584110e+01 5.306456e+01 5.121177e+01 5.039924e+01 4.891190e+01 4.835418e+01 4.714723e+01 4.712604e+01 4.652372e+01 4.712604e+01 4.714723e+01 4.835418e+01 4.891190e+01 5.039924e+01 5.121177e+01 5.306456e+01 5.584110e+01 4.396499e+01 1.955729e+00 -3.126614e+01 -2.926418e+01 -2.825807e+01 -2.761907e+01 -2.655683e+01 
-2.733552e+01 -2.676386e+01 -2.853430e+01 -2.848786e+01 -3.150685e+01 -2.632871e+01 2.416962e+01 5.735144e+01 5.552500e+01 5.422021e+01 5.136871e+01 5.071962e+01 4.908393e+01 4.886026e+01 4.776799e+01 4.799555e+01 4.737731e+01 4.799555e+01 4.776799e+01 4.886026e+01 4.908393e+01 5.071962e+01 5.136871e+01 5.422021e+01 5.552500e+01 5.735144e+01 2.416962e+01 -2.632871e+01 -3.150685e+01 -2.848786e+01 -2.853430e+01 -2.676386e+01 
-2.751798e+01 -2.656153e+01 -2.894859e+01 -2.808564e+01 -3.227665e+01 -1.809382e+01 3.808418e+01 6.068234e+01 5.548896e+01 5.525592e+01 5.193550e+01 5.161259e+01 4.979856e+01 4.952107e+01 4.825657e+01 4.837957e+01 4.771502e+01 4.837957e+01 4.825657e+01 4.952107e+01 4.979856e+01 5.161259e+01 5.193550e+01 5.525592e+01 5.548896e+01 6.068234e+01 3.808418e+01 -1.809382e+01 -3.227665e+01 -2.808564e+01 -2.894859e+01 -2.656153e+01 
-2.740595e+01 -2.641709e+01 -2.879294e+01 -2.780941e+01 -3.154878e+01 -1.404549e+01 4.326724e+01 6.143228e+01 5.560521e+01 5.573212e+01 5.195296e+01 5.168884e+01 4.969042e+01 4.953301e+01 4.828152e+01 4.852254e+01 4.784227e+01 4.852254e+01 4.828152e+01 4.953301e+01 4.969042e+01 5.168884e+01 5.195296e+01 5.573212e+01 5.560521e+01 6.143228e+01 4.326724e+01 -1.404549e+01 -3.154878e+01 -2.780941e+01 -2.879294e+01 -2.641709e+01 
-2.751798e+01 -2.656153e+01 -2.894859e+01 -2.808564e+01 -3.227665e+01 -1.809382e+01 3.808418e+01 6.068234e+01 5.548896e+01 5.525592e+01 5.193550e+01 5.161259e+01 4.979856e+01 4.952107e+01 4.825657e+01 4.837957e+01 4.771502e+01 4.837957e+01 4.825657e+01 4.952107e+01 4.979856e+01 5.161259e+01 5.193550e+01 5.525592e+01 5.548896e+01 6.068234e+01 3.808418e+01 -1.809382e+01 -3.227665e+01 -2.808564e+01 -2.894859e+01 -2.656153e+01 
-2.733552e+01 -2.676386e+01 -2.853430e+01 -2.848786e+01 -3.150685e+01 -2.632871e+01 2.416962e+01 5.735144e+01 5.552500e+01 5.422021e+01 5.136871e+01 5.071962e+01 4.908393e+01 4.886026e+01 4.776799e+01 4.799555e+01 4.737731e+01 4.799555e+01 4.776799e+01 4.886026e+01 4.908393e+01 5.071962e+01 5.136871e+01 5.422021e+01 5.552500e+01 5.735144e+01 2.416962e+01 -2.632871e+01 -3.150685e+01 -2.848786e+01 -2.853430e+01 -2.676386e+01 
-2.679232e+01 -2.655683e+01 -2.761907e+01 -2.825807e+01 -2.926418e+01 -3.126614e+01 1.955729e+00 4.396499e+01 5.584110e+01 5.306456e+01 5.121177e+01 5.039924e+01 4.891190e+01 4.835418e+01 4.714723e+01 4.712604e+01 4.652372e+01 4.712604e+01 4.714723e+01 4.835418e+01 4.891190e+01 5.039924e+01 5.121177e+01 5.306456e+01 5.584110e+01 4.396499e+01 1.955729e+00 -3.126614e+01 -2.926418e+01 -2.825807e+01 -2.761907e+01 -2.655683e+01 
-2.589226e+01 -2.582183e+01 -2.645221e+01 -2.706898e+01 -2.733972e+01 -2.961826e+01 -1.817543e+01 1.485375e+01 4.448276e+01 5.211033e+01 5.036241e+01 4.891334e+01 4.732027e+01 4.701996e+01 4.621341e+01 4.644329e+01 4.593626e+01 4.644329e+01 4.621341e+01 4.701996e+01 4.732027e+01 4.891334e+01 5.036241e+01 5.211033e+01 4.448276e+01 1.485375e+01 -1.817543e+01 -2.961826e+01 -2.733972e+01 -2.706898e+01 -2.645221e+01 -2.582183e+01 
-2.461912e+01 -2.461648e+01 -2.492095e+01 -2.529124e+01 -2.522501e+01 -2.607377e+01 -2.371057e+01 -1.239562e+01 1.274546e+01 3.662586e+01 4.685410e+01 4.884917e+01 4.739406e+01 4.632992e+01 4.484647e+01 4.453658e+01 4.392295e+01 4.453658e+01 4.484647e+01 4.632992e+01 4.739406e+01 4.884917e+01 4.685410e+01 3.662586e+01 1.274546e+01 -1.239562e+01 -2.371057e+01 -2.607377e+01 -2.522501e+01 -2.529124e+01 -2.492095e+01 -2.461648e+01 
-2.329063e+01 -2.332609e+01 -2.339331e+01 -2.356738e+01 -2.323153e+01 -2.337652e+01 -2.209634e+01 -1.985171e+01 -1.315161e+01 3.470713e+00 2.252482e+01 3.472118e+01 4.132965e+01 4.401200e+01 4.416707e+01 4.442007e+01 4.385114e+01 4.442007e+01 4.416707e+01 4.401200e+01 4.132965e+01 3.472118e+01 2.252482e+01 3.470713e+00 -1.315161e+01 -1.985171e+01 -2.209634e+01 -2.337652e+01 -2.323153e+01 -2.356738e+01 -2.339331e+01 -2.332609e+01 
-2.191653e+01 -2.193942e+01 -2.186303e+01 -2.183136e+01 -2.134131e+01 -2.098708e+01 -1.972040e+01 -1.802532e+01 -1.656158e+01 -1.287967e+01 -5.466551e+00 4.173432e+00 1.359252e+01 2.066748e+01 2.527574e+01 2.846702e+01 2.906860e+01 2.846702e+01 2.527574e+01 2.066748e+01 1.359252e+01 4.173432e+00 -5.466551e+00 -1.287967e+01 -1.656158e+01 -1.802532e+01 -1.972040e+01 -2.098708e+01 -2.134131e+01 -2.183136e+01 -2.186303e+01 -2.193942e+01 
-2.070331e+01 -2.073321e+01 -2.055050e+01 -2.041300e+01 -1.983324e+01 -1.927875e+01 -1.804652e+01 -1.644443e+01 -1.438252e+01 -1.183187e+01 -1.016393e+01 -7.970228e+00 -4.637880e+00 -2.265375e+00 -2.640019e-01 2.310956e+00 3.335578e+00 2.310956e+00 -2.640019e-01 -2.265375e+00 -4.637880e+00 -7.970228e+00 -1.016393e+01 -1.183187e+01 -1.438252e+01 -1.644443e+01 -1.804652e+01 -1.927875e+01 -1.983324e+01 -2.041300e+01 -2.055050e+01 -2.073321e+01 
-1.959815e+01 -1.959835e+01 -1.938572e+01 -1.915132e+01 -1.857891e+01 -1.792888e+01 -1.686391e+01 -1.548873e+01 -1.394206e+01 -1.181202e+01 -9.340355e+00 -7.060178e+00 -5.574332e+00 -4.835845e+00 -4.063230e+00 -2.629414e+00 -2.119640e+00 -2.629414e+00 -4.063230e+00 -4.835845e+00 -5.574332e+00 -7.060178e+00 -9.340355e+00 -1.181202e+01 -1.394206e+01 -1.548873e+01 -1.686391e+01 -1.792888e+01 -1.857891e+01 -1.915132e+01 -1.938572e+01 -1.959835e+01 
-1.867268e+01 -1.867799e+01 -1.842432e+01 -1.816121e+01 -1.756919e+01 -1.691429e+01 -1.590467e+01 -1.470454e+01 -1.331432e+01 -1.171041e+01 -1.026621e+01 -8.671399e+00 -7.061846e+00 -5.706607e+00 -4.704883e+00 -3.418176e+00 -2.606996e+00 -3.418176e+00 -4.704883e+00 -5.706607e+00 -7.061846e+00 -8.671399e+00 -1.026621e+01 -1.171041e+01 -1.331432e+01 -1.470454e+01 -1.590467e+01 -1.691429e+01 -1.756919e+01 -1.816121e+01 -1.842432e+01 -1.867799e+01 
-1.789514e+01 -1.787331e+01 -1.763434e+01 -1.733402e+01 -1.678708e+01 -1.613312e+01 -1.524362e+01 -1.417046e+01 -1.297385e+01 -1.159016e+01 -1.019142e+01 -8.904104e+00 -7.948851e+00 -7.347428e+00 -7.000063e+00 -6.100379e+00 -5.414336e+00 -6.100379e+00 -7.000063e+00 -7.347428e+00 -7.948851e+00 -8.904104e+00 -1.019142e+01 -1.159016e+01 -1.297385e+01 -1.417046e+01 -1.524362e+01 -1.613312e+01 -1.678708e+01 -1.733402e+01 -1.763434e+01 -1.787331e+01 
-1.727053e+01 -1.725818e+01 -1.700424e+01 -1.671206e+01 -1.617061e+01 -1.555739e+01 -1.472624e+01 -1.378127e+01 -1.273326e+01 -1.158309e+01 -1.050671e+01 -9.436885e+00 -8.567396e+00 -7.859508e+00 -7.584673e+00 -6.916583e+00 -6.377470e+00 -6.916583e+00 -7.584673e+00 -7.859508e+00 -8.567396e+00 -9.436885e+00 -1.050671e+01 -1.158309e+01 -1.273326e+01 -1.378127e+01 -1.472624e+01 -1.555739e+01 -1.617061e+01 -1.671206e+01 -1.700424e+01 -1.725818e+01 
-1.680058e+01 -1.676699e+01 -1.653840e+01 -1.623244e+01 -1.573578e+01 -1.513837e+01 -1.438633e+01 -1.351396e+01 -1.257663e+01 -1.155003e+01 -1.059699e+01 -9.681247e+00 -9.072113e+00 -8.525726e+00 -8.396333e+00 -7.813536e+00 -7.531208e+00 -7.813536e+00 -8.396333e+00 -8.525726e+00 -9.072113e+00 -9.681247e+00 -1.059699e+01 -1.155003e+01 -1.257663e+01 -1.351396e+01 -1.438633e+01 -1.513837e+01 -1.573578e+01 -1.623244e+01 -1.653840e+01 -1.676699e+01 
-1.645838e+01 -1.643754e+01 -1.619881e+01 -1.591014e+01 -1.541613e+01 -1.485354e+01 -1.412981e+01 -1.332342e+01 -1.244763e+01 -1.150868e+01 -1.063670e+01 -9.776933e+00 -9.134823e+00 -8.522446e+00 -8.155044e+00 -7.611043e+00 -7.238908e+00 -7.611043e+00 -8.155044e+00 -8.522446e+00 -9.134823e+00 -9.776933e+00 -1.063670e+01 -1.150868e+01 -1.244763e+01 -1.332342e+01 -1.412981e+01 -1.485354e+01 -1.541613e+01 -1.591014e+01 -1.619881e+01 -1.643754e+01 
-1.626929e+01 -1.623134e+01 -1.601486e+01 -1.571620e+01 -1.525346e+01 -1.469572e+01 -1.401609e+01 -1.323695e+01 -1.241753e+01 -1.152547e+01 -1.072056e+01 -9.912180e+00 -9.352649e+00 -8.778160e+00 -8.422215e+00 -7.871947e+00 -7.544556e+00 -7.871947e+00 -8.422215e+00 -8.778160e+00 -9.352649e+00 -9.912180e+00 -1.072056e+01 -1.152547e+01 -1.241753e+01 -1.323695e+01 -1.401609e+01 -1.469572e+01 -1.525346e+01 -1.571620e+01 -1.601486e+01 -1.623134e+01 
