# vtk DataFile Version 2.0
Comment goes here
ASCII

DATASET STRUCTURED_POINTS
FIELD FieldData 1
TIME 1 1 double
0.98000000
DIMENSIONS    32   32   1

ORIGIN    0.000   0.000   0.000
SPACING   0.03125 0.03125   1.000

POINT_DATA   1024
SCALARS P double
LOOKUP_TABLE default

-1.080432e+01 -1.085720e+01 -1.085627e+01 -1.094618e+01 -1.099058e+01 -1.109902e+01 -1.119412e+01 -1.133335e+01 -1.150140e+01 -1.167384e+01 -1.187447e+01 -1.197048e+01 -1.202544e+01 -1.182860e+01 -1.153949e+01 -1.116072e+01 -1.099307e+01 -1.116072e+01 -1.153949e+01 -1.182860e+01 -1.202544e+01 -1.197048e+01 -1.187447e+01 -1.167384e+01 -1.150140e+01 -1.133335e+01 -1.119412e+01 -1.109902e+01 -1.099058e+01 -1.094618e+01 -1.085627e+01 -1.085720e+01 
-1.082700e+01 -1.087973e+01 -1.088896e+01 -1.098968e+01 -1.105677e+01 -1.119114e+01 -1.132731e+01 -1.151417e+01 -1.174939e+01 -1.200073e+01 -1.230361e+01 -1.251953e+01 -1.271211e+01 -1.263476e+01 -1.245844e+01 -1.200678e+01 -1.187744e+01 -1.200678e+01 -1.245844e+01 -1.263476e+01 -1.271211e+01 -1.251953e+01 -1.230361e+01 -1.200073e+01 -1.174939e+01 -1.151417e+01 -1.132731e+01 -1.119114e+01 -1.105677e+01 -1.098968e+01 -1.088896e+01 -1.087973e+01 
-1.076004e+01 -1.081875e+01 -1.081858e+01 -1.092021e+01 -1.097534e+01 -1.110444e+01 -1.122504e+01 -1.139803e+01 -1.160513e+01 -1.182334e+01 -1.206978e+01 -1.221386e+01 -1.232360e+01 -1.214087e+01 -1.187025e+01 -1.151439e+01 -1.131614e+01 -1.151439e+01 -1.187025e+01 -1.214087e+01 -1.232360e+01 -1.221386e+01 -1.206978e+01 -1.182334e+01 -1.160513e+01 -1.139803e+01 -1.122504e+01 -1.110444e+01 -1.097534e+01 -1.092021e+01 -1.081858e+01 -1.081875e+01 
-1.072448e+01 -1.078837e+01 -1.079765e+01 -1.091851e+01 -1.100036e+01 -1.116555e+01 -1.133701e+01 -1.156939e+01 -1.185886e+01 -1.217157e+01 -1.254249e+01 -1.284911e+01 -1.313934e+01 -1.319082e+01 -1.303331e+01 -1.240210e+01 -1.215764e+01 -1.240210e+01 -1.303331e+01 -1.319082e+01 -1.313934e+01 -1.284911e+01 -1.254249e+01 -1.217157e+01 -1.185886e+01 -1.156939e+01 -1.133701e+01 -1.116555e+01 -1.100036e+01 -1.091851e+01 -1.079765e+01 -1.078837e+01 
-1.064091e+01 -1.071985e+01 -1.072329e+01 -1.086197e+01 -1.094405e+01 -1.111945e+01 -1.129131e+01 -1.151871e+01 -1.179254e+01 -1.207644e+01 -1.238126e+01 -1.259171e+01 -1.274702e+01 -1.241174e+01 -1.201832e+01 -1.161007e+01 -1.126746e+01 -1.161007e+01 -1.201832e+01 -1.241174e+01 -1.274702e+01 -1.259171e+01 -1.238126e+01 -1.207644e+01 -1.179254e+01 -1.151871e+01 -1.129131e+01 -1.111945e+01 -1.094405e+01 -1.086197e+01 -1.072329e+01 -1.071985e+01 
-1.055938e+01 -1.065021e+01 -1.066109e+01 -1.082454e+01 -1.092458e+01 -1.112558e+01 -1.132615e+01 -1.158088e+01 -1.191373e+01 -1.225344e+01 -1.269771e+01 -1.308251e+01 -1.350432e+01 -1.382616e+01 -1.333238e+01 -1.164691e+01 -1.086854e+01 -1.164691e+01 -1.333238e+01 -1.382616e+01 -1.350432e+01 -1.308251e+01 -1.269771e+01 -1.225344e+01 -1.191373e+01 -1.158088e+01 -1.132615e+01 -1.112558e+01 -1.092458e+01 -1.082454e+01 -1.066109e+01 -1.065021e+01 
-1.050623e+01 -1.062603e+01 -1.063320e+01 -1.083430e+01 -1.094042e+01 -1.115912e+01 -1.137415e+01 -1.162460e+01 -1.198408e+01 -1.233042e+01 -1.273499e+01 -1.315364e+01 -1.332903e+01 -1.241713e+01 -1.136687e+01 -1.045570e+01 -9.591178e+00 -1.045570e+01 -1.136687e+01 -1.241713e+01 -1.332903e+01 -1.315364e+01 -1.273499e+01 -1.233042e+01 -1.198408e+01 -1.162460e+01 -1.137415e+01 -1.115912e+01 -1.094042e+01 -1.083430e+01 -1.063320e+01 -1.062603e+01 
-1.042298e+01 -1.056214e+01 -1.056989e+01 -1.079470e+01 -1.088863e+01 -1.110215e+01 -1.128807e+01 -1.150773e+01 -1.186785e+01 -1.219291e+01 -1.278147e+01 -1.310797e+01 -1.453026e+01 -1.657348e+01 -1.311797e+01 -7.979560e+00 -6.937895e+00 -7.979560e+00 -1.311797e+01 -1.657348e+01 -1.453026e+01 -1.310797e+01 -1.278147e+01 -1.219291e+01 -1.186785e+01 -1.150773e+01 -1.128807e+01 -1.110215e+01 -1.088863e+01 -1.079470e+01 -1.056989e+01 -1.056214e+01 
-1.043057e+01 -1.061724e+01 -1.061157e+01 -1.089002e+01 -1.097162e+01 -1.119654e+01 -1.140599e+01 -1.161252e+01 -1.217624e+01 -1.259918e+01 -1.353872e+01 -1.477653e+01 -1.153860e+01 -2.711774e+00 8.389590e+00 1.900840e+01 2.181785e+01 1.900840e+01 8.389590e+00 -2.711774e+00 -1.153860e+01 -1.477653e+01 -1.353872e+01 -1.259918e+01 -1.217624e+01 -1.161252e+01 -1.140599e+01 -1.119654e+01 -1.097162e+01 -1.089002e+01 -1.061157e+01 -1.061724e+01 
-1.035146e+01 -1.056381e+01 -1.055052e+01 -1.084810e+01 -1.087498e+01 -1.105875e+01 -1.115327e+01 -1.129033e+01 -1.169834e+01 -1.226053e+01 -1.198091e+01 -3.867936e+00 1.423632e+01 3.206798e+01 4.359576e+01 4.960467e+01 5.103832e+01 4.960467e+01 4.359576e+01 3.206798e+01 1.423632e+01 -3.867936e+00 -1.198091e+01 -1.226053e+01 -1.169834e+01 -1.129033e+01 -1.115327e+01 -1.105875e+01 -1.087498e+01 -1.084810e+01 -1.055052e+01 -1.056381e+01 
-1.033445e+01 -1.061862e+01 -1.056709e+01 -1.093804e+01 -1.089587e+01 -1.108367e+01 -1.115094e+01 -1.120076e+01 -1.213436e+01 -1.123917e+01 -1.878729e+00 2.151890e+01 4.182575e+01 4.833037e+01 4.904223e+01 4.890597e+01 4.926582e+01 4.890597e+01 4.904223e+01 4.833037e+01 4.182575e+01 2.151890e+01 -1.878729e+00 -1.123917e+01 -1.213436e+01 -1.120076e+01 -1.115094e+01 -1.108367e+01 -1.089587e+01 -1.093804e+01 -1.056709e+01 -1.061862e+01 
-1.012580e+01 -1.044398e+01 -1.039619e+01 -1.080159e+01 -1.070433e+01 -1.081891e+01 -1.076675e+01 -1.047622e+01 -1.167530e+01 -7.161280e+00 1.724016e+01 4.301435e+01 4.828130e+01 4.789083e+01 4.829390e+01 4.857837e+01 4.905056e+01 4.857837e+01 4.829390e+01 4.789083e+01 4.828130e+01 4.301435e+01 1.724016e+01 -7.161280e+00 -1.167530e+01 -1.047622e+01 -1.076675e+01 -1.081891e+01 -1.070433e+01 -1.080159e+01 -1.039619e+01 -1.044398e+01 
-9.873806e+00 -1.029997e+01 -1.019741e+01 -1.074358e+01 -1.048699e+01 -1.070071e+01 -1.021321e+01 -1.002577e+01 -1.020580e+01 7.118374e+00 3.394263e+01 4.653501e+01 4.737516e+01 4.794898e+01 4.841169e+01 4.833164e+01 4.869809e+01 4.833164e+01 4.841169e+01 4.794898e+01 4.737516e+01 4.653501e+01 3.394263e+01 7.118374e+00 -1.020580e+01 -1.002577e+01 -1.021321e+01 -1.070071e+01 -1.048699e+01 -1.074358e+01 -1.019741e+01 -1.029997e+01 
-9.331881e+00 -9.813931e+00 -9.739329e+00 -1.041005e+01 -1.010020e+01 -1.044279e+01 -9.511265e+00 -9.750310e+00 -7.108324e+00 2.306443e+01 4.614936e+01 4.713010e+01 4.791199e+01 4.764092e+01 4.828938e+01 4.803326e+01 4.857475e+01 4.803326e+01 4.828938e+01 4.764092e+01 4.791199e+01 4.713010e+01 4.614936e+01 2.306443e+01 -7.108324e+00 -9.750310e+00 -9.511265e+00 -1.044279e+01 -1.010020e+01 -1.041005e+01 -9.739329e+00 -9.813931e+00 
-8.757775e+00 -9.373029e+00 -9.268584e+00 -1.018771e+01 -9.761820e+00 -1.039938e+01 -8.947456e+00 -9.882788e+00 -2.598471e+00 3.036042e+01 4.829987e+01 4.716850e+01 4.804059e+01 4.773498e+01 4.841372e+01 4.806181e+01 4.858463e+01 4.806181e+01 4.841372e+01 4.773498e+01 4.804059e+01 4.716850e+01 4.829987e+01 3.036042e+01 -2.598471e+00 -9.882788e+00 -8.947456e+00 -1.039938e+01 -9.761820e+00 -1.018771e+01 -9.268584e+00 -9.373029e+00 
-8.033034e+00 -8.681427e+00 -8.593673e+00 -9.621565e+00 -9.160062e+00 -9.908353e+00 -8.195644e+00 -9.066844e+00 2.089956e+00 3.639241e+01 4.794963e+01 4.647825e+01 4.807176e+01 4.728793e+01 4.827646e+01 4.770601e+01 4.841957e+01 4.770601e+01 4.827646e+01 4.728793e+01 4.807176e+01 4.647825e+01 4.794963e+01 3.639241e+01 2.089956e+00 -9.066844e+00 -8.195644e+00 -9.908353e+00 -9.160062e+00 -9.621565e+00 -8.593673e+00 -8.681427e+00 
-7.771851e+00 -8.488313e+00 -8.365635e+00 -9.502898e+00 -8.984468e+00 -9.807365e+00 -8.000316e+00 -8.734667e+00 3.891843e+00 3.950239e+01 4.977613e+01 4.726717e+01 4.866247e+01 4.770080e+01 4.852289e+01 4.796916e+01 4.857725e+01 4.796916e+01 4.852289e+01 4.770080e+01 4.866247e+01 4.726717e+01 4.977613e+01 3.950239e+01 3.891843e+00 -8.734667e+00 -8.000316e+00 -9.807365e+00 -8.984468e+00 -9.502898e+00 -8.365635e+00 -8.488313e+00 
-8.033034e+00 -8.681427e+00 -8.593673e+00 -9.621565e+00 -9.160062e+00 -9.908353e+00 -8.195644e+00 -9.066844e+00 2.089956e+00 3.639241e+01 4.794963e+01 4.647825e+01 4.807176e+01 4.728793e+01 4.827646e+01 4.770601e+01 4.841957e+01 4.770601e+01 4.827646e+01 4.728793e+01 4.807176e+01 4.647825e+01 4.794963e+01 3.639241e+01 2.089956e+00 -9.066844e+00 -8.195644e+00 -9.908353e+00 -9.160062e+00 -9.621565e+00 -8.593673e+00 -8.681427e+00 
-8.757775e+00 -9.373029e+00 -9.268584e+00 -1.018771e+01 -9.761820e+00 -1.039938e+01 -8.947456e+00 -9.882788e+00 -2.598471e+00 3.036042e+01 4.829987e+01 4.716850e+01 4.804059e+01 4.773498e+01 4.841372e+01 4.806181e+01 4.858463e+01 4.806181e+01 4.841372e+01 4.773498e+01 4.804059e+01 4.716850e+01 4.829987e+01 3.036042e+01 -2.598471e+00 -9.882788e+00 -8.947456e+00 -1.039938e+01 -9.761820e+00 -1.018771e+01 -9.268584e+00 -9.373029e+00 
-9.331881e+00 -9.813931e+00 -9.739329e+00 -1.041005e+01 -1.010020e+01 -1.044279e+01 -9.511265e+00 -9.750310e+00 -7.108324e+00 2.306443e+01 4.614936e+01 4.713010e+01 4.791199e+01 4.764092e+01 4.828938e+01 4.803326e+01 4.857475e+01 4.803326e+01 4.828938e+01 4.764092e+01 4.791199e+01 4.713010e+01 4.614936e+01 2.306443e+01 -7.108324e+00 -9.750310e+00 -9.511265e+00 -1.044279e+01 -1.010020e+01 -1.041005e+01 -9.739329e+00 -9.813931e+00 
-9.873806e+00 -1.029997e+01 -1.019741e+01 -1.074358e+01 -1.048699e+01 -1.070071e+01 -1.021321e+01 -1.002577e+01 -1.020580e+01 7.118374e+00 3.394263e+01 4.653501e+01 4.737516e+01 4.794898e+01 4.841169e+01 4.833164e+01 4.869809e+01 4.833164e+01 4.841169e+01 4.794898e+01 4.737516e+01 4.653501e+01 3.394263e+01 7.118374e+00 -1.020580e+01 -1.002577e+01 -1.021321e+01 -1.070071e+01 -1.048699e+01 -1.074358e+01 -1.019741e+01 -1.029997e+01 
-1.012580e+01 -1.044398e+01 -1.039619e+01 -1.080159e+01 -1.070433e+01 -1.081891e+01 -1.076675e+01 -1.047622e+01 -1.167530e+01 -7.161280e+00 1.724016e+01 4.301435e+01 4.828130e+01 4.789083e+01 4.829390e+01 4.857837e+01 4.905056e+01 4.857837e+01 4.829390e+01 4.789083e+01 4.828130e+01 4.301435e+01 1.724016e+01 -7.161280e+00 -1.167530e+01 -1.047622e+01 -1.076675e+01 -1.081891e+01 -1.070433e+01 -1.080159e+01 -1.039619e+01 -1.044398e+01 
-1.033445e+01 -1.061862e+01 -1.056709e+01 -1.093804e+01 -1.089587e+01 -1.108367e+01 -1.115094e+01 -1.120076e+01 -1.213436e+01 -1.123917e+01 -1.878729e+00 2.151890e+01 4.182575e+01 4.833037e+01 4.904223e+01 4.890597e+01 4.926582e+01 4.890597e+01 4.904223e+01 4.833037e+01 4.182575e+01 2.151890e+01 -1.878729e+00 -1.123917e+01 -1.213436e+01 -1.120076e+01 -1.115094e+01 -1.108367e+01 -1.089587e+01 -1.093804e+01 -1.056709e+01 -1.061862e+01 
-1.035146e+01 -1.056381e+01 -1.055052e+01 -1.084810e+01 -1.087498e+01 -1.105875e+01 -1.115327e+01 -1.129033e+01 -1.169834e+01 -1.226053e+01 -1.198091e+01 -3.867936e+00 1.423632e+01 3.206798e+01 4.359576e+01 4.960467e+01 5.103832e+01 4.960467e+01 4.359576e+01 3.206798e+01 1.423632e+01 -3.867936e+00 -1.198091e+01 -1.226053e+01 -1.169834e+01 -1.129033e+01 -1.115327e+01 -1.105875e+01 -1.087498e+01 -1.084810e+01 -1.055052e+01 -1.056381e+01 
-1.043057e+01 -1.061724e+01 -1.061157e+01 -1.089002e+01 -1.097162e+01 -1.119654e+01 -1.140599e+01 -1.161252e+01 -1.217624e+01 -1.259918e+01 -1.353872e+01 -1.477653e+01 -1.153860e+01 -2.711774e+00 8.389590e+00 1.900840e+01 2.181785e+01 1.900840e+01 8.389590e+00 -2.711774e+00 -1.153860e+01 -1.477653e+01 -1.353872e+01 -1.259918e+01 -1.217624e+01 -1.161252e+01 -1.140599e+01 -1.119654e+01 -1.097162e+01 -1.089002e+01 -1.061157e+01 -1.061724e+01 
-1.042298e+01 -1.056214e+01 -1.056989e+01 -1.079470e+01 -1.088863e+01 -1.110215e+01 -1.128807e+01 -1.150773e+01 -1.186785e+01 -1.219291e+01 -1.278147e+01 -1.310797e+01 -1.453026e+01 -1.657348e+01 -1.311797e+01 -7.979560e+00 -6.937895e+00 -7.979560e+00 -1.311797e+01 -1.657348e+01 -1.453026e+01 -1.310797e+01 -1.278147e+01 -1.219291e+01 -1.186785e+01 -1.150773e+01 -1.128807e+01 -1.110215e+01 -1.088863e+01 -1.079470e+01 -1.056989e+01 -1.056214e+01 
-1.050623e+01 -1.062603e+01 -1.063320e+01 -1.083430e+01 -1.094042e+01 -1.115912e+01 -1.137415e+01 -1.162460e+01 -1.198408e+01 -1.233042e+01 -1.273499e+01 -1.315364e+01 -1.332903e+01 -1.241713e+01 -1.136687e+01 -1.045570e+01 -9.591178e+00 -1.045570e+01 -1.136687e+01 -1.241713e+01 -1.332903e+01 -1.315364e+01 -1.273499e+01 -1.233042e+01 -1.198408e+01 -1.162460e+01 -1.137415e+01 -1.115912e+01 -1.094042e+01 -1.083430e+01 -1.063320e+01 -1.062603e+01 
-1.055938e+01 -1.065021e+01 -1.066109e+01 -1.082454e+01 -1.092458e+01 -1.112558e+01 -1.132615e+01 -1.158088e+01 -1.191373e+01 -1.225344e+01 -1.269771e+01 -1.308251e+01 -1.350432e+01 -1.382616e+01 -1.333238e+01 -1.164691e+01 -1.086854e+01 -1.164691e+01 -1.333238e+01 -1.382616e+01 -1.350432e+01 -1.308251e+01 -1.269771e+01 -1.225344e+01 -1.191373e+01 -1.158088e+01 -1.132615e+01 -1.112558e+01 -1.092458e+01 -1.082454e+01 -1.066109e+01 -1.065021e+01 
-1.064091e+01 -1.071985e+01 -1.072329e+01 -1.086197e+01 -1.094405e+01 -1.111945e+01 -1.129131e+01 -1.151871e+01 -1.179254e+01 -1.207644e+01 -1.238126e+01 -1.259171e+01 -1.274702e+01 -1.241174e+01 -1.201832e+01 -1.161007e+01 -1.126746e+01 -1.161007e+01 -1.201832e+01 -1.241174e+01 -1.274702e+01 -1.259171e+01 -1.238126e+01 -1.207644e+01 -1.179254e+01 -1.151871e+01 -1.129131e+01 -1.111945e+01 -1.094405e+01 -1.086197e+01 -1.072329e+01 -1.071985e+01 
-1.072448e+01 -1.078837e+01 -1.079765e+01 -1.091851e+01 -1.100036e+01 -1.116555e+01 -1.133701e+01 -1.156939e+01 -1.185886e+01 -1.217157e+01 -1.254249e+01 -1.284911e+01 -1.313934e+01 -1.319082e+01 -1.303331e+01 -1.240210e+01 -1.215764e+01 -1.240210e+01 -1.303331e+01 -1.319082e+01 -1.313934e+01 -1.284911e+01 -1.254249e+01 -1.217157e+01 -1.185886e+01 -1.156939e+01 -1.133701e+01 -1.116555e+01 -1.100036e+01 -1.091851e+01 -1.079765e+01 -1.078837e+01 
-1.076004e+01 -1.081875e+01 -1.081858e+01 -1.092021e+01 -1.097534e+01 -1.110444e+01 -1.122504e+01 -1.139803e+01 -1.160513e+01 -1.182334e+01 -1.206978e+01 -1.221386e+01 -1.232360e+01 -1.214087e+01 -1.187025e+01 -1.151439e+01 -1.131614e+01 -1.151439e+01 -1.187025e+01 -1.214087e+01 -1.232360e+01 -1.221386e+01 -1.206978e+01 -1.182334e+01 -1.160513e+01 -1.139803e+01 -1.122504e+01 -1.110444e+01 -1.097534e+01 -1.092021e+01 -1.081858e+01 -1.081875e+01 
-1.082700e+01 -1.087973e+01 -1.088896e+01 -1.098968e+01 -1.105677e+01 -1.119114e+01 -1.132731e+01 -1.151417e+01 -1.174939e+01 -1.200073e+01 -1.230361e+01 -1.251953e+01 -1.271211e+01 -1.263476e+01 -1.245844e+01 -1.200678e+01 -1.187744e+01 -1.200678e+01 -1.245844e+01 -1.263476e+01 -1.271211e+01 -1.251953e+01 -1.230361e+01 -1.200073e+01 -1.174939e+01 -1.151417e+01 -1.132731e+01 -1.119114e+01 -1.105677e+01 -1.098968e+01 -1.088896e+01 -1.087973e+01 
