# vtk DataFile Version 2.0
Comment goes here
ASCII

DATASET STRUCTURED_POINTS
FIELD FieldData 1
TIME 1 1 double
0.68000000
DIMENSIONS    32   32   1

ORIGIN    0.000   0.000   0.000
SPACING   0.03125 0.03125   1.000

POINT_DATA   1024
SCALARS P double
LOOKUP_TABLE default

-1.336759e+01 -1.353271e+01 -1.341701e+01 -1.361598e+01 -1.353596e+01 -1.372959e+01 -1.366945e+01 -1.382390e+01 -1.380583e+01 -1.392417e+01 -1.401905e+01 -1.409697e+01 -1.428925e+01 -1.415044e+01 -1.419490e+01 -1.368867e+01 -1.369502e+01 -1.368867e+01 -1.419490e+01 -1.415044e+01 -1.428925e+01 -1.409697e+01 -1.401905e+01 -1.392417e+01 -1.380583e+01 -1.382390e+01 -1.366945e+01 -1.372959e+01 -1.353596e+01 -1.361598e+01 -1.341701e+01 -1.353271e+01 
-1.335055e+01 -1.352913e+01 -1.340351e+01 -1.361933e+01 -1.353356e+01 -1.374658e+01 -1.368633e+01 -1.385713e+01 -1.384313e+01 -1.395400e+01 -1.404087e+01 -1.404226e+01 -1.415369e+01 -1.381707e+01 -1.357538e+01 -1.292174e+01 -1.288374e+01 -1.292174e+01 -1.357538e+01 -1.381707e+01 -1.415369e+01 -1.404226e+01 -1.404087e+01 -1.395400e+01 -1.384313e+01 -1.385713e+01 -1.368633e+01 -1.374658e+01 -1.353356e+01 -1.361933e+01 -1.340351e+01 -1.352913e+01 
-1.334108e+01 -1.351131e+01 -1.339667e+01 -1.360781e+01 -1.353191e+01 -1.374580e+01 -1.369279e+01 -1.387944e+01 -1.387258e+01 -1.403361e+01 -1.414281e+01 -1.426366e+01 -1.449639e+01 -1.440832e+01 -1.455930e+01 -1.396348e+01 -1.391097e+01 -1.396348e+01 -1.455930e+01 -1.440832e+01 -1.449639e+01 -1.426366e+01 -1.414281e+01 -1.403361e+01 -1.387258e+01 -1.387944e+01 -1.369279e+01 -1.374580e+01 -1.353191e+01 -1.360781e+01 -1.339667e+01 -1.351131e+01 
-1.329533e+01 -1.348464e+01 -1.336232e+01 -1.360600e+01 -1.353102e+01 -1.379391e+01 -1.375284e+01 -1.400597e+01 -1.402385e+01 -1.424284e+01 -1.437633e+01 -1.445400e+01 -1.467005e+01 -1.421104e+01 -1.372689e+01 -1.276380e+01 -1.268090e+01 -1.276380e+01 -1.372689e+01 -1.421104e+01 -1.467005e+01 -1.445400e+01 -1.437633e+01 -1.424284e+01 -1.402385e+01 -1.400597e+01 -1.375284e+01 -1.379391e+01 -1.353102e+01 -1.360600e+01 -1.336232e+01 -1.348464e+01 
-1.327149e+01 -1.345630e+01 -1.335110e+01 -1.360221e+01 -1.354554e+01 -1.382126e+01 -1.378867e+01 -1.405598e+01 -1.405374e+01 -1.429018e+01 -1.434165e+01 -1.449654e+01 -1.466591e+01 -1.464234e+01 -1.508742e+01 -1.384658e+01 -1.336683e+01 -1.384658e+01 -1.508742e+01 -1.464234e+01 -1.466591e+01 -1.449654e+01 -1.434165e+01 -1.429018e+01 -1.405374e+01 -1.405598e+01 -1.378867e+01 -1.382126e+01 -1.354554e+01 -1.360221e+01 -1.335110e+01 -1.345630e+01 
-1.320473e+01 -1.341149e+01 -1.330527e+01 -1.360362e+01 -1.355586e+01 -1.391233e+01 -1.390423e+01 -1.431049e+01 -1.437275e+01 -1.482149e+01 -1.498287e+01 -1.530062e+01 -1.574164e+01 -1.482498e+01 -1.316805e+01 -1.077692e+01 -1.040363e+01 -1.077692e+01 -1.316805e+01 -1.482498e+01 -1.574164e+01 -1.530062e+01 -1.498287e+01 -1.482149e+01 -1.437275e+01 -1.431049e+01 -1.390423e+01 -1.391233e+01 -1.355586e+01 -1.360362e+01 -1.330527e+01 -1.341149e+01 
-1.318798e+01 -1.339205e+01 -1.331686e+01 -1.363710e+01 -1.362417e+01 -1.400987e+01 -1.403068e+01 -1.445298e+01 -1.451605e+01 -1.488422e+01 -1.475414e+01 -1.486714e+01 -1.453599e+01 -1.491349e+01 -1.517092e+01 -1.120005e+01 -1.018214e+01 -1.120005e+01 -1.517092e+01 -1.491349e+01 -1.453599e+01 -1.486714e+01 -1.475414e+01 -1.488422e+01 -1.451605e+01 -1.445298e+01 -1.403068e+01 -1.400987e+01 -1.362417e+01 -1.363710e+01 -1.331686e+01 -1.339205e+01 
-1.312067e+01 -1.333945e+01 -1.327146e+01 -1.363226e+01 -1.361957e+01 -1.408698e+01 -1.412051e+01 -1.476070e+01 -1.496676e+01 -1.589831e+01 -1.611220e+01 -1.792477e+01 -1.886936e+01 -1.358669e+01 -8.016324e+00 -2.126123e+00 -1.667672e-01 -2.126123e+00 -8.016324e+00 -1.358669e+01 -1.886936e+01 -1.792477e+01 -1.611220e+01 -1.589831e+01 -1.496676e+01 -1.476070e+01 -1.412051e+01 -1.408698e+01 -1.361957e+01 -1.363226e+01 -1.327146e+01 -1.333945e+01 
-1.312279e+01 -1.333514e+01 -1.331541e+01 -1.370666e+01 -1.373748e+01 -1.426581e+01 -1.437572e+01 -1.517689e+01 -1.573210e+01 -1.668188e+01 -1.660255e+01 -1.247223e+01 -1.643267e+00 1.544871e+01 2.883814e+01 3.684107e+01 3.964683e+01 3.684107e+01 2.883814e+01 1.544871e+01 -1.643267e+00 -1.247223e+01 -1.660255e+01 -1.668188e+01 -1.573210e+01 -1.517689e+01 -1.437572e+01 -1.426581e+01 -1.373748e+01 -1.370666e+01 -1.331541e+01 -1.333514e+01 
-1.306506e+01 -1.326845e+01 -1.326597e+01 -1.364542e+01 -1.363456e+01 -1.414805e+01 -1.419331e+01 -1.516727e+01 -1.589727e+01 -1.681660e+01 -9.642613e+00 1.237878e+01 3.359438e+01 4.687652e+01 5.176055e+01 5.236557e+01 5.301386e+01 5.236557e+01 5.176055e+01 4.687652e+01 3.359438e+01 1.237878e+01 -9.642613e+00 -1.681660e+01 -1.589727e+01 -1.516727e+01 -1.419331e+01 -1.414805e+01 -1.363456e+01 -1.364542e+01 -1.326597e+01 -1.326845e+01 
-1.301033e+01 -1.319359e+01 -1.325913e+01 -1.365136e+01 -1.365851e+01 -1.421935e+01 -1.426099e+01 -1.557668e+01 -1.639524e+01 -1.098200e+01 1.184014e+01 3.948676e+01 4.955749e+01 4.989762e+01 4.952616e+01 4.938919e+01 4.943894e+01 4.938919e+01 4.952616e+01 4.989762e+01 4.955749e+01 3.948676e+01 1.184014e+01 -1.098200e+01 -1.639524e+01 -1.557668e+01 -1.426099e+01 -1.421935e+01 -1.365851e+01 -1.365136e+01 -1.325913e+01 -1.319359e+01 
-1.287397e+01 -1.302302e+01 -1.314001e+01 -1.345262e+01 -1.337333e+01 -1.369767e+01 -1.333147e+01 -1.429428e+01 -1.253411e+01 9.152467e+00 3.702028e+01 4.763740e+01 4.880401e+01 4.976085e+01 5.049275e+01 5.089694e+01 5.120060e+01 5.089694e+01 5.049275e+01 4.976085e+01 4.880401e+01 4.763740e+01 3.702028e+01 9.152467e+00 -1.253411e+01 -1.429428e+01 -1.333147e+01 -1.369767e+01 -1.337333e+01 -1.345262e+01 -1.314001e+01 -1.302302e+01 
-1.254165e+01 -1.265652e+01 -1.288734e+01 -1.320097e+01 -1.312393e+01 -1.352088e+01 -1.272094e+01 -1.471777e+01 -3.541502e+00 3.030000e+01 4.852863e+01 4.875670e+01 4.953114e+01 4.950843e+01 4.965968e+01 4.965069e+01 4.975560e+01 4.965069e+01 4.965968e+01 4.950843e+01 4.953114e+01 4.875670e+01 4.852863e+01 3.030000e+01 -3.541502e+00 -1.471777e+01 -1.272094e+01 -1.352088e+01 -1.312393e+01 -1.320097e+01 -1.288734e+01 -1.265652e+01 
-1.213815e+01 -1.223219e+01 -1.260246e+01 -1.289204e+01 -1.289533e+01 -1.295885e+01 -1.208034e+01 -1.303705e+01 8.188433e+00 4.118299e+01 4.919715e+01 4.861290e+01 4.930422e+01 4.969168e+01 5.015915e+01 5.042415e+01 5.058980e+01 5.042415e+01 5.015915e+01 4.969168e+01 4.930422e+01 4.861290e+01 4.919715e+01 4.118299e+01 8.188433e+00 -1.303705e+01 -1.208034e+01 -1.295885e+01 -1.289533e+01 -1.289204e+01 -1.260246e+01 -1.223219e+01 
-1.135640e+01 -1.139668e+01 -1.200282e+01 -1.221188e+01 -1.257393e+01 -1.203704e+01 -1.221717e+01 -1.023118e+01 1.912722e+01 4.733122e+01 4.871635e+01 4.881054e+01 4.917798e+01 4.941266e+01 4.957690e+01 4.970253e+01 4.975017e+01 4.970253e+01 4.957690e+01 4.941266e+01 4.917798e+01 4.881054e+01 4.871635e+01 4.733122e+01 1.912722e+01 -1.023118e+01 -1.221717e+01 -1.203704e+01 -1.257393e+01 -1.221188e+01 -1.200282e+01 -1.139668e+01 
-1.073745e+01 -1.078274e+01 -1.155336e+01 -1.181024e+01 -1.249259e+01 -1.171016e+01 -1.263439e+01 -8.699917e+00 2.469860e+01 4.960033e+01 4.885825e+01 4.938151e+01 4.935682e+01 4.981238e+01 4.995731e+01 5.022877e+01 5.024835e+01 5.022877e+01 4.995731e+01 4.981238e+01 4.935682e+01 4.938151e+01 4.885825e+01 4.960033e+01 2.469860e+01 -8.699917e+00 -1.263439e+01 -1.171016e+01 -1.249259e+01 -1.181024e+01 -1.155336e+01 -1.078274e+01 
-1.019179e+01 -1.021893e+01 -1.109440e+01 -1.131736e+01 -1.206982e+01 -1.104527e+01 -1.190008e+01 -6.780364e+00 2.647706e+01 4.891277e+01 4.832160e+01 4.925087e+01 4.908670e+01 4.945004e+01 4.949204e+01 4.967087e+01 4.966538e+01 4.967087e+01 4.949204e+01 4.945004e+01 4.908670e+01 4.925087e+01 4.832160e+01 4.891277e+01 2.647706e+01 -6.780364e+00 -1.190008e+01 -1.104527e+01 -1.206982e+01 -1.131736e+01 -1.109440e+01 -1.021893e+01 
-1.073745e+01 -1.078274e+01 -1.155336e+01 -1.181024e+01 -1.249259e+01 -1.171016e+01 -1.263439e+01 -8.699917e+00 2.469860e+01 4.960033e+01 4.885825e+01 4.938151e+01 4.935682e+01 4.981238e+01 4.995731e+01 5.022877e+01 5.024835e+01 5.022877e+01 4.995731e+01 4.981238e+01 4.935682e+01 4.938151e+01 4.885825e+01 4.960033e+01 2.469860e+01 -8.699917e+00 -1.263439e+01 -1.171016e+01 -1.249259e+01 -1.181024e+01 -1.155336e+01 -1.078274e+01 
-1.135640e+01 -1.139668e+01 -1.200282e+01 -1.221188e+01 -1.257393e+01 -1.203704e+01 -1.221717e+01 -1.023118e+01 1.912722e+01 4.733122e+01 4.871635e+01 4.881054e+01 4.917798e+01 4.941266e+01 4.957690e+01 4.970253e+01 4.975017e+01 4.970253e+01 4.957690e+01 4.941266e+01 4.917798e+01 4.881054e+01 4.871635e+01 4.733122e+01 1.912722e+01 -1.023118e+01 -1.221717e+01 -1.203704e+01 -1.257393e+01 -1.221188e+01 -1.200282e+01 -1.139668e+01 
-1.213815e+01 -1.223219e+01 -1.260246e+01 -1.289204e+01 -1.289533e+01 -1.295885e+01 -1.208034e+01 -1.303705e+01 8.188433e+00 4.118299e+01 4.919715e+01 4.861290e+01 4.930422e+01 4.969168e+01 5.015915e+01 5.042415e+01 5.058980e+01 5.042415e+01 5.015915e+01 4.969168e+01 4.930422e+01 4.861290e+01 4.919715e+01 4.118299e+01 8.188433e+00 -1.303705e+01 -1.208034e+01 -1.295885e+01 -1.289533e+01 -1.289204e+01 -1.260246e+01 -1.223219e+01 
-1.254165e+01 -1.265652e+01 -1.288734e+01 -1.320097e+01 -1.312393e+01 -1.352088e+01 -1.272094e+01 -1.471777e+01 -3.541502e+00 3.030000e+01 4.852863e+01 4.875670e+01 4.953114e+01 4.950843e+01 4.965968e+01 4.965069e+01 4.975560e+01 4.965069e+01 4.965968e+01 4.950843e+01 4.953114e+01 4.875670e+01 4.852863e+01 3.030000e+01 -3.541502e+00 -1.471777e+01 -1.272094e+01 -1.352088e+01 -1.312393e+01 -1.320097e+01 -1.288734e+01 -1.265652e+01 
-1.287397e+01 -1.302302e+01 -1.314001e+01 -1.345262e+01 -1.337333e+01 -1.369767e+01 -1.333147e+01 -1.429428e+01 -1.253411e+01 9.152467e+00 3.702028e+01 4.763740e+01 4.880401e+01 4.976085e+01 5.049275e+01 5.089694e+01 5.120060e+01 5.089694e+01 5.049275e+01 4.976085e+01 4.880401e+01 4.763740e+01 3.702028e+01 9.152467e+00 -1.253411e+01 -1.429428e+01 -1.333147e+01 -1.369767e+01 -1.337333e+01 -1.345262e+01 -1.314001e+01 -1.302302e+01 
-1.301033e+01 -1.319359e+01 -1.325913e+01 -1.365136e+01 -1.365851e+01 -1.421935e+01 -1.426099e+01 -1.557668e+01 -1.639524e+01 -1.098200e+01 1.184014e+01 3.948676e+01 4.955749e+01 4.989762e+01 4.952616e+01 4.938919e+01 4.943894e+01 4.938919e+01 4.952616e+01 4.989762e+01 4.955749e+01 3.948676e+01 1.184014e+01 -1.098200e+01 -1.639524e+01 -1.557668e+01 -1.426099e+01 -1.421935e+01 -1.365851e+01 -1.365136e+01 -1.325913e+01 -1.319359e+01 
-1.306506e+01 -1.326845e+01 -1.326597e+01 -1.364542e+01 -1.363456e+01 -1.414805e+01 -1.419331e+01 -1.516727e+01 -1.589727e+01 -1.681660e+01 -9.642613e+00 1.237878e+01 3.359438e+01 4.687652e+01 5.176055e+01 5.236557e+01 5.301386e+01 5.236557e+01 5.176055e+01 4.687652e+01 3.359438e+01 1.237878e+01 -9.642613e+00 -1.681660e+01 -1.589727e+01 -1.516727e+01 -1.419331e+01 -1.414805e+01 -1.363456e+01 -1.364542e+01 -1.326597e+01 -1.326845e+01 
-1.312279e+01 -1.333514e+01 -1.331541e+01 -1.370666e+01 -1.373748e+01 -1.426581e+01 -1.437572e+01 -1.517689e+01 -1.573210e+01 -1.668188e+01 -1.660255e+01 -1.247223e+01 -1.643267e+00 1.544871e+01 2.883814e+01 3.684107e+01 3.964683e+01 3.684107e+01 2.883814e+01 1.544871e+01 -1.643267e+00 -1.247223e+01 -1.660255e+01 -1.668188e+01 -1.573210e+01 -1.517689e+01 -1.437572e+01 -1.426581e+01 -1.373748e+01 -1.370666e+01 -1.331541e+01 -1.333514e+01 
-1.312067e+01 -1.333945e+01 -1.327146e+01 -1.363226e+01 -1.361957e+01 -1.408698e+01 -1.412051e+01 -1.476070e+01 -1.496676e+01 -1.589831e+01 -1.611220e+01 -1.792477e+01 -1.886936e+01 -1.358669e+01 -8.016324e+00 -2.126123e+00 -1.667672e-01 -2.126123e+00 -8.016324e+00 -1.358669e+01 -1.886936e+01 -1.792477e+01 -1.611220e+01 -1.589831e+01 -1.496676e+01 -1.476070e+01 -1.412051e+01 -1.408698e+01 -1.361957e+01 -1.363226e+01 -1.327146e+01 -1.333945e+01 
-1.318798e+01 -1.339205e+01 -1.331686e+01 -1.363710e+01 -1.362417e+01 -1.400987e+01 -1.403068e+01 -1.445298e+01 -1.451605e+01 -1.488422e+01 -1.475414e+01 -1.486714e+01 -1.453599e+01 -1.491349e+01 -1.517092e+01 -1.120005e+01 -1.018214e+01 -1.120005e+01 -1.517092e+01 -1.491349e+01 -1.453599e+01 -1.486714e+01 -1.475414e+01 -1.488422e+01 -1.451605e+01 -1.445298e+01 -1.403068e+01 -1.400987e+01 -1.362417e+01 -1.363710e+01 -1.331686e+01 -1.339205e+01 
-1.320473e+01 -1.341149e+01 -1.330527e+01 -1.360362e+01 -1.355586e+01 -1.391233e+01 -1.390423e+01 -1.431049e+01 -1.437275e+01 -1.482149e+01 -1.498287e+01 -1.530062e+01 -1.574164e+01 -1.482498e+01 -1.316805e+01 -1.077692e+01 -1.040363e+01 -1.077692e+01 -1.316805e+01 -1.482498e+01 -1.574164e+01 -1.530062e+01 -1.498287e+01 -1.482149e+01 -1.437275e+01 -1.431049e+01 -1.390423e+01 -1.391233e+01 -1.355586e+01 -1.360362e+01 -1.330527e+01 -1.341149e+01 
-1.327149e+01 -1.345630e+01 -1.335110e+01 -1.360221e+01 -1.354554e+01 -1.382126e+01 -1.378867e+01 -1.405598e+01 -1.405374e+01 -1.429018e+01 -1.434165e+01 -1.449654e+01 -1.466591e+01 -1.464234e+01 -1.508742e+01 -1.384658e+01 -1.336683e+01 -1.384658e+01 -1.508742e+01 -1.464234e+01 -1.466591e+01 -1.449654e+01 -1.434165e+01 -1.429018e+01 -1.405374e+01 -1.405598e+01 -1.378867e+01 -1.382126e+01 -1.354554e+01 -1.360221e+01 -1.335110e+01 -1.345630e+01 
-1.329533e+01 -1.348464e+01 -1.336232e+01 -1.360600e+01 -1.353102e+01 -1.379391e+01 -1.375284e+01 -1.400597e+01 -1.402385e+01 -1.424284e+01 -1.437633e+01 -1.445400e+01 -1.467005e+01 -1.421104e+01 -1.372689e+01 -1.276380e+01 -1.268090e+01 -1.276380e+01 -1.372689e+01 -1.421104e+01 -1.467005e+01 -1.445400e+01 -1.437633e+01 -1.424284e+01 -1.402385e+01 -1.400597e+01 -1.375284e+01 -1.379391e+01 -1.353102e+01 -1.360600e+01 -1.336232e+01 -1.348464e+01 
-1.334108e+01 -1.351131e+01 -1.339667e+01 -1.360781e+01 -1.353191e+01 -1.374580e+01 -1.369279e+01 -1.387944e+01 -1.387258e+01 -1.403361e+01 -1.414281e+01 -1.426366e+01 -1.449639e+01 -1.440832e+01 -1.455930e+01 -1.396348e+01 -1.391097e+01 -1.396348e+01 -1.455930e+01 -1.440832e+01 -1.449639e+01 -1.426366e+01 -1.414281e+01 -1.403361e+01 -1.387258e+01 -1.387944e+01 -1.369279e+01 -1.374580e+01 -1.353191e+01 -1.360781e+01 -1.339667e+01 -1.351131e+01 
-1.335055e+01 -1.352913e+01 -1.340351e+01 -1.361933e+01 -1.353356e+01 -1.374658e+01 -1.368633e+01 -1.385713e+01 -1.384313e+01 -1.395400e+01 -1.404087e+01 -1.404226e+01 -1.415369e+01 -1.381707e+01 -1.357538e+01 -1.292174e+01 -1.288374e+01 -1.292174e+01 -1.357538e+01 -1.381707e+01 -1.415369e+01 -1.404226e+01 -1.404087e+01 -1.395400e+01 -1.384313e+01 -1.385713e+01 -1.368633e+01 -1.374658e+01 -1.353356e+01 -1.361933e+01 -1.340351e+01 -1.352913e+01 
