# vtk DataFile Version 2.0
Comment goes here
ASCII

DATASET STRUCTURED_POINTS
FIELD FieldData 1
TIME 1 1 double
1.02000000
DIMENSIONS    32   32   1

ORIGIN    0.000   0.000   0.000
SPACING   0.03125 0.03125   1.000

POINT_DATA   1024
SCALARS P double
LOOKUP_TABLE default

-1.067404e+01 -1.063793e+01 -1.059334e+01 -1.047050e+01 -1.034279e+01 -1.013655e+01 -9.953453e+00 -9.716010e+00 -9.539701e+00 -9.339470e+00 -9.176462e+00 -8.984657e+00 -8.697115e+00 -8.340901e+00 -7.792045e+00 -7.321467e+00 -6.995033e+00 -7.321467e+00 -7.792045e+00 -8.340901e+00 -8.697115e+00 -8.984657e+00 -9.176462e+00 -9.339470e+00 -9.539701e+00 -9.716010e+00 -9.953453e+00 -1.013655e+01 -1.034279e+01 -1.047050e+01 -1.059334e+01 -1.063793e+01 
-1.067034e+01 -1.061271e+01 -1.058593e+01 -1.043774e+01 -1.032270e+01 -1.008594e+01 -9.906866e+00 -9.630552e+00 -9.443724e+00 -9.191824e+00 -9.001377e+00 -8.746519e+00 -8.434040e+00 -8.025634e+00 -7.503995e+00 -7.023522e+00 -6.723063e+00 -7.023522e+00 -7.503995e+00 -8.025634e+00 -8.434040e+00 -8.746519e+00 -9.001377e+00 -9.191824e+00 -9.443724e+00 -9.630552e+00 -9.906866e+00 -1.008594e+01 -1.032270e+01 -1.043774e+01 -1.058593e+01 -1.061271e+01 
-1.075822e+01 -1.072414e+01 -1.068097e+01 -1.056320e+01 -1.044082e+01 -1.024118e+01 -1.006837e+01 -9.833477e+00 -9.670659e+00 -9.465794e+00 -9.318750e+00 -9.141758e+00 -8.890084e+00 -8.595671e+00 -8.101448e+00 -7.634970e+00 -7.287543e+00 -7.634970e+00 -8.101448e+00 -8.595671e+00 -8.890084e+00 -9.141758e+00 -9.318750e+00 -9.465794e+00 -9.670659e+00 -9.833477e+00 -1.006837e+01 -1.024118e+01 -1.044082e+01 -1.056320e+01 -1.068097e+01 -1.072414e+01 
-1.085083e+01 -1.079779e+01 -1.077689e+01 -1.064140e+01 -1.054021e+01 -1.031631e+01 -1.015480e+01 -9.874611e+00 -9.697228e+00 -9.411664e+00 -9.209657e+00 -8.933028e+00 -8.612409e+00 -8.251078e+00 -7.837456e+00 -7.403904e+00 -7.080948e+00 -7.403904e+00 -7.837456e+00 -8.251078e+00 -8.612409e+00 -8.933028e+00 -9.209657e+00 -9.411664e+00 -9.697228e+00 -9.874611e+00 -1.015480e+01 -1.031631e+01 -1.054021e+01 -1.064140e+01 -1.077689e+01 -1.079779e+01 
-1.102589e+01 -1.099960e+01 -1.096575e+01 -1.086839e+01 -1.075909e+01 -1.057155e+01 -1.040004e+01 -1.013233e+01 -9.945624e+00 -9.634195e+00 -9.444292e+00 -9.179853e+00 -8.907328e+00 -8.704310e+00 -8.257221e+00 -7.697536e+00 -7.251237e+00 -7.697536e+00 -8.257221e+00 -8.704310e+00 -8.907328e+00 -9.179853e+00 -9.444292e+00 -9.634195e+00 -9.945624e+00 -1.013233e+01 -1.040004e+01 -1.057155e+01 -1.075909e+01 -1.086839e+01 -1.096575e+01 -1.099960e+01 
-1.124500e+01 -1.120429e+01 -1.120396e+01 -1.110342e+01 -1.102686e+01 -1.082051e+01 -1.065665e+01 -1.031937e+01 -1.008543e+01 -9.613547e+00 -9.284150e+00 -8.792288e+00 -8.235929e+00 -7.818164e+00 -7.448274e+00 -6.956939e+00 -6.443495e+00 -6.956939e+00 -7.448274e+00 -7.818164e+00 -8.235929e+00 -8.792288e+00 -9.284150e+00 -9.613547e+00 -1.008543e+01 -1.031937e+01 -1.065665e+01 -1.082051e+01 -1.102686e+01 -1.110342e+01 -1.120396e+01 -1.120429e+01 
-1.153996e+01 -1.152905e+01 -1.152458e+01 -1.147366e+01 -1.138168e+01 -1.121175e+01 -1.099310e+01 -1.063265e+01 -1.031693e+01 -9.688898e+00 -9.361787e+00 -8.717298e+00 -8.301735e+00 -8.163888e+00 -7.225821e+00 -5.979929e+00 -5.049846e+00 -5.979929e+00 -7.225821e+00 -8.163888e+00 -8.301735e+00 -8.717298e+00 -9.361787e+00 -9.688898e+00 -1.031693e+01 -1.063265e+01 -1.099310e+01 -1.121175e+01 -1.138168e+01 -1.147366e+01 -1.152458e+01 -1.152905e+01 
-1.192437e+01 -1.190495e+01 -1.195029e+01 -1.191655e+01 -1.187268e+01 -1.170187e+01 -1.150099e+01 -1.107898e+01 -1.072507e+01 -9.869266e+00 -9.358370e+00 -8.224697e+00 -6.951795e+00 -6.309932e+00 -5.668107e+00 -4.666433e+00 -3.492560e+00 -4.666433e+00 -5.668107e+00 -6.309932e+00 -6.951795e+00 -8.224697e+00 -9.358370e+00 -9.869266e+00 -1.072507e+01 -1.107898e+01 -1.150099e+01 -1.170187e+01 -1.187268e+01 -1.191655e+01 -1.195029e+01 -1.190495e+01 
-1.236108e+01 -1.236951e+01 -1.242919e+01 -1.245859e+01 -1.239658e+01 -1.229025e+01 -1.197225e+01 -1.156679e+01 -1.097261e+01 -9.740742e+00 -9.348890e+00 -7.614851e+00 -7.887289e+00 -7.941699e+00 -4.856527e+00 -2.158046e+00 -6.382678e-01 -2.158046e+00 -4.856527e+00 -7.941699e+00 -7.887289e+00 -7.614851e+00 -9.348890e+00 -9.740742e+00 -1.097261e+01 -1.156679e+01 -1.197225e+01 -1.229025e+01 -1.239658e+01 -1.245859e+01 -1.242919e+01 -1.236951e+01 
-1.286640e+01 -1.287332e+01 -1.299797e+01 -1.307135e+01 -1.307631e+01 -1.302709e+01 -1.277683e+01 -1.243710e+01 -1.195499e+01 -1.059284e+01 -1.023570e+01 -7.168983e+00 1.033212e+00 7.254713e+00 1.431391e+01 2.139202e+01 2.330484e+01 2.139202e+01 1.431391e+01 7.254713e+00 1.033212e+00 -7.168983e+00 -1.023570e+01 -1.059284e+01 -1.195499e+01 -1.243710e+01 -1.277683e+01 -1.302709e+01 -1.307631e+01 -1.307135e+01 -1.299797e+01 -1.287332e+01 
-1.333730e+01 -1.335966e+01 -1.354012e+01 -1.369138e+01 -1.372878e+01 -1.384829e+01 -1.348067e+01 -1.357625e+01 -1.226844e+01 -9.923064e+00 -3.221291e+00 1.068090e+01 2.753313e+01 3.818286e+01 4.254600e+01 4.595078e+01 4.628339e+01 4.595078e+01 4.254600e+01 3.818286e+01 2.753313e+01 1.068090e+01 -3.221291e+00 -9.923064e+00 -1.226844e+01 -1.357625e+01 -1.348067e+01 -1.384829e+01 -1.372878e+01 -1.369138e+01 -1.354012e+01 -1.335966e+01 
-1.375025e+01 -1.377694e+01 -1.403891e+01 -1.427368e+01 -1.438553e+01 -1.469471e+01 -1.441419e+01 -1.501287e+01 -1.389516e+01 -1.362893e+00 2.179286e+01 3.843116e+01 4.475231e+01 4.698073e+01 4.614501e+01 4.612199e+01 4.576317e+01 4.612199e+01 4.614501e+01 4.698073e+01 4.475231e+01 3.843116e+01 2.179286e+01 -1.362893e+00 -1.389516e+01 -1.501287e+01 -1.441419e+01 -1.469471e+01 -1.438553e+01 -1.427368e+01 -1.403891e+01 -1.377694e+01 
-1.398774e+01 -1.399990e+01 -1.439436e+01 -1.467198e+01 -1.498505e+01 -1.545165e+01 -1.544135e+01 -1.745334e+01 -8.659137e+00 1.926412e+01 4.467918e+01 4.849185e+01 4.687504e+01 4.664141e+01 4.599319e+01 4.668219e+01 4.631433e+01 4.668219e+01 4.599319e+01 4.664141e+01 4.687504e+01 4.849185e+01 4.467918e+01 1.926412e+01 -8.659137e+00 -1.745334e+01 -1.544135e+01 -1.545165e+01 -1.498505e+01 -1.467198e+01 -1.439436e+01 -1.399990e+01 
-1.403561e+01 -1.402349e+01 -1.454833e+01 -1.489294e+01 -1.525030e+01 -1.590939e+01 -1.547825e+01 -1.815734e+01 6.554109e+00 3.951243e+01 4.953936e+01 4.824427e+01 4.746024e+01 4.772193e+01 4.693203e+01 4.725163e+01 4.672034e+01 4.725163e+01 4.693203e+01 4.772193e+01 4.746024e+01 4.824427e+01 4.953936e+01 3.951243e+01 6.554109e+00 -1.815734e+01 -1.547825e+01 -1.590939e+01 -1.525030e+01 -1.489294e+01 -1.454833e+01 -1.402349e+01 
-1.381484e+01 -1.375251e+01 -1.445831e+01 -1.467499e+01 -1.541597e+01 -1.524202e+01 -1.605616e+01 -1.179771e+01 2.362887e+01 4.962659e+01 4.947938e+01 4.927370e+01 4.785752e+01 4.800477e+01 4.701433e+01 4.752814e+01 4.687645e+01 4.752814e+01 4.701433e+01 4.800477e+01 4.785752e+01 4.927370e+01 4.947938e+01 4.962659e+01 2.362887e+01 -1.179771e+01 -1.605616e+01 -1.524202e+01 -1.541597e+01 -1.467499e+01 -1.445831e+01 -1.375251e+01 
-1.356564e+01 -1.336935e+01 -1.432941e+01 -1.429007e+01 -1.556949e+01 -1.444269e+01 -1.672816e+01 -6.243368e+00 3.458739e+01 5.237914e+01 4.907782e+01 4.971579e+01 4.797331e+01 4.843860e+01 4.736230e+01 4.786146e+01 4.716314e+01 4.786146e+01 4.736230e+01 4.843860e+01 4.797331e+01 4.971579e+01 4.907782e+01 5.237914e+01 3.458739e+01 -6.243368e+00 -1.672816e+01 -1.444269e+01 -1.556949e+01 -1.429007e+01 -1.432941e+01 -1.336935e+01 
-1.333850e+01 -1.317439e+01 -1.410911e+01 -1.411406e+01 -1.528298e+01 -1.425557e+01 -1.610361e+01 -5.503628e+00 3.617607e+01 5.284421e+01 4.929938e+01 5.007933e+01 4.806908e+01 4.849667e+01 4.730454e+01 4.785697e+01 4.709582e+01 4.785697e+01 4.730454e+01 4.849667e+01 4.806908e+01 5.007933e+01 4.929938e+01 5.284421e+01 3.617607e+01 -5.503628e+00 -1.610361e+01 -1.425557e+01 -1.528298e+01 -1.411406e+01 -1.410911e+01 -1.317439e+01 
-1.356564e+01 -1.336935e+01 -1.432941e+01 -1.429007e+01 -1.556949e+01 -1.444269e+01 -1.672816e+01 -6.243368e+00 3.458739e+01 5.237914e+01 4.907782e+01 4.971579e+01 4.797331e+01 4.843860e+01 4.736230e+01 4.786146e+01 4.716314e+01 4.786146e+01 4.736230e+01 4.843860e+01 4.797331e+01 4.971579e+01 4.907782e+01 5.237914e+01 3.458739e+01 -6.243368e+00 -1.672816e+01 -1.444269e+01 -1.556949e+01 -1.429007e+01 -1.432941e+01 -1.336935e+01 
-1.381484e+01 -1.375251e+01 -1.445831e+01 -1.467499e+01 -1.541597e+01 -1.524202e+01 -1.605616e+01 -1.179771e+01 2.362887e+01 4.962659e+01 4.947938e+01 4.927370e+01 4.785752e+01 4.800477e+01 4.701433e+01 4.752814e+01 4.687645e+01 4.752814e+01 4.701433e+01 4.800477e+01 4.785752e+01 4.927370e+01 4.947938e+01 4.962659e+01 2.362887e+01 -1.179771e+01 -1.605616e+01 -1.524202e+01 -1.541597e+01 -1.467499e+01 -1.445831e+01 -1.375251e+01 
-1.403561e+01 -1.402349e+01 -1.454833e+01 -1.489294e+01 -1.525030e+01 -1.590939e+01 -1.547825e+01 -1.815734e+01 6.554109e+00 3.951243e+01 4.953936e+01 4.824427e+01 4.746024e+01 4.772193e+01 4.693203e+01 4.725163e+01 4.672034e+01 4.725163e+01 4.693203e+01 4.772193e+01 4.746024e+01 4.824427e+01 4.953936e+01 3.951243e+01 6.554109e+00 -1.815734e+01 -1.547825e+01 -1.590939e+01 -1.525030e+01 -1.489294e+01 -1.454833e+01 -1.402349e+01 
-1.398774e+01 -1.399990e+01 -1.439436e+01 -1.467198e+01 -1.498505e+01 -1.545165e+01 -1.544135e+01 -1.745334e+01 -8.659137e+00 1.926412e+01 4.467918e+01 4.849185e+01 4.687504e+01 4.664141e+01 4.599319e+01 4.668219e+01 4.631433e+01 4.668219e+01 4.599319e+01 4.664141e+01 4.687504e+01 4.849185e+01 4.467918e+01 1.926412e+01 -8.659137e+00 -1.745334e+01 -1.544135e+01 -1.545165e+01 -1.498505e+01 -1.467198e+01 -1.439436e+01 -1.399990e+01 
-1.375025e+01 -1.377694e+01 -1.403891e+01 -1.427368e+01 -1.438553e+01 -1.469471e+01 -1.441419e+01 -1.501287e+01 -1.389516e+01 -1.362893e+00 2.179286e+01 3.843116e+01 4.475231e+01 4.698073e+01 4.614501e+01 4.612199e+01 4.576317e+01 4.612199e+01 4.614501e+01 4.698073e+01 4.475231e+01 3.843116e+01 2.179286e+01 -1.362893e+00 -1.389516e+01 -1.501287e+01 -1.441419e+01 -1.469471e+01 -1.438553e+01 -1.427368e+01 -1.403891e+01 -1.377694e+01 
-1.333730e+01 -1.335966e+01 -1.354012e+01 -1.369138e+01 -1.372878e+01 -1.384829e+01 -1.348067e+01 -1.357625e+01 -1.226844e+01 -9.923064e+00 -3.221291e+00 1.068090e+01 2.753313e+01 3.818286e+01 4.254600e+01 4.595078e+01 4.628339e+01 4.595078e+01 4.254600e+01 3.818286e+01 2.753313e+01 1.068090e+01 -3.221291e+00 -9.923064e+00 -1.226844e+01 -1.357625e+01 -1.348067e+01 -1.384829e+01 -1.372878e+01 -1.369138e+01 -1.354012e+01 -1.335966e+01 
-1.286640e+01 -1.287332e+01 -1.299797e+01 -1.307135e+01 -1.307631e+01 -1.302709e+01 -1.277683e+01 -1.243710e+01 -1.195499e+01 -1.059284e+01 -1.023570e+01 -7.168983e+00 1.033212e+00 7.254713e+00 1.431391e+01 2.139202e+01 2.330484e+01 2.139202e+01 1.431391e+01 7.254713e+00 1.033212e+00 -7.168983e+00 -1.023570e+01 -1.059284e+01 -1.195499e+01 -1.243710e+01 -1.277683e+01 -1.302709e+01 -1.307631e+01 -1.307135e+01 -1.299797e+01 -1.287332e+01 
-1.236108e+01 -1.236951e+01 -1.242919e+01 -1.245859e+01 -1.239658e+01 -1.229025e+01 -1.197225e+01 -1.156679e+01 -1.097261e+01 -9.740742e+00 -9.348890e+00 -7.614851e+00 -7.887289e+00 -7.941699e+00 -4.856527e+00 -2.158046e+00 -6.382678e-01 -2.158046e+00 -4.856527e+00 -7.941699e+00 -7.887289e+00 -7.614851e+00 -9.348890e+00 -9.740742e+00 -1.097261e+01 -1.156679e+01 -1.197225e+01 -1.229025e+01 -1.239658e+01 -1.245859e+01 -1.242919e+01 -1.236951e+01 
-1.192437e+01 -1.190495e+01 -1.195029e+01 -1.191655e+01 -1.187268e+01 -1.170187e+01 -1.150099e+01 -1.107898e+01 -1.072507e+01 -9.869266e+00 -9.358370e+00 -8.224697e+00 -6.951795e+00 -6.309932e+00 -5.668107e+00 -4.666433e+00 -3.492560e+00 -4.666433e+00 -5.668107e+00 -6.309932e+00 -6.951795e+00 -8.224697e+00 -9.358370e+00 -9.869266e+00 -1.072507e+01 -1.107898e+01 -1.150099e+01 -1.170187e+01 -1.187268e+01 -1.191655e+01 -1.195029e+01 -1.190495e+01 
-1.153996e+01 -1.152905e+01 -1.152458e+01 -1.147366e+01 -1.138168e+01 -1.121175e+01 -1.099310e+01 -1.063265e+01 -1.031693e+01 -9.688898e+00 -9.361787e+00 -8.717298e+00 -8.301735e+00 -8.163888e+00 -7.225821e+00 -5.979929e+00 -5.049846e+00 -5.979929e+00 -7.225821e+00 -8.163888e+00 -8.301735e+00 -8.717298e+00 -9.361787e+00 -9.688898e+00 -1.031693e+01 -1.063265e+01 -1.099310e+01 -1.121175e+01 -1.138168e+01 -1.147366e+01 -1.152458e+01 -1.152905e+01 
-1.124500e+01 -1.120429e+01 -1.120396e+01 -1.110342e+01 -1.102686e+01 -1.082051e+01 -1.065665e+01 -1.031937e+01 -1.008543e+01 -9.613547e+00 -9.284150e+00 -8.792288e+00 -8.235929e+00 -7.818164e+00 -7.448274e+00 -6.956939e+00 -6.443495e+00 -6.956939e+00 -7.448274e+00 -7.818164e+00 -8.235929e+00 -8.792288e+00 -9.284150e+00 -9.613547e+00 -1.008543e+01 -1.031937e+01 -1.065665e+01 -1.082051e+01 -1.102686e+01 -1.110342e+01 -1.120396e+01 -1.120429e+01 
-1.102589e+01 -1.099960e+01 -1.096575e+01 -1.086839e+01 -1.075909e+01 -1.057155e+01 -1.040004e+01 -1.013233e+01 -9.945624e+00 -9.634195e+00 -9.444292e+00 -9.179853e+00 -8.907328e+00 -8.704310e+00 -8.257221e+00 -7.697536e+00 -7.251237e+00 -7.697536e+00 -8.257221e+00 -8.704310e+00 -8.907328e+00 -9.179853e+00 -9.444292e+00 -9.634195e+00 -9.945624e+00 -1.013233e+01 -1.040004e+01 -1.057155e+01 -1.075909e+01 -1.086839e+01 -1.096575e+01 -1.099960e+01 
-1.085083e+01 -1.079779e+01 -1.077689e+01 -1.064140e+01 -1.054021e+01 -1.031631e+01 -1.015480e+01 -9.874611e+00 -9.697228e+00 -9.411664e+00 -9.209657e+00 -8.933028e+00 -8.612409e+00 -8.251078e+00 -7.837456e+00 -7.403904e+00 -7.080948e+00 -7.403904e+00 -7.837456e+00 -8.251078e+00 -8.612409e+00 -8.933028e+00 -9.209657e+00 -9.411664e+00 -9.697228e+00 -9.874611e+00 -1.015480e+01 -1.031631e+01 -1.054021e+01 -1.064140e+01 -1.077689e+01 -1.079779e+01 
-1.075822e+01 -1.072414e+01 -1.068097e+01 -1.056320e+01 -1.044082e+01 -1.024118e+01 -1.006837e+01 -9.833477e+00 -9.670659e+00 -9.465794e+00 -9.318750e+00 -9.141758e+00 -8.890084e+00 -8.595671e+00 -8.101448e+00 -7.634970e+00 -7.287543e+00 -7.634970e+00 -8.101448e+00 -8.595671e+00 -8.890084e+00 -9.141758e+00 -9.318750e+00 -9.465794e+00 -9.670659e+00 -9.833477e+00 -1.006837e+01 -1.024118e+01 -1.044082e+01 -1.056320e+01 -1.068097e+01 -1.072414e+01 
-1.067034e+01 -1.061271e+01 -1.058593e+01 -1.043774e+01 -1.032270e+01 -1.008594e+01 -9.906866e+00 -9.630552e+00 -9.443724e+00 -9.191824e+00 -9.001377e+00 -8.746519e+00 -8.434040e+00 -8.025634e+00 -7.503995e+00 -7.023522e+00 -6.723063e+00 -7.023522e+00 -7.503995e+00 -8.025634e+00 -8.434040e+00 -8.746519e+00 -9.001377e+00 -9.191824e+00 -9.443724e+00 -9.630552e+00 -9.906866e+00 -1.008594e+01 -1.032270e+01 -1.043774e+01 -1.058593e+01 -1.061271e+01 
