# vtk DataFile Version 2.0
Comment goes here
ASCII

DATASET STRUCTURED_POINTS
FIELD FieldData 1
TIME 1 1 double
0.64000000
DIMENSIONS    32   32   1

ORIGIN    0.000   0.000   0.000
SPACING   0.03125 0.03125   1.000

POINT_DATA   1024
SCALARS P double
LOOKUP_TABLE default

-1.423993e+01 -1.421912e+01 -1.441234e+01 -1.456523e+01 -1.493394e+01 -1.527019e+01 -1.582497e+01 -1.636826e+01 -1.712186e+01 -1.788146e+01 -1.875769e+01 -1.957392e+01 -2.020038e+01 -2.061559e+01 -2.049609e+01 -2.035615e+01 -2.015279e+01 -2.035615e+01 -2.049609e+01 -2.061559e+01 -2.020038e+01 -1.957392e+01 -1.875769e+01 -1.788146e+01 -1.712186e+01 -1.636826e+01 -1.582497e+01 -1.527019e+01 -1.493394e+01 -1.456523e+01 -1.441234e+01 -1.421912e+01 
-1.403339e+01 -1.403877e+01 -1.420291e+01 -1.438140e+01 -1.472148e+01 -1.509106e+01 -1.562736e+01 -1.622633e+01 -1.698891e+01 -1.784447e+01 -1.878397e+01 -1.975130e+01 -2.054035e+01 -2.116836e+01 -2.138217e+01 -2.146491e+01 -2.131100e+01 -2.146491e+01 -2.138217e+01 -2.116836e+01 -2.054035e+01 -1.975130e+01 -1.878397e+01 -1.784447e+01 -1.698891e+01 -1.622633e+01 -1.562736e+01 -1.509106e+01 -1.472148e+01 -1.438140e+01 -1.420291e+01 -1.403877e+01 
-1.406808e+01 -1.404720e+01 -1.424130e+01 -1.439563e+01 -1.477217e+01 -1.512003e+01 -1.570395e+01 -1.628525e+01 -1.711149e+01 -1.795217e+01 -1.896722e+01 -1.991402e+01 -2.072179e+01 -2.128994e+01 -2.123196e+01 -2.116215e+01 -2.103481e+01 -2.116215e+01 -2.123196e+01 -2.128994e+01 -2.072179e+01 -1.991402e+01 -1.896722e+01 -1.795217e+01 -1.711149e+01 -1.628525e+01 -1.570395e+01 -1.512003e+01 -1.477217e+01 -1.439563e+01 -1.424130e+01 -1.404720e+01 
-1.369547e+01 -1.369860e+01 -1.386191e+01 -1.403557e+01 -1.438095e+01 -1.475625e+01 -1.532498e+01 -1.596779e+01 -1.682426e+01 -1.779890e+01 -1.894098e+01 -2.014185e+01 -2.122454e+01 -2.217069e+01 -2.284779e+01 -2.312772e+01 -2.295906e+01 -2.312772e+01 -2.284779e+01 -2.217069e+01 -2.122454e+01 -2.014185e+01 -1.894098e+01 -1.779890e+01 -1.682426e+01 -1.596779e+01 -1.532498e+01 -1.475625e+01 -1.438095e+01 -1.403557e+01 -1.386191e+01 -1.369860e+01 
-1.355143e+01 -1.352996e+01 -1.372248e+01 -1.387365e+01 -1.425731e+01 -1.461579e+01 -1.524257e+01 -1.588633e+01 -1.684071e+01 -1.784601e+01 -1.917415e+01 -2.041620e+01 -2.171643e+01 -2.249757e+01 -2.228272e+01 -2.228641e+01 -2.230847e+01 -2.228641e+01 -2.228272e+01 -2.249757e+01 -2.171643e+01 -2.041620e+01 -1.917415e+01 -1.784601e+01 -1.684071e+01 -1.588633e+01 -1.524257e+01 -1.461579e+01 -1.425731e+01 -1.387365e+01 -1.372248e+01 -1.352996e+01 
-1.303195e+01 -1.303027e+01 -1.318612e+01 -1.333838e+01 -1.366967e+01 -1.401573e+01 -1.458143e+01 -1.522595e+01 -1.613464e+01 -1.722674e+01 -1.864233e+01 -2.020846e+01 -2.167826e+01 -2.321470e+01 -2.521322e+01 -2.556916e+01 -2.478736e+01 -2.556916e+01 -2.521322e+01 -2.321470e+01 -2.167826e+01 -2.020846e+01 -1.864233e+01 -1.722674e+01 -1.613464e+01 -1.522595e+01 -1.458143e+01 -1.401573e+01 -1.366967e+01 -1.333838e+01 -1.318612e+01 -1.303027e+01 
-1.271414e+01 -1.269084e+01 -1.287087e+01 -1.299627e+01 -1.335178e+01 -1.366302e+01 -1.426139e+01 -1.489659e+01 -1.588558e+01 -1.709757e+01 -1.889093e+01 -2.088159e+01 -2.355666e+01 -2.176652e+01 -1.413725e+01 -7.109713e+00 -3.513086e+00 -7.109713e+00 -1.413725e+01 -2.176652e+01 -2.355666e+01 -2.088159e+01 -1.889093e+01 -1.709757e+01 -1.588558e+01 -1.489659e+01 -1.426139e+01 -1.366302e+01 -1.335178e+01 -1.299627e+01 -1.287087e+01 -1.269084e+01 
-1.211218e+01 -1.210334e+01 -1.223888e+01 -1.233610e+01 -1.260284e+01 -1.282209e+01 -1.327340e+01 -1.376267e+01 -1.451080e+01 -1.561434e+01 -1.714125e+01 -1.774297e+01 -9.073279e+00 1.323049e+01 3.241078e+01 4.209542e+01 4.684134e+01 4.209542e+01 3.241078e+01 1.323049e+01 -9.073279e+00 -1.774297e+01 -1.714125e+01 -1.561434e+01 -1.451080e+01 -1.376267e+01 -1.327340e+01 -1.282209e+01 -1.260284e+01 -1.233610e+01 -1.223888e+01 -1.210334e+01 
-1.166343e+01 -1.163726e+01 -1.178616e+01 -1.184107e+01 -1.209728e+01 -1.221650e+01 -1.262561e+01 -1.298694e+01 -1.356850e+01 -1.479004e+01 -1.482569e+01 -3.157472e+00 2.328506e+01 4.603016e+01 5.466077e+01 5.566796e+01 5.647198e+01 5.566796e+01 5.466077e+01 4.603016e+01 2.328506e+01 -3.157472e+00 -1.482569e+01 -1.479004e+01 -1.356850e+01 -1.298694e+01 -1.262561e+01 -1.221650e+01 -1.209728e+01 -1.184107e+01 -1.178616e+01 -1.163726e+01 
-1.110496e+01 -1.109128e+01 -1.119114e+01 -1.119031e+01 -1.132117e+01 -1.124238e+01 -1.143979e+01 -1.140581e+01 -1.152983e+01 -1.234896e+01 -4.063879e+00 2.287133e+01 4.696277e+01 5.205362e+01 5.123714e+01 5.141279e+01 5.184618e+01 5.141279e+01 5.123714e+01 5.205362e+01 4.696277e+01 2.287133e+01 -4.063879e+00 -1.234896e+01 -1.152983e+01 -1.140581e+01 -1.143979e+01 -1.124238e+01 -1.132117e+01 -1.119031e+01 -1.119114e+01 -1.109128e+01 
-1.059674e+01 -1.057870e+01 -1.067525e+01 -1.062179e+01 -1.070239e+01 -1.042246e+01 -1.062223e+01 -1.006099e+01 -1.076386e+01 -8.860271e+00 1.446043e+01 4.275241e+01 5.028572e+01 5.091597e+01 5.196254e+01 5.234550e+01 5.297987e+01 5.234550e+01 5.196254e+01 5.091597e+01 5.028572e+01 4.275241e+01 1.446043e+01 -8.860271e+00 -1.076386e+01 -1.006099e+01 -1.062223e+01 -1.042246e+01 -1.070239e+01 -1.062179e+01 -1.067525e+01 -1.057870e+01 
-1.018296e+01 -1.019723e+01 -1.025440e+01 -1.017368e+01 -1.013355e+01 -9.613263e+00 -9.634496e+00 -8.307828e+00 -9.677317e+00 1.715479e-01 3.036799e+01 4.841671e+01 4.910929e+01 4.973748e+01 4.964812e+01 4.988746e+01 5.000868e+01 4.988746e+01 4.964812e+01 4.973748e+01 4.910929e+01 4.841671e+01 3.036799e+01 1.715479e-01 -9.677317e+00 -8.307828e+00 -9.634496e+00 -9.613263e+00 -1.013355e+01 -1.017368e+01 -1.025440e+01 -1.019723e+01 
-9.593033e+00 -9.650148e+00 -9.682765e+00 -9.632181e+00 -9.434112e+00 -8.821640e+00 -8.434080e+00 -6.911245e+00 -7.281170e+00 1.236467e+01 4.202738e+01 4.891994e+01 4.846313e+01 4.959554e+01 4.999921e+01 5.035195e+01 5.063565e+01 5.035195e+01 4.999921e+01 4.959554e+01 4.846313e+01 4.891994e+01 4.202738e+01 1.236467e+01 -7.281170e+00 -6.911245e+00 -8.434080e+00 -8.821640e+00 -9.434112e+00 -9.632181e+00 -9.682765e+00 -9.650148e+00 
-9.211534e+00 -9.365732e+00 -9.346584e+00 -9.458141e+00 -9.056669e+00 -8.622387e+00 -7.419765e+00 -6.460846e+00 -3.963854e+00 2.017500e+01 4.512570e+01 4.722690e+01 4.763704e+01 4.833093e+01 4.866584e+01 4.884659e+01 4.899488e+01 4.884659e+01 4.866584e+01 4.833093e+01 4.763704e+01 4.722690e+01 4.512570e+01 2.017500e+01 -3.963854e+00 -6.460846e+00 -7.419765e+00 -8.622387e+00 -9.056669e+00 -9.458141e+00 -9.346584e+00 -9.365732e+00 
-8.382099e+00 -8.627969e+00 -8.590847e+00 -8.904118e+00 -8.298712e+00 -7.992690e+00 -5.775953e+00 -5.346307e+00 -3.249928e-01 2.740692e+01 4.617714e+01 4.633470e+01 4.782287e+01 4.821050e+01 4.902682e+01 4.909466e+01 4.945702e+01 4.909466e+01 4.902682e+01 4.821050e+01 4.782287e+01 4.633470e+01 4.617714e+01 2.740692e+01 -3.249928e-01 -5.346307e+00 -5.775953e+00 -7.992690e+00 -8.298712e+00 -8.904118e+00 -8.590847e+00 -8.627969e+00 
-7.977162e+00 -8.301652e+00 -8.223401e+00 -8.674745e+00 -7.955261e+00 -7.735734e+00 -5.179784e+00 -4.915541e+00 1.120883e+00 3.108680e+01 4.689825e+01 4.577441e+01 4.759770e+01 4.746758e+01 4.829731e+01 4.819532e+01 4.853743e+01 4.819532e+01 4.829731e+01 4.746758e+01 4.759770e+01 4.577441e+01 4.689825e+01 3.108680e+01 1.120883e+00 -4.915541e+00 -5.179784e+00 -7.735734e+00 -7.955261e+00 -8.674745e+00 -8.223401e+00 -8.301652e+00 
-7.310408e+00 -7.644536e+00 -7.546413e+00 -7.999991e+00 -7.154553e+00 -6.688402e+00 -3.827306e+00 -3.277882e+00 3.660780e+00 3.282104e+01 4.671701e+01 4.579670e+01 4.781065e+01 4.775399e+01 4.877619e+01 4.866770e+01 4.912336e+01 4.866770e+01 4.877619e+01 4.775399e+01 4.781065e+01 4.579670e+01 4.671701e+01 3.282104e+01 3.660780e+00 -3.277882e+00 -3.827306e+00 -6.688402e+00 -7.154553e+00 -7.999991e+00 -7.546413e+00 -7.644536e+00 
-7.977162e+00 -8.301652e+00 -8.223401e+00 -8.674745e+00 -7.955261e+00 -7.735734e+00 -5.179784e+00 -4.915541e+00 1.120883e+00 3.108680e+01 4.689825e+01 4.577441e+01 4.759770e+01 4.746758e+01 4.829731e+01 4.819532e+01 4.853743e+01 4.819532e+01 4.829731e+01 4.746758e+01 4.759770e+01 4.577441e+01 4.689825e+01 3.108680e+01 1.120883e+00 -4.915541e+00 -5.179784e+00 -7.735734e+00 -7.955261e+00 -8.674745e+00 -8.223401e+00 -8.301652e+00 
-8.382099e+00 -8.627969e+00 -8.590847e+00 -8.904118e+00 -8.298712e+00 -7.992690e+00 -5.775953e+00 -5.346307e+00 -3.249928e-01 2.740692e+01 4.617714e+01 4.633470e+01 4.782287e+01 4.821050e+01 4.902682e+01 4.909466e+01 4.945702e+01 4.909466e+01 4.902682e+01 4.821050e+01 4.782287e+01 4.633470e+01 4.617714e+01 2.740692e+01 -3.249928e-01 -5.346307e+00 -5.775953e+00 -7.992690e+00 -8.298712e+00 -8.904118e+00 -8.590847e+00 -8.627969e+00 
-9.211534e+00 -9.365732e+00 -9.346584e+00 -9.458141e+00 -9.056669e+00 -8.622387e+00 -7.419765e+00 -6.460846e+00 -3.963854e+00 2.017500e+01 4.512570e+01 4.722690e+01 4.763704e+01 4.833093e+01 4.866584e+01 4.884659e+01 4.899488e+01 4.884659e+01 4.866584e+01 4.833093e+01 4.763704e+01 4.722690e+01 4.512570e+01 2.017500e+01 -3.963854e+00 -6.460846e+00 -7.419765e+00 -8.622387e+00 -9.056669e+00 -9.458141e+00 -9.346584e+00 -9.365732e+00 
-9.593033e+00 -9.650148e+00 -9.682765e+00 -9.632181e+00 -9.434112e+00 -8.821640e+00 -8.434080e+00 -6.911245e+00 -7.281170e+00 1.236467e+01 4.202738e+01 4.891994e+01 4.846313e+01 4.959554e+01 4.999921e+01 5.035195e+01 5.063565e+01 5.035195e+01 4.999921e+01 4.959554e+01 4.846313e+01 4.891994e+01 4.202738e+01 1.236467e+01 -7.281170e+00 -6.911245e+00 -8.434080e+00 -8.821640e+00 -9.434112e+00 -9.632181e+00 -9.682765e+00 -9.650148e+00 
-1.018296e+01 -1.019723e+01 -1.025440e+01 -1.017368e+01 -1.013355e+01 -9.613263e+00 -9.634496e+00 -8.307828e+00 -9.677317e+00 1.715479e-01 3.036799e+01 4.841671e+01 4.910929e+01 4.973748e+01 4.964812e+01 4.988746e+01 5.000868e+01 4.988746e+01 4.964812e+01 4.973748e+01 4.910929e+01 4.841671e+01 3.036799e+01 1.715479e-01 -9.677317e+00 -8.307828e+00 -9.634496e+00 -9.613263e+00 -1.013355e+01 -1.017368e+01 -1.025440e+01 -1.019723e+01 
-1.059674e+01 -1.057870e+01 -1.067525e+01 -1.062179e+01 -1.070239e+01 -1.042246e+01 -1.062223e+01 -1.006099e+01 -1.076386e+01 -8.860271e+00 1.446043e+01 4.275241e+01 5.028572e+01 5.091597e+01 5.196254e+01 5.234550e+01 5.297987e+01 5.234550e+01 5.196254e+01 5.091597e+01 5.028572e+01 4.275241e+01 1.446043e+01 -8.860271e+00 -1.076386e+01 -1.006099e+01 -1.062223e+01 -1.042246e+01 -1.070239e+01 -1.062179e+01 -1.067525e+01 -1.057870e+01 
-1.110496e+01 -1.109128e+01 -1.119114e+01 -1.119031e+01 -1.132117e+01 -1.124238e+01 -1.143979e+01 -1.140581e+01 -1.152983e+01 -1.234896e+01 -4.063879e+00 2.287133e+01 4.696277e+01 5.205362e+01 5.123714e+01 5.141279e+01 5.184618e+01 5.141279e+01 5.123714e+01 5.205362e+01 4.696277e+01 2.287133e+01 -4.063879e+00 -1.234896e+01 -1.152983e+01 -1.140581e+01 -1.143979e+01 -1.124238e+01 -1.132117e+01 -1.119031e+01 -1.119114e+01 -1.109128e+01 
-1.166343e+01 -1.163726e+01 -1.178616e+01 -1.184107e+01 -1.209728e+01 -1.221650e+01 -1.262561e+01 -1.298694e+01 -1.356850e+01 -1.479004e+01 -1.482569e+01 -3.157472e+00 2.328506e+01 4.603016e+01 5.466077e+01 5.566796e+01 5.647198e+01 5.566796e+01 5.466077e+01 4.603016e+01 2.328506e+01 -3.157472e+00 -1.482569e+01 -1.479004e+01 -1.356850e+01 -1.298694e+01 -1.262561e+01 -1.221650e+01 -1.209728e+01 -1.184107e+01 -1.178616e+01 -1.163726e+01 
-1.211218e+01 -1.210334e+01 -1.223888e+01 -1.233610e+01 -1.260284e+01 -1.282209e+01 -1.327340e+01 -1.376267e+01 -1.451080e+01 -1.561434e+01 -1.714125e+01 -1.774297e+01 -9.073279e+00 1.323049e+01 3.241078e+01 4.209542e+01 4.684134e+01 4.209542e+01 3.241078e+01 1.323049e+01 -9.073279e+00 -1.774297e+01 -1.714125e+01 -1.561434e+01 -1.451080e+01 -1.376267e+01 -1.327340e+01 -1.282209e+01 -1.260284e+01 -1.233610e+01 -1.223888e+01 -1.210334e+01 
-1.271414e+01 -1.269084e+01 -1.287087e+01 -1.299627e+01 -1.335178e+01 -1.366302e+01 -1.426139e+01 -1.489659e+01 -1.588558e+01 -1.709757e+01 -1.889093e+01 -2.088159e+01 -2.355666e+01 -2.176652e+01 -1.413725e+01 -7.109713e+00 -3.513086e+00 -7.109713e+00 -1.413725e+01 -2.176652e+01 -2.355666e+01 -2.088159e+01 -1.889093e+01 -1.709757e+01 -1.588558e+01 -1.489659e+01 -1.426139e+01 -1.366302e+01 -1.335178e+01 -1.299627e+01 -1.287087e+01 -1.269084e+01 
-1.303195e+01 -1.303027e+01 -1.318612e+01 -1.333838e+01 -1.366967e+01 -1.401573e+01 -1.458143e+01 -1.522595e+01 -1.613464e+01 -1.722674e+01 -1.864233e+01 -2.020846e+01 -2.167826e+01 -2.321470e+01 -2.521322e+01 -2.556916e+01 -2.478736e+01 -2.556916e+01 -2.521322e+01 -2.321470e+01 -2.167826e+01 -2.020846e+01 -1.864233e+01 -1.722674e+01 -1.613464e+01 -1.522595e+01 -1.458143e+01 -1.401573e+01 -1.366967e+01 -1.333838e+01 -1.318612e+01 -1.303027e+01 
-1.355143e+01 -1.352996e+01 -1.372248e+01 -1.387365e+01 -1.425731e+01 -1.461579e+01 -1.524257e+01 -1.588633e+01 -1.684071e+01 -1.784601e+01 -1.917415e+01 -2.041620e+01 -2.171643e+01 -2.249757e+01 -2.228272e+01 -2.228641e+01 -2.230847e+01 -2.228641e+01 -2.228272e+01 -2.249757e+01 -2.171643e+01 -2.041620e+01 -1.917415e+01 -1.784601e+01 -1.684071e+01 -1.588633e+01 -1.524257e+01 -1.461579e+01 -1.425731e+01 -1.387365e+01 -1.372248e+01 -1.352996e+01 
-1.369547e+01 -1.369860e+01 -1.386191e+01 -1.403557e+01 -1.438095e+01 -1.475625e+01 -1.532498e+01 -1.596779e+01 -1.682426e+01 -1.779890e+01 -1.894098e+01 -2.014185e+01 -2.122454e+01 -2.217069e+01 -2.284779e+01 -2.312772e+01 -2.295906e+01 -2.312772e+01 -2.284779e+01 -2.217069e+01 -2.122454e+01 -2.014185e+01 -1.894098e+01 -1.779890e+01 -1.682426e+01 -1.596779e+01 -1.532498e+01 -1.475625e+01 -1.438095e+01 -1.403557e+01 -1.386191e+01 -1.369860e+01 
-1.406808e+01 -1.404720e+01 -1.424130e+01 -1.439563e+01 -1.477217e+01 -1.512003e+01 -1.570395e+01 -1.628525e+01 -1.711149e+01 -1.795217e+01 -1.896722e+01 -1.991402e+01 -2.072179e+01 -2.128994e+01 -2.123196e+01 -2.116215e+01 -2.103481e+01 -2.116215e+01 -2.123196e+01 -2.128994e+01 -2.072179e+01 -1.991402e+01 -1.896722e+01 -1.795217e+01 -1.711149e+01 -1.628525e+01 -1.570395e+01 -1.512003e+01 -1.477217e+01 -1.439563e+01 -1.424130e+01 -1.404720e+01 
-1.403339e+01 -1.403877e+01 -1.420291e+01 -1.438140e+01 -1.472148e+01 -1.509106e+01 -1.562736e+01 -1.622633e+01 -1.698891e+01 -1.784447e+01 -1.878397e+01 -1.975130e+01 -2.054035e+01 -2.116836e+01 -2.138217e+01 -2.146491e+01 -2.131100e+01 -2.146491e+01 -2.138217e+01 -2.116836e+01 -2.054035e+01 -1.975130e+01 -1.878397e+01 -1.784447e+01 -1.698891e+01 -1.622633e+01 -1.562736e+01 -1.509106e+01 -1.472148e+01 -1.438140e+01 -1.420291e+01 -1.403877e+01 
