# vtk DataFile Version 2.0
Comment goes here
ASCII

DATASET STRUCTURED_POINTS
FIELD FieldData 1
TIME 1 1 double
0.82000000
DIMENSIONS    32   32   1

ORIGIN    0.000   0.000   0.000
SPACING   0.03125 0.03125   1.000

POINT_DATA   1024
SCALARS P double
LOOKUP_TABLE default

-1.235878e+01 -1.235841e+01 -1.246362e+01 -1.255770e+01 -1.275947e+01 -1.293318e+01 -1.322616e+01 -1.349075e+01 -1.388205e+01 -1.425635e+01 -1.469982e+01 -1.510500e+01 -1.540720e+01 -1.558176e+01 -1.547595e+01 -1.527425e+01 -1.507096e+01 -1.527425e+01 -1.547595e+01 -1.558176e+01 -1.540720e+01 -1.510500e+01 -1.469982e+01 -1.425635e+01 -1.388205e+01 -1.349075e+01 -1.322616e+01 -1.293318e+01 -1.275947e+01 -1.255770e+01 -1.246362e+01 -1.235841e+01 
-1.236577e+01 -1.235660e+01 -1.246932e+01 -1.255235e+01 -1.276109e+01 -1.292104e+01 -1.322059e+01 -1.346897e+01 -1.386156e+01 -1.421437e+01 -1.463122e+01 -1.499678e+01 -1.518793e+01 -1.527002e+01 -1.491527e+01 -1.462943e+01 -1.437884e+01 -1.462943e+01 -1.491527e+01 -1.527002e+01 -1.518793e+01 -1.499678e+01 -1.463122e+01 -1.421437e+01 -1.386156e+01 -1.346897e+01 -1.322059e+01 -1.292104e+01 -1.276109e+01 -1.255235e+01 -1.246932e+01 -1.235660e+01 
-1.226164e+01 -1.226486e+01 -1.237112e+01 -1.247218e+01 -1.268382e+01 -1.287108e+01 -1.319179e+01 -1.348370e+01 -1.392772e+01 -1.434728e+01 -1.486308e+01 -1.533857e+01 -1.572209e+01 -1.600653e+01 -1.599643e+01 -1.576498e+01 -1.549261e+01 -1.576498e+01 -1.599643e+01 -1.600653e+01 -1.572209e+01 -1.533857e+01 -1.486308e+01 -1.434728e+01 -1.392772e+01 -1.348370e+01 -1.319179e+01 -1.287108e+01 -1.268382e+01 -1.247218e+01 -1.237112e+01 -1.226486e+01 
-1.217857e+01 -1.217822e+01 -1.229441e+01 -1.239498e+01 -1.262628e+01 -1.281512e+01 -1.317177e+01 -1.346942e+01 -1.396818e+01 -1.439591e+01 -1.496228e+01 -1.543231e+01 -1.575050e+01 -1.591200e+01 -1.538284e+01 -1.494908e+01 -1.464590e+01 -1.494908e+01 -1.538284e+01 -1.591200e+01 -1.575050e+01 -1.543231e+01 -1.496228e+01 -1.439591e+01 -1.396818e+01 -1.346942e+01 -1.317177e+01 -1.281512e+01 -1.262628e+01 -1.239498e+01 -1.229441e+01 -1.217822e+01 
-1.198134e+01 -1.199767e+01 -1.210678e+01 -1.223023e+01 -1.246410e+01 -1.267977e+01 -1.305509e+01 -1.338850e+01 -1.393405e+01 -1.441678e+01 -1.507347e+01 -1.563602e+01 -1.611454e+01 -1.663268e+01 -1.683583e+01 -1.622105e+01 -1.549009e+01 -1.622105e+01 -1.683583e+01 -1.663268e+01 -1.611454e+01 -1.563602e+01 -1.507347e+01 -1.441678e+01 -1.393405e+01 -1.338850e+01 -1.305509e+01 -1.267977e+01 -1.246410e+01 -1.223023e+01 -1.210678e+01 -1.199767e+01 
-1.182690e+01 -1.184842e+01 -1.196822e+01 -1.210407e+01 -1.236228e+01 -1.258716e+01 -1.301088e+01 -1.335662e+01 -1.400603e+01 -1.453138e+01 -1.538554e+01 -1.601009e+01 -1.658780e+01 -1.672958e+01 -1.527470e+01 -1.403889e+01 -1.348781e+01 -1.403889e+01 -1.527470e+01 -1.672958e+01 -1.658780e+01 -1.601009e+01 -1.538554e+01 -1.453138e+01 -1.400603e+01 -1.335662e+01 -1.301088e+01 -1.258716e+01 -1.236228e+01 -1.210407e+01 -1.196822e+01 -1.184842e+01 
-1.156809e+01 -1.161180e+01 -1.172071e+01 -1.188020e+01 -1.212547e+01 -1.235933e+01 -1.277207e+01 -1.312152e+01 -1.378734e+01 -1.434166e+01 -1.524561e+01 -1.576813e+01 -1.619940e+01 -1.744590e+01 -1.800637e+01 -1.543286e+01 -1.344885e+01 -1.543286e+01 -1.800637e+01 -1.744590e+01 -1.619940e+01 -1.576813e+01 -1.524561e+01 -1.434166e+01 -1.378734e+01 -1.312152e+01 -1.277207e+01 -1.235933e+01 -1.212547e+01 -1.188020e+01 -1.172071e+01 -1.161180e+01 
-1.138004e+01 -1.144074e+01 -1.155195e+01 -1.173038e+01 -1.197687e+01 -1.220505e+01 -1.263888e+01 -1.298861e+01 -1.380877e+01 -1.452805e+01 -1.604219e+01 -1.742933e+01 -1.895652e+01 -1.514795e+01 -5.398903e+00 2.220558e+00 5.806324e+00 2.220558e+00 -5.398903e+00 -1.514795e+01 -1.895652e+01 -1.742933e+01 -1.604219e+01 -1.452805e+01 -1.380877e+01 -1.298861e+01 -1.263888e+01 -1.220505e+01 -1.197687e+01 -1.173038e+01 -1.155195e+01 -1.144074e+01 
-1.111230e+01 -1.120032e+01 -1.129006e+01 -1.148249e+01 -1.167510e+01 -1.186841e+01 -1.223303e+01 -1.254400e+01 -1.340989e+01 -1.436226e+01 -1.600383e+01 -1.378310e+01 1.601831e+00 1.937868e+01 3.436514e+01 4.517033e+01 4.801741e+01 4.517033e+01 3.436514e+01 1.937868e+01 1.601831e+00 -1.378310e+01 -1.600383e+01 -1.436226e+01 -1.340989e+01 -1.254400e+01 -1.223303e+01 -1.186841e+01 -1.167510e+01 -1.148249e+01 -1.129006e+01 -1.120032e+01 
-1.091017e+01 -1.102959e+01 -1.110114e+01 -1.131032e+01 -1.144133e+01 -1.157793e+01 -1.184694e+01 -1.206734e+01 -1.292523e+01 -1.391436e+01 -1.124700e+01 4.182559e+00 3.093967e+01 4.807357e+01 5.155678e+01 5.332658e+01 5.363418e+01 5.332658e+01 5.155678e+01 4.807357e+01 3.093967e+01 4.182559e+00 -1.124700e+01 -1.391436e+01 -1.292523e+01 -1.206734e+01 -1.184694e+01 -1.157793e+01 -1.144133e+01 -1.131032e+01 -1.110114e+01 -1.102959e+01 
-1.062832e+01 -1.078224e+01 -1.082154e+01 -1.103539e+01 -1.105128e+01 -1.107440e+01 -1.115077e+01 -1.106693e+01 -1.180124e+01 -1.132637e+01 5.546407e+00 3.341665e+01 4.732722e+01 4.917813e+01 4.918574e+01 4.960017e+01 4.981236e+01 4.960017e+01 4.918574e+01 4.917813e+01 4.732722e+01 3.341665e+01 5.546407e+00 -1.132637e+01 -1.180124e+01 -1.106693e+01 -1.115077e+01 -1.107440e+01 -1.105128e+01 -1.103539e+01 -1.082154e+01 -1.078224e+01 
-1.032009e+01 -1.053094e+01 -1.054032e+01 -1.079630e+01 -1.070247e+01 -1.061623e+01 -1.051259e+01 -9.928065e+00 -1.098162e+01 -2.182447e+00 2.594524e+01 4.622470e+01 4.858360e+01 4.941675e+01 5.017812e+01 5.074778e+01 5.100165e+01 5.074778e+01 5.017812e+01 4.941675e+01 4.858360e+01 4.622470e+01 2.594524e+01 -2.182447e+00 -1.098162e+01 -9.928065e+00 -1.051259e+01 -1.061623e+01 -1.070247e+01 -1.079630e+01 -1.054032e+01 -1.053094e+01 
-9.889695e+00 -1.016008e+01 -1.015742e+01 -1.047767e+01 -1.024920e+01 -1.011437e+01 -9.616421e+00 -8.902857e+00 -9.024149e+00 1.245765e+01 4.085368e+01 4.794583e+01 4.792941e+01 4.842676e+01 4.859398e+01 4.875867e+01 4.893355e+01 4.875867e+01 4.859398e+01 4.842676e+01 4.792941e+01 4.794583e+01 4.085368e+01 1.245765e+01 -9.024149e+00 -8.902857e+00 -9.616421e+00 -1.011437e+01 -1.024920e+01 -1.047767e+01 -1.015742e+01 -1.016008e+01 
-9.282607e+00 -9.662580e+00 -9.637305e+00 -1.015166e+01 -9.773813e+00 -9.873590e+00 -8.694675e+00 -8.867391e+00 -4.964723e+00 2.392584e+01 4.709861e+01 4.812606e+01 4.853001e+01 4.890511e+01 4.949806e+01 4.962769e+01 4.994352e+01 4.962769e+01 4.949806e+01 4.890511e+01 4.853001e+01 4.812606e+01 4.709861e+01 2.392584e+01 -4.964723e+00 -8.867391e+00 -8.694675e+00 -9.873590e+00 -9.773813e+00 -1.015166e+01 -9.637305e+00 -9.662580e+00 
-8.572593e+00 -9.047192e+00 -9.047609e+00 -9.767562e+00 -9.277792e+00 -9.562357e+00 -7.787717e+00 -8.516740e+00 -4.228298e-01 3.134645e+01 4.745977e+01 4.648613e+01 4.779541e+01 4.760241e+01 4.831573e+01 4.814266e+01 4.854123e+01 4.814266e+01 4.831573e+01 4.760241e+01 4.779541e+01 4.648613e+01 4.745977e+01 3.134645e+01 -4.228298e-01 -8.516740e+00 -7.787717e+00 -9.562357e+00 -9.277792e+00 -9.767562e+00 -9.047609e+00 -9.047192e+00 
-7.748588e+00 -8.322138e+00 -8.284153e+00 -9.188724e+00 -8.574672e+00 -9.001964e+00 -6.870115e+00 -7.330597e+00 3.121790e+00 3.599763e+01 4.823019e+01 4.690389e+01 4.867017e+01 4.829406e+01 4.923614e+01 4.901235e+01 4.950466e+01 4.901235e+01 4.923614e+01 4.829406e+01 4.867017e+01 4.690389e+01 4.823019e+01 3.599763e+01 3.121790e+00 -7.330597e+00 -6.870115e+00 -9.001964e+00 -8.574672e+00 -9.188724e+00 -8.284153e+00 -8.322138e+00 
-7.383632e+00 -7.984563e+00 -7.976692e+00 -8.954653e+00 -8.343701e+00 -8.792548e+00 -6.740476e+00 -7.098636e+00 3.975960e+00 3.690609e+01 4.764935e+01 4.604960e+01 4.792961e+01 4.729963e+01 4.824760e+01 4.788740e+01 4.841038e+01 4.788740e+01 4.824760e+01 4.729963e+01 4.792961e+01 4.604960e+01 4.764935e+01 3.690609e+01 3.975960e+00 -7.098636e+00 -6.740476e+00 -8.792548e+00 -8.343701e+00 -8.954653e+00 -7.976692e+00 -7.984563e+00 
-7.748588e+00 -8.322138e+00 -8.284153e+00 -9.188724e+00 -8.574672e+00 -9.001964e+00 -6.870115e+00 -7.330597e+00 3.121790e+00 3.599763e+01 4.823019e+01 4.690389e+01 4.867017e+01 4.829406e+01 4.923614e+01 4.901235e+01 4.950466e+01 4.901235e+01 4.923614e+01 4.829406e+01 4.867017e+01 4.690389e+01 4.823019e+01 3.599763e+01 3.121790e+00 -7.330597e+00 -6.870115e+00 -9.001964e+00 -8.574672e+00 -9.188724e+00 -8.284153e+00 -8.322138e+00 
-8.572593e+00 -9.047192e+00 -9.047609e+00 -9.767562e+00 -9.277792e+00 -9.562357e+00 -7.787717e+00 -8.516740e+00 -4.228298e-01 3.134645e+01 4.745977e+01 4.648613e+01 4.779541e+01 4.760241e+01 4.831573e+01 4.814266e+01 4.854123e+01 4.814266e+01 4.831573e+01 4.760241e+01 4.779541e+01 4.648613e+01 4.745977e+01 3.134645e+01 -4.228298e-01 -8.516740e+00 -7.787717e+00 -9.562357e+00 -9.277792e+00 -9.767562e+00 -9.047609e+00 -9.047192e+00 
-9.282607e+00 -9.662580e+00 -9.637305e+00 -1.015166e+01 -9.773813e+00 -9.873590e+00 -8.694675e+00 -8.867391e+00 -4.964723e+00 2.392584e+01 4.709861e+01 4.812606e+01 4.853001e+01 4.890511e+01 4.949806e+01 4.962769e+01 4.994352e+01 4.962769e+01 4.949806e+01 4.890511e+01 4.853001e+01 4.812606e+01 4.709861e+01 2.392584e+01 -4.964723e+00 -8.867391e+00 -8.694675e+00 -9.873590e+00 -9.773813e+00 -1.015166e+01 -9.637305e+00 -9.662580e+00 
-9.889695e+00 -1.016008e+01 -1.015742e+01 -1.047767e+01 -1.024920e+01 -1.011437e+01 -9.616421e+00 -8.902857e+00 -9.024149e+00 1.245765e+01 4.085368e+01 4.794583e+01 4.792941e+01 4.842676e+01 4.859398e+01 4.875867e+01 4.893355e+01 4.875867e+01 4.859398e+01 4.842676e+01 4.792941e+01 4.794583e+01 4.085368e+01 1.245765e+01 -9.024149e+00 -8.902857e+00 -9.616421e+00 -1.011437e+01 -1.024920e+01 -1.047767e+01 -1.015742e+01 -1.016008e+01 
-1.032009e+01 -1.053094e+01 -1.054032e+01 -1.079630e+01 -1.070247e+01 -1.061623e+01 -1.051259e+01 -9.928065e+00 -1.098162e+01 -2.182447e+00 2.594524e+01 4.622470e+01 4.858360e+01 4.941675e+01 5.017812e+01 5.074778e+01 5.100165e+01 5.074778e+01 5.017812e+01 4.941675e+01 4.858360e+01 4.622470e+01 2.594524e+01 -2.182447e+00 -1.098162e+01 -9.928065e+00 -1.051259e+01 -1.061623e+01 -1.070247e+01 -1.079630e+01 -1.054032e+01 -1.053094e+01 
-1.062832e+01 -1.078224e+01 -1.082154e+01 -1.103539e+01 -1.105128e+01 -1.107440e+01 -1.115077e+01 -1.106693e+01 -1.180124e+01 -1.132637e+01 5.546407e+00 3.341665e+01 4.732722e+01 4.917813e+01 4.918574e+01 4.960017e+01 4.981236e+01 4.960017e+01 4.918574e+01 4.917813e+01 4.732722e+01 3.341665e+01 5.546407e+00 -1.132637e+01 -1.180124e+01 -1.106693e+01 -1.115077e+01 -1.107440e+01 -1.105128e+01 -1.103539e+01 -1.082154e+01 -1.078224e+01 
-1.091017e+01 -1.102959e+01 -1.110114e+01 -1.131032e+01 -1.144133e+01 -1.157793e+01 -1.184694e+01 -1.206734e+01 -1.292523e+01 -1.391436e+01 -1.124700e+01 4.182559e+00 3.093967e+01 4.807357e+01 5.155678e+01 5.332658e+01 5.363418e+01 5.332658e+01 5.155678e+01 4.807357e+01 3.093967e+01 4.182559e+00 -1.124700e+01 -1.391436e+01 -1.292523e+01 -1.206734e+01 -1.184694e+01 -1.157793e+01 -1.144133e+01 -1.131032e+01 -1.110114e+01 -1.102959e+01 
-1.111230e+01 -1.120032e+01 -1.129006e+01 -1.148249e+01 -1.167510e+01 -1.186841e+01 -1.223303e+01 -1.254400e+01 -1.340989e+01 -1.436226e+01 -1.600383e+01 -1.378310e+01 1.601831e+00 1.937868e+01 3.436514e+01 4.517033e+01 4.801741e+01 4.517033e+01 3.436514e+01 1.937868e+01 1.601831e+00 -1.378310e+01 -1.600383e+01 -1.436226e+01 -1.340989e+01 -1.254400e+01 -1.223303e+01 -1.186841e+01 -1.167510e+01 -1.148249e+01 -1.129006e+01 -1.120032e+01 
-1.138004e+01 -1.144074e+01 -1.155195e+01 -1.173038e+01 -1.197687e+01 -1.220505e+01 -1.263888e+01 -1.298861e+01 -1.380877e+01 -1.452805e+01 -1.604219e+01 -1.742933e+01 -1.895652e+01 -1.514795e+01 -5.398903e+00 2.220558e+00 5.806324e+00 2.220558e+00 -5.398903e+00 -1.514795e+01 -1.895652e+01 -1.742933e+01 -1.604219e+01 -1.452805e+01 -1.380877e+01 -1.298861e+01 -1.263888e+01 -1.220505e+01 -1.197687e+01 -1.173038e+01 -1.155195e+01 -1.144074e+01 
-1.156809e+01 -1.161180e+01 -1.172071e+01 -1.188020e+01 -1.212547e+01 -1.235933e+01 -1.277207e+01 -1.312152e+01 -1.378734e+01 -1.434166e+01 -1.524561e+01 -1.576813e+01 -1.619940e+01 -1.744590e+01 -1.800637e+01 -1.543286e+01 -1.344885e+01 -1.543286e+01 -1.800637e+01 -1.744590e+01 -1.619940e+01 -1.576813e+01 -1.524561e+01 -1.434166e+01 -1.378734e+01 -1.312152e+01 -1.277207e+01 -1.235933e+01 -1.212547e+01 -1.188020e+01 -1.172071e+01 -1.161180e+01 
-1.182690e+01 -1.184842e+01 -1.196822e+01 -1.210407e+01 -1.236228e+01 -1.258716e+01 -1.301088e+01 -1.335662e+01 -1.400603e+01 -1.453138e+01 -1.538554e+01 -1.601009e+01 -1.658780e+01 -1.672958e+01 -1.527470e+01 -1.403889e+01 -1.348781e+01 -1.403889e+01 -1.527470e+01 -1.672958e+01 -1.658780e+01 -1.601009e+01 -1.538554e+01 -1.453138e+01 -1.400603e+01 -1.335662e+01 -1.301088e+01 -1.258716e+01 -1.236228e+01 -1.210407e+01 -1.196822e+01 -1.184842e+01 
-1.198134e+01 -1.199767e+01 -1.210678e+01 -1.223023e+01 -1.246410e+01 -1.267977e+01 -1.305509e+01 -1.338850e+01 -1.393405e+01 -1.441678e+01 -1.507347e+01 -1.563602e+01 -1.611454e+01 -1.663268e+01 -1.683583e+01 -1.622105e+01 -1.549009e+01 -1.622105e+01 -1.683583e+01 -1.663268e+01 -1.611454e+01 -1.563602e+01 -1.507347e+01 -1.441678e+01 -1.393405e+01 -1.338850e+01 -1.305509e+01 -1.267977e+01 -1.246410e+01 -1.223023e+01 -1.210678e+01 -1.199767e+01 
-1.217857e+01 -1.217822e+01 -1.229441e+01 -1.239498e+01 -1.262628e+01 -1.281512e+01 -1.317177e+01 -1.346942e+01 -1.396818e+01 -1.439591e+01 -1.496228e+01 -1.543231e+01 -1.575050e+01 -1.591200e+01 -1.538284e+01 -1.494908e+01 -1.464590e+01 -1.494908e+01 -1.538284e+01 -1.591200e+01 -1.575050e+01 -1.543231e+01 -1.496228e+01 -1.439591e+01 -1.396818e+01 -1.346942e+01 -1.317177e+01 -1.281512e+01 -1.262628e+01 -1.239498e+01 -1.229441e+01 -1.217822e+01 
-1.226164e+01 -1.226486e+01 -1.237112e+01 -1.247218e+01 -1.268382e+01 -1.287108e+01 -1.319179e+01 -1.348370e+01 -1.392772e+01 -1.434728e+01 -1.486308e+01 -1.533857e+01 -1.572209e+01 -1.600653e+01 -1.599643e+01 -1.576498e+01 -1.549261e+01 -1.576498e+01 -1.599643e+01 -1.600653e+01 -1.572209e+01 -1.533857e+01 -1.486308e+01 -1.434728e+01 -1.392772e+01 -1.348370e+01 -1.319179e+01 -1.287108e+01 -1.268382e+01 -1.247218e+01 -1.237112e+01 -1.226486e+01 
-1.236577e+01 -1.235660e+01 -1.246932e+01 -1.255235e+01 -1.276109e+01 -1.292104e+01 -1.322059e+01 -1.346897e+01 -1.386156e+01 -1.421437e+01 -1.463122e+01 -1.499678e+01 -1.518793e+01 -1.527002e+01 -1.491527e+01 -1.462943e+01 -1.437884e+01 -1.462943e+01 -1.491527e+01 -1.527002e+01 -1.518793e+01 -1.499678e+01 -1.463122e+01 -1.421437e+01 -1.386156e+01 -1.346897e+01 -1.322059e+01 -1.292104e+01 -1.276109e+01 -1.255235e+01 -1.246932e+01 -1.235660e+01 
