# vtk DataFile Version 2.0
Comment goes here
ASCII

DATASET STRUCTURED_POINTS
FIELD FieldData 1
TIME 1 1 double
0.50000000
DIMENSIONS    32   32   1

ORIGIN    0.000   0.000   0.000
SPACING   0.03125 0.03125   1.000

POINT_DATA   1024
SCALARS P double
LOOKUP_TABLE default

-1.547506e+01 -1.541182e+01 -1.568600e+01 -1.582227e+01 -1.631036e+01 -1.663160e+01 -1.731975e+01 -1.781147e+01 -1.865232e+01 -1.930652e+01 -2.018007e+01 -2.094972e+01 -2.151040e+01 -2.208038e+01 -2.185606e+01 -2.205250e+01 -2.166097e+01 -2.205250e+01 -2.185606e+01 -2.208038e+01 -2.151040e+01 -2.094972e+01 -2.018007e+01 -1.930652e+01 -1.865232e+01 -1.781147e+01 -1.731975e+01 -1.663160e+01 -1.631036e+01 -1.582227e+01 -1.568600e+01 -1.541182e+01 
-1.535457e+01 -1.530836e+01 -1.557085e+01 -1.573136e+01 -1.621622e+01 -1.657611e+01 -1.728037e+01 -1.783890e+01 -1.873800e+01 -1.950667e+01 -2.052000e+01 -2.147934e+01 -2.231167e+01 -2.316599e+01 -2.327028e+01 -2.334382e+01 -2.285688e+01 -2.334382e+01 -2.327028e+01 -2.316599e+01 -2.231167e+01 -2.147934e+01 -2.052000e+01 -1.950667e+01 -1.873800e+01 -1.783890e+01 -1.728037e+01 -1.657611e+01 -1.621622e+01 -1.573136e+01 -1.557085e+01 -1.530836e+01 
-1.527365e+01 -1.521529e+01 -1.548601e+01 -1.562702e+01 -1.612046e+01 -1.645122e+01 -1.717302e+01 -1.769324e+01 -1.863161e+01 -1.935125e+01 -2.041356e+01 -2.129426e+01 -2.201547e+01 -2.264697e+01 -2.227010e+01 -2.247824e+01 -2.207626e+01 -2.247824e+01 -2.227010e+01 -2.264697e+01 -2.201547e+01 -2.129426e+01 -2.041356e+01 -1.935125e+01 -1.863161e+01 -1.769324e+01 -1.717302e+01 -1.645122e+01 -1.612046e+01 -1.562702e+01 -1.548601e+01 -1.521529e+01 
-1.494324e+01 -1.490481e+01 -1.515729e+01 -1.531992e+01 -1.580419e+01 -1.616764e+01 -1.691256e+01 -1.750141e+01 -1.854474e+01 -1.940768e+01 -2.073748e+01 -2.188636e+01 -2.306612e+01 -2.435596e+01 -2.450223e+01 -2.400336e+01 -2.290968e+01 -2.400336e+01 -2.450223e+01 -2.435596e+01 -2.306612e+01 -2.188636e+01 -2.073748e+01 -1.940768e+01 -1.854474e+01 -1.750141e+01 -1.691256e+01 -1.616764e+01 -1.580419e+01 -1.531992e+01 -1.515729e+01 -1.490481e+01 
-1.467402e+01 -1.463192e+01 -1.488607e+01 -1.503827e+01 -1.553127e+01 -1.587986e+01 -1.666780e+01 -1.725375e+01 -1.843354e+01 -1.932211e+01 -2.096693e+01 -2.210981e+01 -2.337599e+01 -2.405246e+01 -2.266254e+01 -2.273469e+01 -2.235302e+01 -2.273469e+01 -2.266254e+01 -2.405246e+01 -2.337599e+01 -2.210981e+01 -2.096693e+01 -1.932211e+01 -1.843354e+01 -1.725375e+01 -1.666780e+01 -1.587986e+01 -1.553127e+01 -1.503827e+01 -1.488607e+01 -1.463192e+01 
-1.414035e+01 -1.412075e+01 -1.434328e+01 -1.450593e+01 -1.496256e+01 -1.531530e+01 -1.608483e+01 -1.670010e+01 -1.793973e+01 -1.894268e+01 -2.091109e+01 -2.219220e+01 -2.443643e+01 -2.725639e+01 -2.660642e+01 -2.349221e+01 -2.103608e+01 -2.349221e+01 -2.660642e+01 -2.725639e+01 -2.443643e+01 -2.219220e+01 -2.091109e+01 -1.894268e+01 -1.793973e+01 -1.670010e+01 -1.608483e+01 -1.531530e+01 -1.496256e+01 -1.450593e+01 -1.434328e+01 -1.412075e+01 
-1.370152e+01 -1.369044e+01 -1.389805e+01 -1.405583e+01 -1.449423e+01 -1.483129e+01 -1.561411e+01 -1.625349e+01 -1.767245e+01 -1.892729e+01 -2.185947e+01 -2.386195e+01 -2.605840e+01 -1.952047e+01 -3.613507e+00 7.175116e+00 1.185155e+01 7.175116e+00 -3.613507e+00 -1.952047e+01 -2.605840e+01 -2.386195e+01 -2.185947e+01 -1.892729e+01 -1.767245e+01 -1.625349e+01 -1.561411e+01 -1.483129e+01 -1.449423e+01 -1.405583e+01 -1.389805e+01 -1.369044e+01 
-1.300338e+01 -1.301765e+01 -1.317231e+01 -1.331895e+01 -1.366784e+01 -1.394879e+01 -1.461634e+01 -1.520771e+01 -1.654445e+01 -1.806535e+01 -2.088976e+01 -1.817963e+01 4.720917e-01 2.279414e+01 4.242077e+01 5.396148e+01 5.598190e+01 5.396148e+01 4.242077e+01 2.279414e+01 4.720917e-01 -1.817963e+01 -2.088976e+01 -1.806535e+01 -1.654445e+01 -1.520771e+01 -1.461634e+01 -1.394879e+01 -1.366784e+01 -1.331895e+01 -1.317231e+01 -1.301765e+01 
-1.243569e+01 -1.247258e+01 -1.258352e+01 -1.271720e+01 -1.297769e+01 -1.318893e+01 -1.371356e+01 -1.425317e+01 -1.534109e+01 -1.722751e+01 -1.652202e+01 8.902441e-01 3.322017e+01 5.138930e+01 5.417936e+01 5.569431e+01 5.572370e+01 5.569431e+01 5.417936e+01 5.138930e+01 3.322017e+01 8.902441e-01 -1.652202e+01 -1.722751e+01 -1.534109e+01 -1.425317e+01 -1.371356e+01 -1.318893e+01 -1.297769e+01 -1.271720e+01 -1.258352e+01 -1.247258e+01 
-1.166186e+01 -1.172834e+01 -1.176127e+01 -1.185459e+01 -1.194964e+01 -1.198394e+01 -1.226365e+01 -1.242479e+01 -1.318871e+01 -1.429416e+01 1.125575e+00 3.195929e+01 4.929540e+01 5.132970e+01 5.165907e+01 5.253709e+01 5.270450e+01 5.253709e+01 5.165907e+01 5.132970e+01 4.929540e+01 3.195929e+01 1.125575e+00 -1.429416e+01 -1.318871e+01 -1.242479e+01 -1.226365e+01 -1.198394e+01 -1.194964e+01 -1.185459e+01 -1.176127e+01 -1.172834e+01 
-1.104282e+01 -1.115047e+01 -1.111437e+01 -1.118650e+01 -1.112778e+01 -1.096102e+01 -1.107750e+01 -1.059903e+01 -1.162123e+01 -7.344727e+00 2.146375e+01 4.702308e+01 5.071818e+01 5.132606e+01 5.184948e+01 5.249314e+01 5.255281e+01 5.249314e+01 5.184948e+01 5.132606e+01 5.071818e+01 4.702308e+01 2.146375e+01 -7.344727e+00 -1.162123e+01 -1.059903e+01 -1.107750e+01 -1.096102e+01 -1.112778e+01 -1.118650e+01 -1.111437e+01 -1.115047e+01 
-1.030692e+01 -1.046137e+01 -1.034619e+01 -1.040024e+01 -1.010440e+01 -9.726019e+00 -9.396784e+00 -8.270762e+00 -9.152351e+00 5.451500e+00 3.571393e+01 4.850910e+01 4.888661e+01 4.977089e+01 4.993112e+01 5.050673e+01 5.057258e+01 5.050673e+01 4.993112e+01 4.977089e+01 4.888661e+01 4.850910e+01 3.571393e+01 5.451500e+00 -9.152351e+00 -8.270762e+00 -9.396784e+00 -9.726019e+00 -1.010440e+01 -1.040024e+01 -1.034619e+01 -1.046137e+01 
-9.667590e+00 -9.910270e+00 -9.723510e+00 -9.859289e+00 -9.301076e+00 -8.961268e+00 -8.049192e+00 -7.345949e+00 -6.391773e+00 1.669862e+01 4.407328e+01 4.846597e+01 4.868885e+01 4.984958e+01 5.026857e+01 5.080085e+01 5.089229e+01 5.080085e+01 5.026857e+01 4.984958e+01 4.868885e+01 4.846597e+01 4.407328e+01 1.669862e+01 -6.391773e+00 -7.345949e+00 -8.049192e+00 -8.961268e+00 -9.301076e+00 -9.859289e+00 -9.723510e+00 -9.910270e+00 
-8.947395e+00 -9.279137e+00 -9.069559e+00 -9.348820e+00 -8.583284e+00 -8.343156e+00 -6.670218e+00 -6.649022e+00 -2.418587e+00 2.540296e+01 4.620700e+01 4.698987e+01 4.781881e+01 4.843834e+01 4.900629e+01 4.929190e+01 4.948990e+01 4.929190e+01 4.900629e+01 4.843834e+01 4.781881e+01 4.698987e+01 4.620700e+01 2.540296e+01 -2.418587e+00 -6.649022e+00 -6.670218e+00 -8.343156e+00 -8.583284e+00 -9.348820e+00 -9.069559e+00 -9.279137e+00 
-8.156853e+00 -8.619279e+00 -8.411178e+00 -8.901313e+00 -7.900182e+00 -7.714047e+00 -5.392299e+00 -5.521857e+00 1.781870e+00 3.198006e+01 4.730509e+01 4.678834e+01 4.831492e+01 4.862095e+01 4.944091e+01 4.960945e+01 4.989370e+01 4.960945e+01 4.944091e+01 4.862095e+01 4.831492e+01 4.678834e+01 4.730509e+01 3.198006e+01 1.781870e+00 -5.521857e+00 -5.392299e+00 -7.714047e+00 -7.900182e+00 -8.901313e+00 -8.411178e+00 -8.619279e+00 
-7.362046e+00 -7.896041e+00 -7.715630e+00 -8.364050e+00 -7.343259e+00 -7.213598e+00 -4.703064e+00 -4.503804e+00 4.286688e+00 3.458729e+01 4.684314e+01 4.585737e+01 4.770794e+01 4.760858e+01 4.854235e+01 4.850691e+01 4.888720e+01 4.850691e+01 4.854235e+01 4.760858e+01 4.770794e+01 4.585737e+01 4.684314e+01 3.458729e+01 4.286688e+00 -4.503804e+00 -4.703064e+00 -7.213598e+00 -7.343259e+00 -8.364050e+00 -7.715630e+00 -7.896041e+00 
-6.805058e+00 -7.407559e+00 -7.234996e+00 -7.974500e+00 -6.832701e+00 -6.662411e+00 -3.998852e+00 -3.573654e+00 6.176835e+00 3.611498e+01 4.717742e+01 4.633540e+01 4.828710e+01 4.818373e+01 4.918100e+01 4.915132e+01 4.954671e+01 4.915132e+01 4.918100e+01 4.818373e+01 4.828710e+01 4.633540e+01 4.717742e+01 3.611498e+01 6.176835e+00 -3.573654e+00 -3.998852e+00 -6.662411e+00 -6.832701e+00 -7.974500e+00 -7.234996e+00 -7.407559e+00 
-7.362046e+00 -7.896041e+00 -7.715630e+00 -8.364050e+00 -7.343259e+00 -7.213598e+00 -4.703064e+00 -4.503804e+00 4.286688e+00 3.458729e+01 4.684314e+01 4.585737e+01 4.770794e+01 4.760858e+01 4.854235e+01 4.850691e+01 4.888720e+01 4.850691e+01 4.854235e+01 4.760858e+01 4.770794e+01 4.585737e+01 4.684314e+01 3.458729e+01 4.286688e+00 -4.503804e+00 -4.703064e+00 -7.213598e+00 -7.343259e+00 -8.364050e+00 -7.715630e+00 -7.896041e+00 
-8.156853e+00 -8.619279e+00 -8.411178e+00 -8.901313e+00 -7.900182e+00 -7.714047e+00 -5.392299e+00 -5.521857e+00 1.781870e+00 3.198006e+01 4.730509e+01 4.678834e+01 4.831492e+01 4.862095e+01 4.944091e+01 4.960945e+01 4.989370e+01 4.960945e+01 4.944091e+01 4.862095e+01 4.831492e+01 4.678834e+01 4.730509e+01 3.198006e+01 1.781870e+00 -5.521857e+00 -5.392299e+00 -7.714047e+00 -7.900182e+00 -8.901313e+00 -8.411178e+00 -8.619279e+00 
-8.947395e+00 -9.279137e+00 -9.069559e+00 -9.348820e+00 -8.583284e+00 -8.343156e+00 -6.670218e+00 -6.649022e+00 -2.418587e+00 2.540296e+01 4.620700e+01 4.698987e+01 4.781881e+01 4.843834e+01 4.900629e+01 4.929190e+01 4.948990e+01 4.929190e+01 4.900629e+01 4.843834e+01 4.781881e+01 4.698987e+01 4.620700e+01 2.540296e+01 -2.418587e+00 -6.649022e+00 -6.670218e+00 -8.343156e+00 -8.583284e+00 -9.348820e+00 -9.069559e+00 -9.279137e+00 
-9.667590e+00 -9.910270e+00 -9.723510e+00 -9.859289e+00 -9.301076e+00 -8.961268e+00 -8.049192e+00 -7.345949e+00 -6.391773e+00 1.669862e+01 4.407328e+01 4.846597e+01 4.868885e+01 4.984958e+01 5.026857e+01 5.080085e+01 5.089229e+01 5.080085e+01 5.026857e+01 4.984958e+01 4.868885e+01 4.846597e+01 4.407328e+01 1.669862e+01 -6.391773e+00 -7.345949e+00 -8.049192e+00 -8.961268e+00 -9.301076e+00 -9.859289e+00 -9.723510e+00 -9.910270e+00 
-1.030692e+01 -1.046137e+01 -1.034619e+01 -1.040024e+01 -1.010440e+01 -9.726019e+00 -9.396784e+00 -8.270762e+00 -9.152351e+00 5.451500e+00 3.571393e+01 4.850910e+01 4.888661e+01 4.977089e+01 4.993112e+01 5.050673e+01 5.057258e+01 5.050673e+01 4.993112e+01 4.977089e+01 4.888661e+01 4.850910e+01 3.571393e+01 5.451500e+00 -9.152351e+00 -8.270762e+00 -9.396784e+00 -9.726019e+00 -1.010440e+01 -1.040024e+01 -1.034619e+01 -1.046137e+01 
-1.104282e+01 -1.115047e+01 -1.111437e+01 -1.118650e+01 -1.112778e+01 -1.096102e+01 -1.107750e+01 -1.059903e+01 -1.162123e+01 -7.344727e+00 2.146375e+01 4.702308e+01 5.071818e+01 5.132606e+01 5.184948e+01 5.249314e+01 5.255281e+01 5.249314e+01 5.184948e+01 5.132606e+01 5.071818e+01 4.702308e+01 2.146375e+01 -7.344727e+00 -1.162123e+01 -1.059903e+01 -1.107750e+01 -1.096102e+01 -1.112778e+01 -1.118650e+01 -1.111437e+01 -1.115047e+01 
-1.166186e+01 -1.172834e+01 -1.176127e+01 -1.185459e+01 -1.194964e+01 -1.198394e+01 -1.226365e+01 -1.242479e+01 -1.318871e+01 -1.429416e+01 1.125575e+00 3.195929e+01 4.929540e+01 5.132970e+01 5.165907e+01 5.253709e+01 5.270450e+01 5.253709e+01 5.165907e+01 5.132970e+01 4.929540e+01 3.195929e+01 1.125575e+00 -1.429416e+01 -1.318871e+01 -1.242479e+01 -1.226365e+01 -1.198394e+01 -1.194964e+01 -1.185459e+01 -1.176127e+01 -1.172834e+01 
-1.243569e+01 -1.247258e+01 -1.258352e+01 -1.271720e+01 -1.297769e+01 -1.318893e+01 -1.371356e+01 -1.425317e+01 -1.534109e+01 -1.722751e+01 -1.652202e+01 8.902441e-01 3.322017e+01 5.138930e+01 5.417936e+01 5.569431e+01 5.572370e+01 5.569431e+01 5.417936e+01 5.138930e+01 3.322017e+01 8.902441e-01 -1.652202e+01 -1.722751e+01 -1.534109e+01 -1.425317e+01 -1.371356e+01 -1.318893e+01 -1.297769e+01 -1.271720e+01 -1.258352e+01 -1.247258e+01 
-1.300338e+01 -1.301765e+01 -1.317231e+01 -1.331895e+01 -1.366784e+01 -1.394879e+01 -1.461634e+01 -1.520771e+01 -1.654445e+01 -1.806535e+01 -2.088976e+01 -1.817963e+01 4.720917e-01 2.279414e+01 4.242077e+01 5.396148e+01 5.598190e+01 5.396148e+01 4.242077e+01 2.279414e+01 4.720917e-01 -1.817963e+01 -2.088976e+01 -1.806535e+01 -1.654445e+01 -1.520771e+01 -1.461634e+01 -1.394879e+01 -1.366784e+01 -1.331895e+01 -1.317231e+01 -1.301765e+01 
-1.370152e+01 -1.369044e+01 -1.389805e+01 -1.405583e+01 -1.449423e+01 -1.483129e+01 -1.561411e+01 -1.625349e+01 -1.767245e+01 -1.892729e+01 -2.185947e+01 -2.386195e+01 -2.605840e+01 -1.952047e+01 -3.613507e+00 7.175116e+00 1.185155e+01 7.175116e+00 -3.613507e+00 -1.952047e+01 -2.605840e+01 -2.386195e+01 -2.185947e+01 -1.892729e+01 -1.767245e+01 -1.625349e+01 -1.561411e+01 -1.483129e+01 -1.449423e+01 -1.405583e+01 -1.389805e+01 -1.369044e+01 
-1.414035e+01 -1.412075e+01 -1.434328e+01 -1.450593e+01 -1.496256e+01 -1.531530e+01 -1.608483e+01 -1.670010e+01 -1.793973e+01 -1.894268e+01 -2.091109e+01 -2.219220e+01 -2.443643e+01 -2.725639e+01 -2.660642e+01 -2.349221e+01 -2.103608e+01 -2.349221e+01 -2.660642e+01 -2.725639e+01 -2.443643e+01 -2.219220e+01 -2.091109e+01 -1.894268e+01 -1.793973e+01 -1.670010e+01 -1.608483e+01 -1.531530e+01 -1.496256e+01 -1.450593e+01 -1.434328e+01 -1.412075e+01 
-1.467402e+01 -1.463192e+01 -1.488607e+01 -1.503827e+01 -1.553127e+01 -1.587986e+01 -1.666780e+01 -1.725375e+01 -1.843354e+01 -1.932211e+01 -2.096693e+01 -2.210981e+01 -2.337599e+01 -2.405246e+01 -2.266254e+01 -2.273469e+01 -2.235302e+01 -2.273469e+01 -2.266254e+01 -2.405246e+01 -2.337599e+01 -2.210981e+01 -2.096693e+01 -1.932211e+01 -1.843354e+01 -1.725375e+01 -1.666780e+01 -1.587986e+01 -1.553127e+01 -1.503827e+01 -1.488607e+01 -1.463192e+01 
-1.494324e+01 -1.490481e+01 -1.515729e+01 -1.531992e+01 -1.580419e+01 -1.616764e+01 -1.691256e+01 -1.750141e+01 -1.854474e+01 -1.940768e+01 -2.073748e+01 -2.188636e+01 -2.306612e+01 -2.435596e+01 -2.450223e+01 -2.400336e+01 -2.290968e+01 -2.400336e+01 -2.450223e+01 -2.435596e+01 -2.306612e+01 -2.188636e+01 -2.073748e+01 -1.940768e+01 -1.854474e+01 -1.750141e+01 -1.691256e+01 -1.616764e+01 -1.580419e+01 -1.531992e+01 -1.515729e+01 -1.490481e+01 
-1.527365e+01 -1.521529e+01 -1.548601e+01 -1.562702e+01 -1.612046e+01 -1.645122e+01 -1.717302e+01 -1.769324e+01 -1.863161e+01 -1.935125e+01 -2.041356e+01 -2.129426e+01 -2.201547e+01 -2.264697e+01 -2.227010e+01 -2.247824e+01 -2.207626e+01 -2.247824e+01 -2.227010e+01 -2.264697e+01 -2.201547e+01 -2.129426e+01 -2.041356e+01 -1.935125e+01 -1.863161e+01 -1.769324e+01 -1.717302e+01 -1.645122e+01 -1.612046e+01 -1.562702e+01 -1.548601e+01 -1.521529e+01 
-1.535457e+01 -1.530836e+01 -1.557085e+01 -1.573136e+01 -1.621622e+01 -1.657611e+01 -1.728037e+01 -1.783890e+01 -1.873800e+01 -1.950667e+01 -2.052000e+01 -2.147934e+01 -2.231167e+01 -2.316599e+01 -2.327028e+01 -2.334382e+01 -2.285688e+01 -2.334382e+01 -2.327028e+01 -2.316599e+01 -2.231167e+01 -2.147934e+01 -2.052000e+01 -1.950667e+01 -1.873800e+01 -1.783890e+01 -1.728037e+01 -1.657611e+01 -1.621622e+01 -1.573136e+01 -1.557085e+01 -1.530836e+01 
