# vtk DataFile Version 2.0
Comment goes here
ASCII

DATASET STRUCTURED_POINTS
FIELD FieldData 1
TIME 1 1 double
1.22000000
DIMENSIONS    32   32   1

ORIGIN    0.000   0.000   0.000
SPACING   0.03125 0.03125   1.000

POINT_DATA   1024
SCALARS P double
LOOKUP_TABLE default

-9.115098e+00 -9.028132e+00 -9.122663e+00 -9.060282e+00 -9.154138e+00 -9.153133e+00 -9.268933e+00 -9.386737e+00 -9.540138e+00 -9.765864e+00 -9.862207e+00 -1.003087e+01 -9.868378e+00 -9.761954e+00 -9.267294e+00 -8.966825e+00 -8.661479e+00 -8.966825e+00 -9.267294e+00 -9.761954e+00 -9.868378e+00 -1.003087e+01 -9.862207e+00 -9.765864e+00 -9.540138e+00 -9.386737e+00 -9.268933e+00 -9.153133e+00 -9.154138e+00 -9.060282e+00 -9.122663e+00 -9.028132e+00 
-9.076224e+00 -9.015198e+00 -9.086340e+00 -9.053482e+00 -9.129781e+00 -9.165190e+00 -9.276113e+00 -9.438445e+00 -9.607983e+00 -9.883103e+00 -1.002357e+01 -1.024633e+01 -1.015821e+01 -1.012657e+01 -9.727727e+00 -9.496137e+00 -9.220191e+00 -9.496137e+00 -9.727727e+00 -1.012657e+01 -1.015821e+01 -1.024633e+01 -1.002357e+01 -9.883103e+00 -9.607983e+00 -9.438445e+00 -9.276113e+00 -9.165190e+00 -9.129781e+00 -9.053482e+00 -9.086340e+00 -9.015198e+00 
-9.108381e+00 -9.014707e+00 -9.120707e+00 -9.058188e+00 -9.171711e+00 -9.182625e+00 -9.329114e+00 -9.472798e+00 -9.664102e+00 -9.926782e+00 -1.006299e+01 -1.028546e+01 -1.017266e+01 -1.015187e+01 -9.718152e+00 -9.444917e+00 -9.173718e+00 -9.444917e+00 -9.718152e+00 -1.015187e+01 -1.017266e+01 -1.028546e+01 -1.006299e+01 -9.926782e+00 -9.664102e+00 -9.472798e+00 -9.329114e+00 -9.182625e+00 -9.171711e+00 -9.058188e+00 -9.120707e+00 -9.014707e+00 
-9.058240e+00 -8.983911e+00 -9.076767e+00 -9.042541e+00 -9.150569e+00 -9.203594e+00 -9.356567e+00 -9.556351e+00 -9.773582e+00 -1.010008e+01 -1.029893e+01 -1.059653e+01 -1.059830e+01 -1.072206e+01 -1.048222e+01 -1.035958e+01 -1.015411e+01 -1.035958e+01 -1.048222e+01 -1.072206e+01 -1.059830e+01 -1.059653e+01 -1.029893e+01 -1.010008e+01 -9.773582e+00 -9.556351e+00 -9.356567e+00 -9.203594e+00 -9.150569e+00 -9.042541e+00 -9.076767e+00 -8.983911e+00 
-9.084362e+00 -8.971855e+00 -9.113844e+00 -9.050283e+00 -9.214284e+00 -9.242345e+00 -9.447476e+00 -9.622558e+00 -9.867133e+00 -1.017091e+01 -1.035155e+01 -1.064548e+01 -1.057984e+01 -1.070426e+01 -1.030574e+01 -1.005398e+01 -9.866452e+00 -1.005398e+01 -1.030574e+01 -1.070426e+01 -1.057984e+01 -1.064548e+01 -1.035155e+01 -1.017091e+01 -9.867133e+00 -9.622558e+00 -9.447476e+00 -9.242345e+00 -9.214284e+00 -9.050283e+00 -9.113844e+00 -8.971855e+00 
-9.030834e+00 -8.930143e+00 -9.070795e+00 -9.030666e+00 -9.189310e+00 -9.247340e+00 -9.432118e+00 -9.641640e+00 -9.860040e+00 -1.019831e+01 -1.040999e+01 -1.072192e+01 -1.078107e+01 -1.107880e+01 -1.099547e+01 -1.102810e+01 -1.090430e+01 -1.102810e+01 -1.099547e+01 -1.107880e+01 -1.078107e+01 -1.072192e+01 -1.040999e+01 -1.019831e+01 -9.860040e+00 -9.641640e+00 -9.432118e+00 -9.247340e+00 -9.189310e+00 -9.030666e+00 -9.070795e+00 -8.930143e+00 
-9.069644e+00 -8.926546e+00 -9.131464e+00 -9.060209e+00 -9.289659e+00 -9.307598e+00 -9.556666e+00 -9.716849e+00 -9.978828e+00 -1.028435e+01 -1.049150e+01 -1.083591e+01 -1.081373e+01 -1.096961e+01 -1.012777e+01 -9.702123e+00 -9.692633e+00 -9.702123e+00 -1.012777e+01 -1.096961e+01 -1.081373e+01 -1.083591e+01 -1.049150e+01 -1.028435e+01 -9.978828e+00 -9.716849e+00 -9.556666e+00 -9.307598e+00 -9.289659e+00 -9.060209e+00 -9.131464e+00 -8.926546e+00 
-9.050886e+00 -8.905482e+00 -9.125647e+00 -9.061461e+00 -9.280081e+00 -9.298762e+00 -9.479999e+00 -9.652373e+00 -9.790489e+00 -1.014227e+01 -1.033481e+01 -1.049484e+01 -1.062986e+01 -1.116801e+01 -1.114001e+01 -1.132629e+01 -1.133065e+01 -1.132629e+01 -1.114001e+01 -1.116801e+01 -1.062986e+01 -1.049484e+01 -1.033481e+01 -1.014227e+01 -9.790489e+00 -9.652373e+00 -9.479999e+00 -9.298762e+00 -9.280081e+00 -9.061461e+00 -9.125647e+00 -8.905482e+00 
-9.118730e+00 -8.927645e+00 -9.220663e+00 -9.116642e+00 -9.412155e+00 -9.363123e+00 -9.634694e+00 -9.727930e+00 -1.000520e+01 -1.039001e+01 -1.074492e+01 -1.132827e+01 -1.195891e+01 -1.129027e+01 -4.456300e+00 5.232121e-01 7.250171e-01 5.232121e-01 -4.456300e+00 -1.129027e+01 -1.195891e+01 -1.132827e+01 -1.074492e+01 -1.039001e+01 -1.000520e+01 -9.727930e+00 -9.634694e+00 -9.363123e+00 -9.412155e+00 -9.116642e+00 -9.220663e+00 -8.927645e+00 
-9.148881e+00 -8.929697e+00 -9.265136e+00 -9.130955e+00 -9.426502e+00 -9.324128e+00 -9.500724e+00 -9.595129e+00 -9.570083e+00 -1.030848e+01 -9.905755e+00 -8.042512e+00 1.221194e+00 1.535754e+01 2.828777e+01 3.599696e+01 3.832837e+01 3.599696e+01 2.828777e+01 1.535754e+01 1.221194e+00 -8.042512e+00 -9.905755e+00 -1.030848e+01 -9.570083e+00 -9.595129e+00 -9.500724e+00 -9.324128e+00 -9.426502e+00 -9.130955e+00 -9.265136e+00 -8.929697e+00 
-9.190339e+00 -8.928269e+00 -9.331542e+00 -9.146092e+00 -9.505177e+00 -9.298102e+00 -9.585386e+00 -9.496054e+00 -9.743917e+00 -1.027739e+01 -8.171923e+00 5.831580e+00 2.889222e+01 4.321044e+01 4.800573e+01 4.854235e+01 5.012529e+01 4.854235e+01 4.800573e+01 4.321044e+01 2.889222e+01 5.831580e+00 -8.171923e+00 -1.027739e+01 -9.743917e+00 -9.496054e+00 -9.585386e+00 -9.298102e+00 -9.505177e+00 -9.146092e+00 -9.331542e+00 -8.928269e+00 
-9.190797e+00 -8.874105e+00 -9.363602e+00 -9.097862e+00 -9.526749e+00 -9.143761e+00 -9.459253e+00 -9.082358e+00 -9.254554e+00 -9.446934e+00 3.070769e+00 2.812237e+01 4.473256e+01 4.711083e+01 4.671970e+01 4.643037e+01 4.673875e+01 4.643037e+01 4.671970e+01 4.711083e+01 4.473256e+01 2.812237e+01 3.070769e+00 -9.446934e+00 -9.254554e+00 -9.082358e+00 -9.459253e+00 -9.143761e+00 -9.526749e+00 -9.097862e+00 -9.363602e+00 -8.874105e+00 
-9.068764e+00 -8.730443e+00 -9.271433e+00 -8.964791e+00 -9.411425e+00 -8.881560e+00 -9.275278e+00 -8.508792e+00 -9.862313e+00 -3.549268e+00 2.245181e+01 4.313824e+01 4.603255e+01 4.680442e+01 4.723036e+01 4.743507e+01 4.802441e+01 4.743507e+01 4.723036e+01 4.680442e+01 4.603255e+01 4.313824e+01 2.245181e+01 -3.549268e+00 -9.862313e+00 -8.508792e+00 -9.275278e+00 -8.881560e+00 -9.411425e+00 -8.964791e+00 -9.271433e+00 -8.730443e+00 
-8.878481e+00 -8.498904e+00 -9.151371e+00 -8.776502e+00 -9.417247e+00 -8.613247e+00 -9.455215e+00 -7.865645e+00 -1.014447e+01 5.477635e+00 3.647318e+01 4.678132e+01 4.626129e+01 4.673381e+01 4.662781e+01 4.656896e+01 4.669945e+01 4.656896e+01 4.662781e+01 4.673381e+01 4.626129e+01 4.678132e+01 3.647318e+01 5.477635e+00 -1.014447e+01 -7.865645e+00 -9.455215e+00 -8.613247e+00 -9.417247e+00 -8.776502e+00 -9.151371e+00 -8.498904e+00 
-8.500102e+00 -8.144958e+00 -8.806889e+00 -8.495691e+00 -9.030349e+00 -8.322074e+00 -8.463841e+00 -7.318964e+00 -6.149874e+00 1.581061e+01 4.408856e+01 4.676684e+01 4.648806e+01 4.688032e+01 4.705351e+01 4.712066e+01 4.734462e+01 4.712066e+01 4.705351e+01 4.688032e+01 4.648806e+01 4.676684e+01 4.408856e+01 1.581061e+01 -6.149874e+00 -7.318964e+00 -8.463841e+00 -8.322074e+00 -9.030349e+00 -8.495691e+00 -8.806889e+00 -8.144958e+00 
-8.136617e+00 -7.807905e+00 -8.434704e+00 -8.209396e+00 -8.509758e+00 -8.033585e+00 -7.174132e+00 -6.823130e+00 -3.689230e+00 2.306579e+01 4.706706e+01 4.591187e+01 4.669473e+01 4.643099e+01 4.670805e+01 4.653128e+01 4.671510e+01 4.653128e+01 4.670805e+01 4.643099e+01 4.669473e+01 4.591187e+01 4.706706e+01 2.306579e+01 -3.689230e+00 -6.823130e+00 -7.174132e+00 -8.033585e+00 -8.509758e+00 -8.209396e+00 -8.434704e+00 -7.807905e+00 
-7.935555e+00 -7.614098e+00 -8.217691e+00 -7.976185e+00 -8.193234e+00 -7.577893e+00 -6.522050e+00 -5.721237e+00 -3.270316e+00 2.404561e+01 4.767457e+01 4.608460e+01 4.700026e+01 4.677055e+01 4.711811e+01 4.703205e+01 4.724118e+01 4.703205e+01 4.711811e+01 4.677055e+01 4.700026e+01 4.608460e+01 4.767457e+01 2.404561e+01 -3.270316e+00 -5.721237e+00 -6.522050e+00 -7.577893e+00 -8.193234e+00 -7.976185e+00 -8.217691e+00 -7.614098e+00 
-8.136617e+00 -7.807905e+00 -8.434704e+00 -8.209396e+00 -8.509758e+00 -8.033585e+00 -7.174132e+00 -6.823130e+00 -3.689230e+00 2.306579e+01 4.706706e+01 4.591187e+01 4.669473e+01 4.643099e+01 4.670805e+01 4.653128e+01 4.671510e+01 4.653128e+01 4.670805e+01 4.643099e+01 4.669473e+01 4.591187e+01 4.706706e+01 2.306579e+01 -3.689230e+00 -6.823130e+00 -7.174132e+00 -8.033585e+00 -8.509758e+00 -8.209396e+00 -8.434704e+00 -7.807905e+00 
-8.500102e+00 -8.144958e+00 -8.806889e+00 -8.495691e+00 -9.030349e+00 -8.322074e+00 -8.463841e+00 -7.318964e+00 -6.149874e+00 1.581061e+01 4.408856e+01 4.676684e+01 4.648806e+01 4.688032e+01 4.705351e+01 4.712066e+01 4.734462e+01 4.712066e+01 4.705351e+01 4.688032e+01 4.648806e+01 4.676684e+01 4.408856e+01 1.581061e+01 -6.149874e+00 -7.318964e+00 -8.463841e+00 -8.322074e+00 -9.030349e+00 -8.495691e+00 -8.806889e+00 -8.144958e+00 
-8.878481e+00 -8.498904e+00 -9.151371e+00 -8.776502e+00 -9.417247e+00 -8.613247e+00 -9.455215e+00 -7.865645e+00 -1.014447e+01 5.477635e+00 3.647318e+01 4.678132e+01 4.626129e+01 4.673381e+01 4.662781e+01 4.656896e+01 4.669945e+01 4.656896e+01 4.662781e+01 4.673381e+01 4.626129e+01 4.678132e+01 3.647318e+01 5.477635e+00 -1.014447e+01 -7.865645e+00 -9.455215e+00 -8.613247e+00 -9.417247e+00 -8.776502e+00 -9.151371e+00 -8.498904e+00 
-9.068764e+00 -8.730443e+00 -9.271433e+00 -8.964791e+00 -9.411425e+00 -8.881560e+00 -9.275278e+00 -8.508792e+00 -9.862313e+00 -3.549268e+00 2.245181e+01 4.313824e+01 4.603255e+01 4.680442e+01 4.723036e+01 4.743507e+01 4.802441e+01 4.743507e+01 4.723036e+01 4.680442e+01 4.603255e+01 4.313824e+01 2.245181e+01 -3.549268e+00 -9.862313e+00 -8.508792e+00 -9.275278e+00 -8.881560e+00 -9.411425e+00 -8.964791e+00 -9.271433e+00 -8.730443e+00 
-9.190797e+00 -8.874105e+00 -9.363602e+00 -9.097862e+00 -9.526749e+00 -9.143761e+00 -9.459253e+00 -9.082358e+00 -9.254554e+00 -9.446934e+00 3.070769e+00 2.812237e+01 4.473256e+01 4.711083e+01 4.671970e+01 4.643037e+01 4.673875e+01 4.643037e+01 4.671970e+01 4.711083e+01 4.473256e+01 2.812237e+01 3.070769e+00 -9.446934e+00 -9.254554e+00 -9.082358e+00 -9.459253e+00 -9.143761e+00 -9.526749e+00 -9.097862e+00 -9.363602e+00 -8.874105e+00 
-9.190339e+00 -8.928269e+00 -9.331542e+00 -9.146092e+00 -9.505177e+00 -9.298102e+00 -9.585386e+00 -9.496054e+00 -9.743917e+00 -1.027739e+01 -8.171923e+00 5.831580e+00 2.889222e+01 4.321044e+01 4.800573e+01 4.854235e+01 5.012529e+01 4.854235e+01 4.800573e+01 4.321044e+01 2.889222e+01 5.831580e+00 -8.171923e+00 -1.027739e+01 -9.743917e+00 -9.496054e+00 -9.585386e+00 -9.298102e+00 -9.505177e+00 -9.146092e+00 -9.331542e+00 -8.928269e+00 
-9.148881e+00 -8.929697e+00 -9.265136e+00 -9.130955e+00 -9.426502e+00 -9.324128e+00 -9.500724e+00 -9.595129e+00 -9.570083e+00 -1.030848e+01 -9.905755e+00 -8.042512e+00 1.221194e+00 1.535754e+01 2.828777e+01 3.599696e+01 3.832837e+01 3.599696e+01 2.828777e+01 1.535754e+01 1.221194e+00 -8.042512e+00 -9.905755e+00 -1.030848e+01 -9.570083e+00 -9.595129e+00 -9.500724e+00 -9.324128e+00 -9.426502e+00 -9.130955e+00 -9.265136e+00 -8.929697e+00 
-9.118730e+00 -8.927645e+00 -9.220663e+00 -9.116642e+00 -9.412155e+00 -9.363123e+00 -9.634694e+00 -9.727930e+00 -1.000520e+01 -1.039001e+01 -1.074492e+01 -1.132827e+01 -1.195891e+01 -1.129027e+01 -4.456300e+00 5.232121e-01 7.250171e-01 5.232121e-01 -4.456300e+00 -1.129027e+01 -1.195891e+01 -1.132827e+01 -1.074492e+01 -1.039001e+01 -1.000520e+01 -9.727930e+00 -9.634694e+00 -9.363123e+00 -9.412155e+00 -9.116642e+00 -9.220663e+00 -8.927645e+00 
-9.050886e+00 -8.905482e+00 -9.125647e+00 -9.061461e+00 -9.280081e+00 -9.298762e+00 -9.479999e+00 -9.652373e+00 -9.790489e+00 -1.014227e+01 -1.033481e+01 -1.049484e+01 -1.062986e+01 -1.116801e+01 -1.114001e+01 -1.132629e+01 -1.133065e+01 -1.132629e+01 -1.114001e+01 -1.116801e+01 -1.062986e+01 -1.049484e+01 -1.033481e+01 -1.014227e+01 -9.790489e+00 -9.652373e+00 -9.479999e+00 -9.298762e+00 -9.280081e+00 -9.061461e+00 -9.125647e+00 -8.905482e+00 
-9.069644e+00 -8.926546e+00 -9.131464e+00 -9.060209e+00 -9.289659e+00 -9.307598e+00 -9.556666e+00 -9.716849e+00 -9.978828e+00 -1.028435e+01 -1.049150e+01 -1.083591e+01 -1.081373e+01 -1.096961e+01 -1.012777e+01 -9.702123e+00 -9.692633e+00 -9.702123e+00 -1.012777e+01 -1.096961e+01 -1.081373e+01 -1.083591e+01 -1.049150e+01 -1.028435e+01 -9.978828e+00 -9.716849e+00 -9.556666e+00 -9.307598e+00 -9.289659e+00 -9.060209e+00 -9.131464e+00 -8.926546e+00 
-9.030834e+00 -8.930143e+00 -9.070795e+00 -9.030666e+00 -9.189310e+00 -9.247340e+00 -9.432118e+00 -9.641640e+00 -9.860040e+00 -1.019831e+01 -1.040999e+01 -1.072192e+01 -1.078107e+01 -1.107880e+01 -1.099547e+01 -1.102810e+01 -1.090430e+01 -1.102810e+01 -1.099547e+01 -1.107880e+01 -1.078107e+01 -1.072192e+01 -1.040999e+01 -1.019831e+01 -9.860040e+00 -9.641640e+00 -9.432118e+00 -9.247340e+00 -9.189310e+00 -9.030666e+00 -9.070795e+00 -8.930143e+00 
-9.084362e+00 -8.971855e+00 -9.113844e+00 -9.050283e+00 -9.214284e+00 -9.242345e+00 -9.447476e+00 -9.622558e+00 -9.867133e+00 -1.017091e+01 -1.035155e+01 -1.064548e+01 -1.057984e+01 -1.070426e+01 -1.030574e+01 -1.005398e+01 -9.866452e+00 -1.005398e+01 -1.030574e+01 -1.070426e+01 -1.057984e+01 -1.064548e+01 -1.035155e+01 -1.017091e+01 -9.867133e+00 -9.622558e+00 -9.447476e+00 -9.242345e+00 -9.214284e+00 -9.050283e+00 -9.113844e+00 -8.971855e+00 
-9.058240e+00 -8.983911e+00 -9.076767e+00 -9.042541e+00 -9.150569e+00 -9.203594e+00 -9.356567e+00 -9.556351e+00 -9.773582e+00 -1.010008e+01 -1.029893e+01 -1.059653e+01 -1.059830e+01 -1.072206e+01 -1.048222e+01 -1.035958e+01 -1.015411e+01 -1.035958e+01 -1.048222e+01 -1.072206e+01 -1.059830e+01 -1.059653e+01 -1.029893e+01 -1.010008e+01 -9.773582e+00 -9.556351e+00 -9.356567e+00 -9.203594e+00 -9.150569e+00 -9.042541e+00 -9.076767e+00 -8.983911e+00 
-9.108381e+00 -9.014707e+00 -9.120707e+00 -9.058188e+00 -9.171711e+00 -9.182625e+00 -9.329114e+00 -9.472798e+00 -9.664102e+00 -9.926782e+00 -1.006299e+01 -1.028546e+01 -1.017266e+01 -1.015187e+01 -9.718152e+00 -9.444917e+00 -9.173718e+00 -9.444917e+00 -9.718152e+00 -1.015187e+01 -1.017266e+01 -1.028546e+01 -1.006299e+01 -9.926782e+00 -9.664102e+00 -9.472798e+00 -9.329114e+00 -9.182625e+00 -9.171711e+00 -9.058188e+00 -9.120707e+00 -9.014707e+00 
-9.076224e+00 -9.015198e+00 -9.086340e+00 -9.053482e+00 -9.129781e+00 -9.165190e+00 -9.276113e+00 -9.438445e+00 -9.607983e+00 -9.883103e+00 -1.002357e+01 -1.024633e+01 -1.015821e+01 -1.012657e+01 -9.727727e+00 -9.496137e+00 -9.220191e+00 -9.496137e+00 -9.727727e+00 -1.012657e+01 -1.015821e+01 -1.024633e+01 -1.002357e+01 -9.883103e+00 -9.607983e+00 -9.438445e+00 -9.276113e+00 -9.165190e+00 -9.129781e+00 -9.053482e+00 -9.086340e+00 -9.015198e+00 
