# vtk DataFile Version 2.0
Comment goes here
ASCII

DATASET STRUCTURED_POINTS
FIELD FieldData 1
TIME 1 1 double
1.30000000
DIMENSIONS    32   32   1

ORIGIN    0.000   0.000   0.000
SPACING   0.03125 0.03125   1.000

POINT_DATA   1024
SCALARS P double
LOOKUP_TABLE default

-8.657780e+00 -8.646875e+00 -8.642273e+00 -8.608770e+00 -8.585217e+00 -8.530530e+00 -8.508785e+00 -8.471015e+00 -8.485061e+00 -8.487147e+00 -8.507951e+00 -8.484416e+00 -8.396262e+00 -8.221322e+00 -7.946138e+00 -7.658315e+00 -7.526837e+00 -7.658315e+00 -7.946138e+00 -8.221322e+00 -8.396262e+00 -8.484416e+00 -8.507951e+00 -8.487147e+00 -8.485061e+00 -8.471015e+00 -8.508785e+00 -8.530530e+00 -8.585217e+00 -8.608770e+00 -8.642273e+00 -8.646875e+00 
-8.578836e+00 -8.595111e+00 -8.556990e+00 -8.545126e+00 -8.481938e+00 -8.443123e+00 -8.375977e+00 -8.342692e+00 -8.305463e+00 -8.288316e+00 -8.254877e+00 -8.180422e+00 -8.045198e+00 -7.811366e+00 -7.512584e+00 -7.214087e+00 -7.080691e+00 -7.214087e+00 -7.512584e+00 -7.811366e+00 -8.045198e+00 -8.180422e+00 -8.254877e+00 -8.288316e+00 -8.305463e+00 -8.342692e+00 -8.375977e+00 -8.443123e+00 -8.481938e+00 -8.545126e+00 -8.556990e+00 -8.595111e+00 
-8.677614e+00 -8.669232e+00 -8.665654e+00 -8.637724e+00 -8.621263e+00 -8.575954e+00 -8.568338e+00 -8.541877e+00 -8.572167e+00 -8.584184e+00 -8.619869e+00 -8.615439e+00 -8.553791e+00 -8.431666e+00 -8.190470e+00 -7.904266e+00 -7.757304e+00 -7.904266e+00 -8.190470e+00 -8.431666e+00 -8.553791e+00 -8.615439e+00 -8.619869e+00 -8.584184e+00 -8.572167e+00 -8.541877e+00 -8.568338e+00 -8.575954e+00 -8.621263e+00 -8.637724e+00 -8.665654e+00 -8.669232e+00 
-8.636630e+00 -8.658280e+00 -8.624134e+00 -8.625784e+00 -8.576558e+00 -8.557805e+00 -8.511011e+00 -8.498128e+00 -8.475127e+00 -8.466804e+00 -8.434920e+00 -8.356094e+00 -8.234071e+00 -8.018690e+00 -7.757614e+00 -7.487527e+00 -7.323870e+00 -7.487527e+00 -7.757614e+00 -8.018690e+00 -8.234071e+00 -8.356094e+00 -8.434920e+00 -8.466804e+00 -8.475127e+00 -8.498128e+00 -8.511011e+00 -8.557805e+00 -8.576558e+00 -8.625784e+00 -8.624134e+00 -8.658280e+00 
-8.754446e+00 -8.757071e+00 -8.758978e+00 -8.751638e+00 -8.752825e+00 -8.723343e+00 -8.734879e+00 -8.702822e+00 -8.735626e+00 -8.710886e+00 -8.725080e+00 -8.688282e+00 -8.624164e+00 -8.603794e+00 -8.391567e+00 -8.037640e+00 -7.806065e+00 -8.037640e+00 -8.391567e+00 -8.603794e+00 -8.624164e+00 -8.688282e+00 -8.725080e+00 -8.710886e+00 -8.735626e+00 -8.702822e+00 -8.734879e+00 -8.723343e+00 -8.752825e+00 -8.751638e+00 -8.758978e+00 -8.757071e+00 
-8.791277e+00 -8.828619e+00 -8.807015e+00 -8.840836e+00 -8.815014e+00 -8.817401e+00 -8.779860e+00 -8.756002e+00 -8.700067e+00 -8.637714e+00 -8.521431e+00 -8.336687e+00 -8.145011e+00 -7.825214e+00 -7.521077e+00 -7.242859e+00 -6.939276e+00 -7.242859e+00 -7.521077e+00 -7.825214e+00 -8.145011e+00 -8.336687e+00 -8.521431e+00 -8.637714e+00 -8.700067e+00 -8.756002e+00 -8.779860e+00 -8.817401e+00 -8.815014e+00 -8.840836e+00 -8.807015e+00 -8.828619e+00 
-8.952379e+00 -8.982447e+00 -8.995846e+00 -9.032141e+00 -9.053135e+00 -9.030907e+00 -9.039312e+00 -8.940916e+00 -8.923894e+00 -8.744442e+00 -8.644514e+00 -8.408694e+00 -8.301364e+00 -8.461437e+00 -8.076015e+00 -7.255630e+00 -6.715588e+00 -7.255630e+00 -8.076015e+00 -8.461437e+00 -8.301364e+00 -8.408694e+00 -8.644514e+00 -8.744442e+00 -8.923894e+00 -8.940916e+00 -9.039312e+00 -9.030907e+00 -9.053135e+00 -9.032141e+00 -8.995846e+00 -8.982447e+00 
-9.112988e+00 -9.182235e+00 -9.181831e+00 -9.269889e+00 -9.270677e+00 -9.282979e+00 -9.238895e+00 -9.158733e+00 -9.031705e+00 -8.869125e+00 -8.526002e+00 -8.129455e+00 -7.821456e+00 -7.112874e+00 -6.550390e+00 -6.129756e+00 -5.399851e+00 -6.129756e+00 -6.550390e+00 -7.112874e+00 -7.821456e+00 -8.129455e+00 -8.526002e+00 -8.869125e+00 -9.031705e+00 -9.158733e+00 -9.238895e+00 -9.282979e+00 -9.270677e+00 -9.269889e+00 -9.181831e+00 -9.182235e+00 
-9.318620e+00 -9.400065e+00 -9.424541e+00 -9.535575e+00 -9.568483e+00 -9.556400e+00 -9.550400e+00 -9.352169e+00 -9.287235e+00 -8.834751e+00 -8.427245e+00 -7.544170e+00 -7.762074e+00 -8.666577e+00 -7.138080e+00 -5.257087e+00 -4.651753e+00 -5.257087e+00 -7.138080e+00 -8.666577e+00 -7.762074e+00 -7.544170e+00 -8.427245e+00 -8.834751e+00 -9.287235e+00 -9.352169e+00 -9.550400e+00 -9.556400e+00 -9.568483e+00 -9.535575e+00 -9.424541e+00 -9.400065e+00 
-9.572481e+00 -9.694066e+00 -9.716477e+00 -9.883555e+00 -9.912286e+00 -9.933411e+00 -9.914663e+00 -9.764031e+00 -9.687491e+00 -9.519494e+00 -8.647111e+00 -8.164095e+00 -5.015714e+00 1.574090e+00 8.996894e+00 1.536034e+01 1.731924e+01 1.536034e+01 8.996894e+00 1.574090e+00 -5.015714e+00 -8.164095e+00 -8.647111e+00 -9.519494e+00 -9.687491e+00 -9.764031e+00 -9.914663e+00 -9.933411e+00 -9.912286e+00 -9.883555e+00 -9.716477e+00 -9.694066e+00 
-9.717266e+00 -9.877349e+00 -9.905303e+00 -1.013358e+01 -1.017011e+01 -1.022711e+01 -1.025798e+01 -1.009759e+01 -1.026725e+01 -9.779151e+00 -7.745336e+00 1.912320e+00 1.794479e+01 3.157525e+01 4.015382e+01 4.490774e+01 4.674785e+01 4.490774e+01 4.015382e+01 3.157525e+01 1.794479e+01 1.912320e+00 -7.745336e+00 -9.779151e+00 -1.026725e+01 -1.009759e+01 -1.025798e+01 -1.022711e+01 -1.017011e+01 -1.013358e+01 -9.905303e+00 -9.877349e+00 
-9.902151e+00 -1.010484e+01 -1.014804e+01 -1.043942e+01 -1.050909e+01 -1.057764e+01 -1.071888e+01 -1.045080e+01 -1.109808e+01 -9.578439e+00 1.332240e+00 2.409853e+01 4.136477e+01 4.602947e+01 4.655030e+01 4.641725e+01 4.716110e+01 4.641725e+01 4.655030e+01 4.602947e+01 4.136477e+01 2.409853e+01 1.332240e+00 -9.578439e+00 -1.109808e+01 -1.045080e+01 -1.071888e+01 -1.057764e+01 -1.050909e+01 -1.043942e+01 -1.014804e+01 -1.010484e+01 
-9.794157e+00 -1.006413e+01 -1.009527e+01 -1.049872e+01 -1.053433e+01 -1.071374e+01 -1.086787e+01 -1.060496e+01 -1.210650e+01 -1.929348e+00 2.364637e+01 4.241647e+01 4.623615e+01 4.608582e+01 4.558633e+01 4.573321e+01 4.619506e+01 4.573321e+01 4.558633e+01 4.608582e+01 4.623615e+01 4.241647e+01 2.364637e+01 -1.929348e+00 -1.210650e+01 -1.060496e+01 -1.086787e+01 -1.071374e+01 -1.053433e+01 -1.049872e+01 -1.009527e+01 -1.006413e+01 
-9.711797e+00 -1.004671e+01 -1.009891e+01 -1.062258e+01 -1.070011e+01 -1.095513e+01 -1.114187e+01 -1.077092e+01 -1.219830e+01 1.158491e+01 4.105126e+01 4.719112e+01 4.651740e+01 4.671277e+01 4.683674e+01 4.666655e+01 4.706853e+01 4.666655e+01 4.683674e+01 4.671277e+01 4.651740e+01 4.719112e+01 4.105126e+01 1.158491e+01 -1.219830e+01 -1.077092e+01 -1.114187e+01 -1.095513e+01 -1.070011e+01 -1.062258e+01 -1.009891e+01 -1.004671e+01 
-9.283318e+00 -9.704253e+00 -9.721707e+00 -1.043504e+01 -1.034370e+01 -1.097577e+01 -1.033678e+01 -1.115432e+01 -6.112593e+00 2.519088e+01 4.718730e+01 4.668406e+01 4.689115e+01 4.636765e+01 4.646675e+01 4.615758e+01 4.650417e+01 4.615758e+01 4.646675e+01 4.636765e+01 4.689115e+01 4.668406e+01 4.718730e+01 2.519088e+01 -6.112593e+00 -1.115432e+01 -1.033678e+01 -1.097577e+01 -1.034370e+01 -1.043504e+01 -9.721707e+00 -9.704253e+00 
-9.015849e+00 -9.514405e+00 -9.472498e+00 -1.036043e+01 -1.008539e+01 -1.111339e+01 -9.801427e+00 -1.173520e+01 -1.588211e+00 3.386291e+01 4.890382e+01 4.675579e+01 4.745522e+01 4.674090e+01 4.716952e+01 4.674366e+01 4.718336e+01 4.674366e+01 4.716952e+01 4.674090e+01 4.745522e+01 4.675579e+01 4.890382e+01 3.386291e+01 -1.588211e+00 -1.173520e+01 -9.801427e+00 -1.111339e+01 -1.008539e+01 -1.036043e+01 -9.472498e+00 -9.514405e+00 
-8.758497e+00 -9.269521e+00 -9.239366e+00 -1.015789e+01 -9.911586e+00 -1.092983e+01 -9.747033e+00 -1.151680e+01 -1.448716e+00 3.586487e+01 5.009295e+01 4.663750e+01 4.771178e+01 4.642415e+01 4.683860e+01 4.626260e+01 4.669152e+01 4.626260e+01 4.683860e+01 4.642415e+01 4.771178e+01 4.663750e+01 5.009295e+01 3.586487e+01 -1.448716e+00 -1.151680e+01 -9.747033e+00 -1.092983e+01 -9.911586e+00 -1.015789e+01 -9.239366e+00 -9.269521e+00 
-9.015849e+00 -9.514405e+00 -9.472498e+00 -1.036043e+01 -1.008539e+01 -1.111339e+01 -9.801427e+00 -1.173520e+01 -1.588211e+00 3.386291e+01 4.890382e+01 4.675579e+01 4.745522e+01 4.674090e+01 4.716952e+01 4.674366e+01 4.718336e+01 4.674366e+01 4.716952e+01 4.674090e+01 4.745522e+01 4.675579e+01 4.890382e+01 3.386291e+01 -1.588211e+00 -1.173520e+01 -9.801427e+00 -1.111339e+01 -1.008539e+01 -1.036043e+01 -9.472498e+00 -9.514405e+00 
-9.283318e+00 -9.704253e+00 -9.721707e+00 -1.043504e+01 -1.034370e+01 -1.097577e+01 -1.033678e+01 -1.115432e+01 -6.112593e+00 2.519088e+01 4.718730e+01 4.668406e+01 4.689115e+01 4.636765e+01 4.646675e+01 4.615758e+01 4.650417e+01 4.615758e+01 4.646675e+01 4.636765e+01 4.689115e+01 4.668406e+01 4.718730e+01 2.519088e+01 -6.112593e+00 -1.115432e+01 -1.033678e+01 -1.097577e+01 -1.034370e+01 -1.043504e+01 -9.721707e+00 -9.704253e+00 
-9.711797e+00 -1.004671e+01 -1.009891e+01 -1.062258e+01 -1.070011e+01 -1.095513e+01 -1.114187e+01 -1.077092e+01 -1.219830e+01 1.158491e+01 4.105126e+01 4.719112e+01 4.651740e+01 4.671277e+01 4.683674e+01 4.666655e+01 4.706853e+01 4.666655e+01 4.683674e+01 4.671277e+01 4.651740e+01 4.719112e+01 4.105126e+01 1.158491e+01 -1.219830e+01 -1.077092e+01 -1.114187e+01 -1.095513e+01 -1.070011e+01 -1.062258e+01 -1.009891e+01 -1.004671e+01 
-9.794157e+00 -1.006413e+01 -1.009527e+01 -1.049872e+01 -1.053433e+01 -1.071374e+01 -1.086787e+01 -1.060496e+01 -1.210650e+01 -1.929348e+00 2.364637e+01 4.241647e+01 4.623615e+01 4.608582e+01 4.558633e+01 4.573321e+01 4.619506e+01 4.573321e+01 4.558633e+01 4.608582e+01 4.623615e+01 4.241647e+01 2.364637e+01 -1.929348e+00 -1.210650e+01 -1.060496e+01 -1.086787e+01 -1.071374e+01 -1.053433e+01 -1.049872e+01 -1.009527e+01 -1.006413e+01 
-9.902151e+00 -1.010484e+01 -1.014804e+01 -1.043942e+01 -1.050909e+01 -1.057764e+01 -1.071888e+01 -1.045080e+01 -1.109808e+01 -9.578439e+00 1.332240e+00 2.409853e+01 4.136477e+01 4.602947e+01 4.655030e+01 4.641725e+01 4.716110e+01 4.641725e+01 4.655030e+01 4.602947e+01 4.136477e+01 2.409853e+01 1.332240e+00 -9.578439e+00 -1.109808e+01 -1.045080e+01 -1.071888e+01 -1.057764e+01 -1.050909e+01 -1.043942e+01 -1.014804e+01 -1.010484e+01 
-9.717266e+00 -9.877349e+00 -9.905303e+00 -1.013358e+01 -1.017011e+01 -1.022711e+01 -1.025798e+01 -1.009759e+01 -1.026725e+01 -9.779151e+00 -7.745336e+00 1.912320e+00 1.794479e+01 3.157525e+01 4.015382e+01 4.490774e+01 4.674785e+01 4.490774e+01 4.015382e+01 3.157525e+01 1.794479e+01 1.912320e+00 -7.745336e+00 -9.779151e+00 -1.026725e+01 -1.009759e+01 -1.025798e+01 -1.022711e+01 -1.017011e+01 -1.013358e+01 -9.905303e+00 -9.877349e+00 
-9.572481e+00 -9.694066e+00 -9.716477e+00 -9.883555e+00 -9.912286e+00 -9.933411e+00 -9.914663e+00 -9.764031e+00 -9.687491e+00 -9.519494e+00 -8.647111e+00 -8.164095e+00 -5.015714e+00 1.574090e+00 8.996894e+00 1.536034e+01 1.731924e+01 1.536034e+01 8.996894e+00 1.574090e+00 -5.015714e+00 -8.164095e+00 -8.647111e+00 -9.519494e+00 -9.687491e+00 -9.764031e+00 -9.914663e+00 -9.933411e+00 -9.912286e+00 -9.883555e+00 -9.716477e+00 -9.694066e+00 
-9.318620e+00 -9.400065e+00 -9.424541e+00 -9.535575e+00 -9.568483e+00 -9.556400e+00 -9.550400e+00 -9.352169e+00 -9.287235e+00 -8.834751e+00 -8.427245e+00 -7.544170e+00 -7.762074e+00 -8.666577e+00 -7.138080e+00 -5.257087e+00 -4.651753e+00 -5.257087e+00 -7.138080e+00 -8.666577e+00 -7.762074e+00 -7.544170e+00 -8.427245e+00 -8.834751e+00 -9.287235e+00 -9.352169e+00 -9.550400e+00 -9.556400e+00 -9.568483e+00 -9.535575e+00 -9.424541e+00 -9.400065e+00 
-9.112988e+00 -9.182235e+00 -9.181831e+00 -9.269889e+00 -9.270677e+00 -9.282979e+00 -9.238895e+00 -9.158733e+00 -9.031705e+00 -8.869125e+00 -8.526002e+00 -8.129455e+00 -7.821456e+00 -7.112874e+00 -6.550390e+00 -6.129756e+00 -5.399851e+00 -6.129756e+00 -6.550390e+00 -7.112874e+00 -7.821456e+00 -8.129455e+00 -8.526002e+00 -8.869125e+00 -9.031705e+00 -9.158733e+00 -9.238895e+00 -9.282979e+00 -9.270677e+00 -9.269889e+00 -9.181831e+00 -9.182235e+00 
-8.952379e+00 -8.982447e+00 -8.995846e+00 -9.032141e+00 -9.053135e+00 -9.030907e+00 -9.039312e+00 -8.940916e+00 -8.923894e+00 -8.744442e+00 -8.644514e+00 -8.408694e+00 -8.301364e+00 -8.461437e+00 -8.076015e+00 -7.255630e+00 -6.715588e+00 -7.255630e+00 -8.076015e+00 -8.461437e+00 -8.301364e+00 -8.408694e+00 -8.644514e+00 -8.744442e+00 -8.923894e+00 -8.940916e+00 -9.039312e+00 -9.030907e+00 -9.053135e+00 -9.032141e+00 -8.995846e+00 -8.982447e+00 
-8.791277e+00 -8.828619e+00 -8.807015e+00 -8.840836e+00 -8.815014e+00 -8.817401e+00 -8.779860e+00 -8.756002e+00 -8.700067e+00 -8.637714e+00 -8.521431e+00 -8.336687e+00 -8.145011e+00 -7.825214e+00 -7.521077e+00 -7.242859e+00 -6.939276e+00 -7.242859e+00 -7.521077e+00 -7.825214e+00 -8.145011e+00 -8.336687e+00 -8.521431e+00 -8.637714e+00 -8.700067e+00 -8.756002e+00 -8.779860e+00 -8.817401e+00 -8.815014e+00 -8.840836e+00 -8.807015e+00 -8.828619e+00 
-8.754446e+00 -8.757071e+00 -8.758978e+00 -8.751638e+00 -8.752825e+00 -8.723343e+00 -8.734879e+00 -8.702822e+00 -8.735626e+00 -8.710886e+00 -8.725080e+00 -8.688282e+00 -8.624164e+00 -8.603794e+00 -8.391567e+00 -8.037640e+00 -7.806065e+00 -8.037640e+00 -8.391567e+00 -8.603794e+00 -8.624164e+00 -8.688282e+00 -8.725080e+00 -8.710886e+00 -8.735626e+00 -8.702822e+00 -8.734879e+00 -8.723343e+00 -8.752825e+00 -8.751638e+00 -8.758978e+00 -8.757071e+00 
-8.636630e+00 -8.658280e+00 -8.624134e+00 -8.625784e+00 -8.576558e+00 -8.557805e+00 -8.511011e+00 -8.498128e+00 -8.475127e+00 -8.466804e+00 -8.434920e+00 -8.356094e+00 -8.234071e+00 -8.018690e+00 -7.757614e+00 -7.487527e+00 -7.323870e+00 -7.487527e+00 -7.757614e+00 -8.018690e+00 -8.234071e+00 -8.356094e+00 -8.434920e+00 -8.466804e+00 -8.475127e+00 -8.498128e+00 -8.511011e+00 -8.557805e+00 -8.576558e+00 -8.625784e+00 -8.624134e+00 -8.658280e+00 
-8.677614e+00 -8.669232e+00 -8.665654e+00 -8.637724e+00 -8.621263e+00 -8.575954e+00 -8.568338e+00 -8.541877e+00 -8.572167e+00 -8.584184e+00 -8.619869e+00 -8.615439e+00 -8.553791e+00 -8.431666e+00 -8.190470e+00 -7.904266e+00 -7.757304e+00 -7.904266e+00 -8.190470e+00 -8.431666e+00 -8.553791e+00 -8.615439e+00 -8.619869e+00 -8.584184e+00 -8.572167e+00 -8.541877e+00 -8.568338e+00 -8.575954e+00 -8.621263e+00 -8.637724e+00 -8.665654e+00 -8.669232e+00 
-8.578836e+00 -8.595111e+00 -8.556990e+00 -8.545126e+00 -8.481938e+00 -8.443123e+00 -8.375977e+00 -8.342692e+00 -8.305463e+00 -8.288316e+00 -8.254877e+00 -8.180422e+00 -8.045198e+00 -7.811366e+00 -7.512584e+00 -7.214087e+00 -7.080691e+00 -7.214087e+00 -7.512584e+00 -7.811366e+00 -8.045198e+00 -8.180422e+00 -8.254877e+00 -8.288316e+00 -8.305463e+00 -8.342692e+00 -8.375977e+00 -8.443123e+00 -8.481938e+00 -8.545126e+00 -8.556990e+00 -8.595111e+00 
