# vtk DataFile Version 2.0
Comment goes here
ASCII

DATASET STRUCTURED_POINTS
FIELD FieldData 1
TIME 1 1 double
0.78000000
DIMENSIONS    32   32   1

ORIGIN    0.000   0.000   0.000
SPACING   0.03125 0.03125   1.000

POINT_DATA   1024
SCALARS P double
LOOKUP_TABLE default

-1.272453e+01 -1.270526e+01 -1.281940e+01 -1.289341e+01 -1.311386e+01 -1.329887e+01 -1.364991e+01 -1.399011e+01 -1.448876e+01 -1.499095e+01 -1.552755e+01 -1.599726e+01 -1.624018e+01 -1.629907e+01 -1.596478e+01 -1.555984e+01 -1.531413e+01 -1.555984e+01 -1.596478e+01 -1.629907e+01 -1.624018e+01 -1.599726e+01 -1.552755e+01 -1.499095e+01 -1.448876e+01 -1.399011e+01 -1.364991e+01 -1.329887e+01 -1.311386e+01 -1.289341e+01 -1.281940e+01 -1.270526e+01 
-1.264497e+01 -1.262955e+01 -1.273473e+01 -1.280595e+01 -1.301427e+01 -1.318854e+01 -1.352544e+01 -1.384465e+01 -1.432641e+01 -1.479558e+01 -1.531164e+01 -1.574371e+01 -1.595940e+01 -1.600240e+01 -1.561284e+01 -1.525986e+01 -1.499076e+01 -1.525986e+01 -1.561284e+01 -1.600240e+01 -1.595940e+01 -1.574371e+01 -1.531164e+01 -1.479558e+01 -1.432641e+01 -1.384465e+01 -1.352544e+01 -1.318854e+01 -1.301427e+01 -1.280595e+01 -1.273473e+01 -1.262955e+01 
-1.263451e+01 -1.261805e+01 -1.273355e+01 -1.281364e+01 -1.304796e+01 -1.324889e+01 -1.363750e+01 -1.401331e+01 -1.457938e+01 -1.514754e+01 -1.578223e+01 -1.636526e+01 -1.673305e+01 -1.697717e+01 -1.678617e+01 -1.649369e+01 -1.629774e+01 -1.649369e+01 -1.678617e+01 -1.697717e+01 -1.673305e+01 -1.636526e+01 -1.578223e+01 -1.514754e+01 -1.457938e+01 -1.401331e+01 -1.363750e+01 -1.324889e+01 -1.304796e+01 -1.281364e+01 -1.273355e+01 -1.261805e+01 
-1.247347e+01 -1.246540e+01 -1.257269e+01 -1.265817e+01 -1.289254e+01 -1.309745e+01 -1.350210e+01 -1.388082e+01 -1.447694e+01 -1.504143e+01 -1.571351e+01 -1.628367e+01 -1.668144e+01 -1.693329e+01 -1.667511e+01 -1.659739e+01 -1.646481e+01 -1.659739e+01 -1.667511e+01 -1.693329e+01 -1.668144e+01 -1.628367e+01 -1.571351e+01 -1.504143e+01 -1.447694e+01 -1.388082e+01 -1.350210e+01 -1.309745e+01 -1.289254e+01 -1.265817e+01 -1.257269e+01 -1.246540e+01 
-1.235127e+01 -1.234479e+01 -1.246010e+01 -1.255345e+01 -1.281415e+01 -1.303794e+01 -1.350032e+01 -1.392339e+01 -1.461934e+01 -1.528455e+01 -1.611574e+01 -1.688913e+01 -1.747424e+01 -1.812108e+01 -1.810573e+01 -1.785891e+01 -1.770730e+01 -1.785891e+01 -1.810573e+01 -1.812108e+01 -1.747424e+01 -1.688913e+01 -1.611574e+01 -1.528455e+01 -1.461934e+01 -1.392339e+01 -1.350032e+01 -1.303794e+01 -1.281415e+01 -1.255345e+01 -1.246010e+01 -1.234479e+01 
-1.211126e+01 -1.212113e+01 -1.222489e+01 -1.233088e+01 -1.259137e+01 -1.281882e+01 -1.330219e+01 -1.372347e+01 -1.446570e+01 -1.512839e+01 -1.603992e+01 -1.674000e+01 -1.734811e+01 -1.760297e+01 -1.714998e+01 -1.762015e+01 -1.793741e+01 -1.762015e+01 -1.714998e+01 -1.760297e+01 -1.734811e+01 -1.674000e+01 -1.603992e+01 -1.512839e+01 -1.446570e+01 -1.372347e+01 -1.330219e+01 -1.281882e+01 -1.259137e+01 -1.233088e+01 -1.222489e+01 -1.212113e+01 
-1.187475e+01 -1.189120e+01 -1.199440e+01 -1.210020e+01 -1.236651e+01 -1.257423e+01 -1.308503e+01 -1.348372e+01 -1.431049e+01 -1.504032e+01 -1.621713e+01 -1.716631e+01 -1.810208e+01 -1.973870e+01 -1.964746e+01 -1.860474e+01 -1.830254e+01 -1.860474e+01 -1.964746e+01 -1.973870e+01 -1.810208e+01 -1.716631e+01 -1.621713e+01 -1.504032e+01 -1.431049e+01 -1.348372e+01 -1.308503e+01 -1.257423e+01 -1.236651e+01 -1.210020e+01 -1.199440e+01 -1.189120e+01 
-1.158502e+01 -1.163105e+01 -1.171130e+01 -1.183402e+01 -1.207938e+01 -1.227011e+01 -1.278461e+01 -1.316318e+01 -1.407330e+01 -1.495196e+01 -1.643839e+01 -1.750283e+01 -1.766946e+01 -1.095478e+01 5.959066e-01 8.290636e+00 1.156919e+01 8.290636e+00 5.959066e-01 -1.095478e+01 -1.766946e+01 -1.750283e+01 -1.643839e+01 -1.495196e+01 -1.407330e+01 -1.316318e+01 -1.278461e+01 -1.227011e+01 -1.207938e+01 -1.183402e+01 -1.171130e+01 -1.163105e+01 
-1.128331e+01 -1.134680e+01 -1.140844e+01 -1.151980e+01 -1.172362e+01 -1.182667e+01 -1.229411e+01 -1.249620e+01 -1.338962e+01 -1.415024e+01 -1.556036e+01 -1.108224e+01 6.251862e+00 2.713107e+01 4.138155e+01 4.852312e+01 5.140852e+01 4.852312e+01 4.138155e+01 2.713107e+01 6.251862e+00 -1.108224e+01 -1.556036e+01 -1.415024e+01 -1.338962e+01 -1.249620e+01 -1.229411e+01 -1.182667e+01 -1.172362e+01 -1.151980e+01 -1.140844e+01 -1.134680e+01 
-1.100494e+01 -1.111990e+01 -1.113353e+01 -1.126457e+01 -1.139586e+01 -1.142417e+01 -1.182637e+01 -1.182596e+01 -1.263514e+01 -1.336690e+01 -9.937126e+00 9.440623e+00 3.668706e+01 5.022187e+01 5.214856e+01 5.256340e+01 5.284919e+01 5.256340e+01 5.214856e+01 5.022187e+01 3.668706e+01 9.440623e+00 -9.937126e+00 -1.336690e+01 -1.263514e+01 -1.182596e+01 -1.182637e+01 -1.142417e+01 -1.139586e+01 -1.126457e+01 -1.113353e+01 -1.111990e+01 
-1.070232e+01 -1.085953e+01 -1.082843e+01 -1.095723e+01 -1.098145e+01 -1.086516e+01 -1.111725e+01 -1.063185e+01 -1.151938e+01 -1.031841e+01 6.680105e+00 3.527731e+01 4.899164e+01 4.979617e+01 4.967295e+01 5.013246e+01 5.076396e+01 5.013246e+01 4.967295e+01 4.979617e+01 4.899164e+01 3.527731e+01 6.680105e+00 -1.031841e+01 -1.151938e+01 -1.063185e+01 -1.111725e+01 -1.086516e+01 -1.098145e+01 -1.095723e+01 -1.082843e+01 -1.085953e+01 
-1.044363e+01 -1.069627e+01 -1.057865e+01 -1.077330e+01 -1.065841e+01 -1.045301e+01 -1.061753e+01 -9.491784e+00 -1.129002e+01 -7.687768e-01 2.695452e+01 4.619825e+01 4.861682e+01 4.950138e+01 5.013215e+01 5.042277e+01 5.093334e+01 5.042277e+01 5.013215e+01 4.950138e+01 4.861682e+01 4.619825e+01 2.695452e+01 -7.687768e-01 -1.129002e+01 -9.491784e+00 -1.061753e+01 -1.045301e+01 -1.065841e+01 -1.077330e+01 -1.057865e+01 -1.069627e+01 
-1.008397e+01 -1.043285e+01 -1.024923e+01 -1.054655e+01 -1.027357e+01 -1.008220e+01 -9.982872e+00 -8.846343e+00 -9.668725e+00 1.182191e+01 4.125489e+01 4.816340e+01 4.823073e+01 4.880854e+01 4.907929e+01 4.914611e+01 4.950427e+01 4.914611e+01 4.907929e+01 4.880854e+01 4.823073e+01 4.816340e+01 4.125489e+01 1.182191e+01 -9.668725e+00 -8.846343e+00 -9.982872e+00 -1.008220e+01 -1.027357e+01 -1.054655e+01 -1.024923e+01 -1.043285e+01 
-9.690179e+00 -1.020268e+01 -9.868688e+00 -1.042711e+01 -9.770299e+00 -1.006120e+01 -8.843274e+00 -9.254564e+00 -5.236993e+00 2.315127e+01 4.685919e+01 4.792494e+01 4.852173e+01 4.876754e+01 4.946028e+01 4.935693e+01 4.983607e+01 4.935693e+01 4.946028e+01 4.876754e+01 4.852173e+01 4.792494e+01 4.685919e+01 2.315127e+01 -5.236993e+00 -9.254564e+00 -8.843274e+00 -1.006120e+01 -9.770299e+00 -1.042711e+01 -9.868688e+00 -1.020268e+01 
-9.089327e+00 -9.734330e+00 -9.309499e+00 -1.012268e+01 -9.172018e+00 -9.778868e+00 -7.235925e+00 -7.872307e+00 -8.111205e-01 3.172177e+01 4.788865e+01 4.684059e+01 4.840493e+01 4.805909e+01 4.891153e+01 4.855996e+01 4.910037e+01 4.855996e+01 4.891153e+01 4.805909e+01 4.840493e+01 4.684059e+01 4.788865e+01 3.172177e+01 -8.111205e-01 -7.872307e+00 -7.235925e+00 -9.778868e+00 -9.172018e+00 -1.012268e+01 -9.309499e+00 -9.734330e+00 
-8.603648e+00 -9.323921e+00 -8.816005e+00 -9.662591e+00 -8.521306e+00 -8.790359e+00 -5.775529e+00 -5.373043e+00 3.462252e+00 3.630496e+01 4.805195e+01 4.673880e+01 4.866373e+01 4.818637e+01 4.926831e+01 4.883195e+01 4.948217e+01 4.883195e+01 4.926831e+01 4.818637e+01 4.866373e+01 4.673880e+01 4.805195e+01 3.630496e+01 3.462252e+00 -5.373043e+00 -5.775529e+00 -8.790359e+00 -8.521306e+00 -9.662591e+00 -8.816005e+00 -9.323921e+00 
-8.197357e+00 -8.927023e+00 -8.388557e+00 -9.207614e+00 -7.966987e+00 -7.890789e+00 -4.551034e+00 -4.218492e+00 5.848472e+00 3.864033e+01 4.830079e+01 4.664637e+01 4.856409e+01 4.786512e+01 4.892497e+01 4.838485e+01 4.904158e+01 4.838485e+01 4.892497e+01 4.786512e+01 4.856409e+01 4.664637e+01 4.830079e+01 3.864033e+01 5.848472e+00 -4.218492e+00 -4.551034e+00 -7.890789e+00 -7.966987e+00 -9.207614e+00 -8.388557e+00 -8.927023e+00 
-8.603648e+00 -9.323921e+00 -8.816005e+00 -9.662591e+00 -8.521306e+00 -8.790359e+00 -5.775529e+00 -5.373043e+00 3.462252e+00 3.630496e+01 4.805195e+01 4.673880e+01 4.866373e+01 4.818637e+01 4.926831e+01 4.883195e+01 4.948217e+01 4.883195e+01 4.926831e+01 4.818637e+01 4.866373e+01 4.673880e+01 4.805195e+01 3.630496e+01 3.462252e+00 -5.373043e+00 -5.775529e+00 -8.790359e+00 -8.521306e+00 -9.662591e+00 -8.816005e+00 -9.323921e+00 
-9.089327e+00 -9.734330e+00 -9.309499e+00 -1.012268e+01 -9.172018e+00 -9.778868e+00 -7.235925e+00 -7.872307e+00 -8.111205e-01 3.172177e+01 4.788865e+01 4.684059e+01 4.840493e+01 4.805909e+01 4.891153e+01 4.855996e+01 4.910037e+01 4.855996e+01 4.891153e+01 4.805909e+01 4.840493e+01 4.684059e+01 4.788865e+01 3.172177e+01 -8.111205e-01 -7.872307e+00 -7.235925e+00 -9.778868e+00 -9.172018e+00 -1.012268e+01 -9.309499e+00 -9.734330e+00 
-9.690179e+00 -1.020268e+01 -9.868688e+00 -1.042711e+01 -9.770299e+00 -1.006120e+01 -8.843274e+00 -9.254564e+00 -5.236993e+00 2.315127e+01 4.685919e+01 4.792494e+01 4.852173e+01 4.876754e+01 4.946028e+01 4.935693e+01 4.983607e+01 4.935693e+01 4.946028e+01 4.876754e+01 4.852173e+01 4.792494e+01 4.685919e+01 2.315127e+01 -5.236993e+00 -9.254564e+00 -8.843274e+00 -1.006120e+01 -9.770299e+00 -1.042711e+01 -9.868688e+00 -1.020268e+01 
-1.008397e+01 -1.043285e+01 -1.024923e+01 -1.054655e+01 -1.027357e+01 -1.008220e+01 -9.982872e+00 -8.846343e+00 -9.668725e+00 1.182191e+01 4.125489e+01 4.816340e+01 4.823073e+01 4.880854e+01 4.907929e+01 4.914611e+01 4.950427e+01 4.914611e+01 4.907929e+01 4.880854e+01 4.823073e+01 4.816340e+01 4.125489e+01 1.182191e+01 -9.668725e+00 -8.846343e+00 -9.982872e+00 -1.008220e+01 -1.027357e+01 -1.054655e+01 -1.024923e+01 -1.043285e+01 
-1.044363e+01 -1.069627e+01 -1.057865e+01 -1.077330e+01 -1.065841e+01 -1.045301e+01 -1.061753e+01 -9.491784e+00 -1.129002e+01 -7.687768e-01 2.695452e+01 4.619825e+01 4.861682e+01 4.950138e+01 5.013215e+01 5.042277e+01 5.093334e+01 5.042277e+01 5.013215e+01 4.950138e+01 4.861682e+01 4.619825e+01 2.695452e+01 -7.687768e-01 -1.129002e+01 -9.491784e+00 -1.061753e+01 -1.045301e+01 -1.065841e+01 -1.077330e+01 -1.057865e+01 -1.069627e+01 
-1.070232e+01 -1.085953e+01 -1.082843e+01 -1.095723e+01 -1.098145e+01 -1.086516e+01 -1.111725e+01 -1.063185e+01 -1.151938e+01 -1.031841e+01 6.680105e+00 3.527731e+01 4.899164e+01 4.979617e+01 4.967295e+01 5.013246e+01 5.076396e+01 5.013246e+01 4.967295e+01 4.979617e+01 4.899164e+01 3.527731e+01 6.680105e+00 -1.031841e+01 -1.151938e+01 -1.063185e+01 -1.111725e+01 -1.086516e+01 -1.098145e+01 -1.095723e+01 -1.082843e+01 -1.085953e+01 
-1.100494e+01 -1.111990e+01 -1.113353e+01 -1.126457e+01 -1.139586e+01 -1.142417e+01 -1.182637e+01 -1.182596e+01 -1.263514e+01 -1.336690e+01 -9.937126e+00 9.440623e+00 3.668706e+01 5.022187e+01 5.214856e+01 5.256340e+01 5.284919e+01 5.256340e+01 5.214856e+01 5.022187e+01 3.668706e+01 9.440623e+00 -9.937126e+00 -1.336690e+01 -1.263514e+01 -1.182596e+01 -1.182637e+01 -1.142417e+01 -1.139586e+01 -1.126457e+01 -1.113353e+01 -1.111990e+01 
-1.128331e+01 -1.134680e+01 -1.140844e+01 -1.151980e+01 -1.172362e+01 -1.182667e+01 -1.229411e+01 -1.249620e+01 -1.338962e+01 -1.415024e+01 -1.556036e+01 -1.108224e+01 6.251862e+00 2.713107e+01 4.138155e+01 4.852312e+01 5.140852e+01 4.852312e+01 4.138155e+01 2.713107e+01 6.251862e+00 -1.108224e+01 -1.556036e+01 -1.415024e+01 -1.338962e+01 -1.249620e+01 -1.229411e+01 -1.182667e+01 -1.172362e+01 -1.151980e+01 -1.140844e+01 -1.134680e+01 
-1.158502e+01 -1.163105e+01 -1.171130e+01 -1.183402e+01 -1.207938e+01 -1.227011e+01 -1.278461e+01 -1.316318e+01 -1.407330e+01 -1.495196e+01 -1.643839e+01 -1.750283e+01 -1.766946e+01 -1.095478e+01 5.959066e-01 8.290636e+00 1.156919e+01 8.290636e+00 5.959066e-01 -1.095478e+01 -1.766946e+01 -1.750283e+01 -1.643839e+01 -1.495196e+01 -1.407330e+01 -1.316318e+01 -1.278461e+01 -1.227011e+01 -1.207938e+01 -1.183402e+01 -1.171130e+01 -1.163105e+01 
-1.187475e+01 -1.189120e+01 -1.199440e+01 -1.210020e+01 -1.236651e+01 -1.257423e+01 -1.308503e+01 -1.348372e+01 -1.431049e+01 -1.504032e+01 -1.621713e+01 -1.716631e+01 -1.810208e+01 -1.973870e+01 -1.964746e+01 -1.860474e+01 -1.830254e+01 -1.860474e+01 -1.964746e+01 -1.973870e+01 -1.810208e+01 -1.716631e+01 -1.621713e+01 -1.504032e+01 -1.431049e+01 -1.348372e+01 -1.308503e+01 -1.257423e+01 -1.236651e+01 -1.210020e+01 -1.199440e+01 -1.189120e+01 
-1.211126e+01 -1.212113e+01 -1.222489e+01 -1.233088e+01 -1.259137e+01 -1.281882e+01 -1.330219e+01 -1.372347e+01 -1.446570e+01 -1.512839e+01 -1.603992e+01 -1.674000e+01 -1.734811e+01 -1.760297e+01 -1.714998e+01 -1.762015e+01 -1.793741e+01 -1.762015e+01 -1.714998e+01 -1.760297e+01 -1.734811e+01 -1.674000e+01 -1.603992e+01 -1.512839e+01 -1.446570e+01 -1.372347e+01 -1.330219e+01 -1.281882e+01 -1.259137e+01 -1.233088e+01 -1.222489e+01 -1.212113e+01 
-1.235127e+01 -1.234479e+01 -1.246010e+01 -1.255345e+01 -1.281415e+01 -1.303794e+01 -1.350032e+01 -1.392339e+01 -1.461934e+01 -1.528455e+01 -1.611574e+01 -1.688913e+01 -1.747424e+01 -1.812108e+01 -1.810573e+01 -1.785891e+01 -1.770730e+01 -1.785891e+01 -1.810573e+01 -1.812108e+01 -1.747424e+01 -1.688913e+01 -1.611574e+01 -1.528455e+01 -1.461934e+01 -1.392339e+01 -1.350032e+01 -1.303794e+01 -1.281415e+01 -1.255345e+01 -1.246010e+01 -1.234479e+01 
-1.247347e+01 -1.246540e+01 -1.257269e+01 -1.265817e+01 -1.289254e+01 -1.309745e+01 -1.350210e+01 -1.388082e+01 -1.447694e+01 -1.504143e+01 -1.571351e+01 -1.628367e+01 -1.668144e+01 -1.693329e+01 -1.667511e+01 -1.659739e+01 -1.646481e+01 -1.659739e+01 -1.667511e+01 -1.693329e+01 -1.668144e+01 -1.628367e+01 -1.571351e+01 -1.504143e+01 -1.447694e+01 -1.388082e+01 -1.350210e+01 -1.309745e+01 -1.289254e+01 -1.265817e+01 -1.257269e+01 -1.246540e+01 
-1.263451e+01 -1.261805e+01 -1.273355e+01 -1.281364e+01 -1.304796e+01 -1.324889e+01 -1.363750e+01 -1.401331e+01 -1.457938e+01 -1.514754e+01 -1.578223e+01 -1.636526e+01 -1.673305e+01 -1.697717e+01 -1.678617e+01 -1.649369e+01 -1.629774e+01 -1.649369e+01 -1.678617e+01 -1.697717e+01 -1.673305e+01 -1.636526e+01 -1.578223e+01 -1.514754e+01 -1.457938e+01 -1.401331e+01 -1.363750e+01 -1.324889e+01 -1.304796e+01 -1.281364e+01 -1.273355e+01 -1.261805e+01 
-1.264497e+01 -1.262955e+01 -1.273473e+01 -1.280595e+01 -1.301427e+01 -1.318854e+01 -1.352544e+01 -1.384465e+01 -1.432641e+01 -1.479558e+01 -1.531164e+01 -1.574371e+01 -1.595940e+01 -1.600240e+01 -1.561284e+01 -1.525986e+01 -1.499076e+01 -1.525986e+01 -1.561284e+01 -1.600240e+01 -1.595940e+01 -1.574371e+01 -1.531164e+01 -1.479558e+01 -1.432641e+01 -1.384465e+01 -1.352544e+01 -1.318854e+01 -1.301427e+01 -1.280595e+01 -1.273473e+01 -1.262955e+01 
