# vtk DataFile Version 2.0
Comment goes here
ASCII

DATASET STRUCTURED_POINTS
FIELD FieldData 1
TIME 1 1 double
0.92000000
DIMENSIONS    32   32   1

ORIGIN    0.000   0.000   0.000
SPACING   0.03125 0.03125   1.000

POINT_DATA   1024
SCALARS P double
LOOKUP_TABLE default

-1.136254e+01 -1.136501e+01 -1.138121e+01 -1.139284e+01 -1.144672e+01 -1.148126e+01 -1.160966e+01 -1.171421e+01 -1.194324e+01 -1.212281e+01 -1.235148e+01 -1.242929e+01 -1.238814e+01 -1.206905e+01 -1.159331e+01 -1.096910e+01 -1.071473e+01 -1.096910e+01 -1.159331e+01 -1.206905e+01 -1.238814e+01 -1.242929e+01 -1.235148e+01 -1.212281e+01 -1.194324e+01 -1.171421e+01 -1.160966e+01 -1.148126e+01 -1.144672e+01 -1.139284e+01 -1.138121e+01 -1.136501e+01 
-1.134501e+01 -1.134863e+01 -1.136853e+01 -1.138619e+01 -1.145088e+01 -1.149779e+01 -1.164620e+01 -1.176839e+01 -1.202435e+01 -1.222188e+01 -1.247885e+01 -1.257553e+01 -1.255865e+01 -1.227450e+01 -1.180881e+01 -1.117484e+01 -1.093595e+01 -1.117484e+01 -1.180881e+01 -1.227450e+01 -1.255865e+01 -1.257553e+01 -1.247885e+01 -1.222188e+01 -1.202435e+01 -1.176839e+01 -1.164620e+01 -1.149779e+01 -1.145088e+01 -1.138619e+01 -1.136853e+01 -1.134863e+01 
-1.134833e+01 -1.135810e+01 -1.137406e+01 -1.139836e+01 -1.146658e+01 -1.152222e+01 -1.168577e+01 -1.182114e+01 -1.210086e+01 -1.232187e+01 -1.260670e+01 -1.275355e+01 -1.278892e+01 -1.258691e+01 -1.225196e+01 -1.174260e+01 -1.154748e+01 -1.174260e+01 -1.225196e+01 -1.258691e+01 -1.278892e+01 -1.275355e+01 -1.260670e+01 -1.232187e+01 -1.210086e+01 -1.182114e+01 -1.168577e+01 -1.152222e+01 -1.146658e+01 -1.139836e+01 -1.137406e+01 -1.135810e+01 
-1.130468e+01 -1.132304e+01 -1.134086e+01 -1.138196e+01 -1.147031e+01 -1.155362e+01 -1.176289e+01 -1.193678e+01 -1.228329e+01 -1.254763e+01 -1.290797e+01 -1.310505e+01 -1.320864e+01 -1.313434e+01 -1.281189e+01 -1.227022e+01 -1.210265e+01 -1.227022e+01 -1.281189e+01 -1.313434e+01 -1.320864e+01 -1.310505e+01 -1.290797e+01 -1.254763e+01 -1.228329e+01 -1.193678e+01 -1.176289e+01 -1.155362e+01 -1.147031e+01 -1.138196e+01 -1.134086e+01 -1.132304e+01 
-1.128793e+01 -1.132263e+01 -1.133547e+01 -1.139712e+01 -1.149674e+01 -1.159654e+01 -1.183294e+01 -1.200870e+01 -1.237894e+01 -1.262902e+01 -1.297872e+01 -1.318056e+01 -1.323776e+01 -1.316934e+01 -1.306169e+01 -1.280507e+01 -1.271496e+01 -1.280507e+01 -1.306169e+01 -1.316934e+01 -1.323776e+01 -1.318056e+01 -1.297872e+01 -1.262902e+01 -1.237894e+01 -1.200870e+01 -1.183294e+01 -1.159654e+01 -1.149674e+01 -1.139712e+01 -1.133547e+01 -1.132263e+01 
-1.120419e+01 -1.125771e+01 -1.126649e+01 -1.135282e+01 -1.146681e+01 -1.159016e+01 -1.186900e+01 -1.207095e+01 -1.252022e+01 -1.280830e+01 -1.328966e+01 -1.349573e+01 -1.367993e+01 -1.384106e+01 -1.333107e+01 -1.255451e+01 -1.239718e+01 -1.255451e+01 -1.333107e+01 -1.384106e+01 -1.367993e+01 -1.349573e+01 -1.328966e+01 -1.280830e+01 -1.252022e+01 -1.207095e+01 -1.186900e+01 -1.159016e+01 -1.146681e+01 -1.135282e+01 -1.126649e+01 -1.125771e+01 
-1.117109e+01 -1.125716e+01 -1.125648e+01 -1.138111e+01 -1.150423e+01 -1.164320e+01 -1.195365e+01 -1.212787e+01 -1.262056e+01 -1.283974e+01 -1.329733e+01 -1.343881e+01 -1.316102e+01 -1.291499e+01 -1.301558e+01 -1.311352e+01 -1.317144e+01 -1.311352e+01 -1.301558e+01 -1.291499e+01 -1.316102e+01 -1.343881e+01 -1.329733e+01 -1.283974e+01 -1.262056e+01 -1.212787e+01 -1.195365e+01 -1.164320e+01 -1.150423e+01 -1.138111e+01 -1.125648e+01 -1.125716e+01 
-1.106697e+01 -1.118668e+01 -1.116750e+01 -1.131938e+01 -1.142784e+01 -1.156269e+01 -1.188480e+01 -1.205420e+01 -1.264953e+01 -1.299644e+01 -1.387959e+01 -1.390113e+01 -1.449398e+01 -1.540221e+01 -1.324736e+01 -1.036307e+01 -9.799456e+00 -1.036307e+01 -1.324736e+01 -1.540221e+01 -1.449398e+01 -1.390113e+01 -1.387959e+01 -1.299644e+01 -1.264953e+01 -1.205420e+01 -1.188480e+01 -1.156269e+01 -1.142784e+01 -1.131938e+01 -1.116750e+01 -1.118668e+01 
-1.103899e+01 -1.121562e+01 -1.117077e+01 -1.138345e+01 -1.147984e+01 -1.163543e+01 -1.200348e+01 -1.212698e+01 -1.293299e+01 -1.321658e+01 -1.435243e+01 -1.426844e+01 -7.686842e+00 2.990886e+00 1.375472e+01 2.190717e+01 2.364208e+01 2.190717e+01 1.375472e+01 2.990886e+00 -7.686842e+00 -1.426844e+01 -1.435243e+01 -1.321658e+01 -1.293299e+01 -1.212698e+01 -1.200348e+01 -1.163543e+01 -1.147984e+01 -1.138345e+01 -1.117077e+01 -1.121562e+01 
-1.095009e+01 -1.118463e+01 -1.109281e+01 -1.133369e+01 -1.135742e+01 -1.144990e+01 -1.174906e+01 -1.173994e+01 -1.248905e+01 -1.315846e+01 -1.207541e+01 -2.643382e+00 1.947027e+01 3.825696e+01 4.563823e+01 4.923672e+01 5.007058e+01 4.923672e+01 4.563823e+01 3.825696e+01 1.947027e+01 -2.643382e+00 -1.207541e+01 -1.315846e+01 -1.248905e+01 -1.173994e+01 -1.174906e+01 -1.144990e+01 -1.135742e+01 -1.133369e+01 -1.109281e+01 -1.118463e+01 
-1.090628e+01 -1.123342e+01 -1.107867e+01 -1.141377e+01 -1.135655e+01 -1.150308e+01 -1.180542e+01 -1.170485e+01 -1.307760e+01 -1.225308e+01 4.117464e-01 2.553379e+01 4.360058e+01 4.987651e+01 4.957963e+01 4.880174e+01 4.924720e+01 4.880174e+01 4.957963e+01 4.987651e+01 4.360058e+01 2.553379e+01 4.117464e-01 -1.225308e+01 -1.307760e+01 -1.170485e+01 -1.180542e+01 -1.150308e+01 -1.135655e+01 -1.141377e+01 -1.107867e+01 -1.123342e+01 
-1.079745e+01 -1.123299e+01 -1.098945e+01 -1.140330e+01 -1.120850e+01 -1.126235e+01 -1.146613e+01 -1.061366e+01 -1.271806e+01 -4.302851e+00 2.146199e+01 4.476227e+01 4.819404e+01 4.817131e+01 4.870521e+01 4.881268e+01 4.929926e+01 4.881268e+01 4.870521e+01 4.817131e+01 4.819404e+01 4.476227e+01 2.146199e+01 -4.302851e+00 -1.271806e+01 -1.061366e+01 -1.146613e+01 -1.126235e+01 -1.120850e+01 -1.140330e+01 -1.098945e+01 -1.123299e+01 
-1.059965e+01 -1.117520e+01 -1.082589e+01 -1.141318e+01 -1.101453e+01 -1.127541e+01 -1.112024e+01 -1.087338e+01 -1.105791e+01 1.129569e+01 3.939857e+01 4.760520e+01 4.789679e+01 4.841406e+01 4.874655e+01 4.848563e+01 4.892522e+01 4.848563e+01 4.874655e+01 4.841406e+01 4.789679e+01 4.760520e+01 3.939857e+01 1.129569e+01 -1.105791e+01 -1.087338e+01 -1.112024e+01 -1.127541e+01 -1.101453e+01 -1.141318e+01 -1.082589e+01 -1.117520e+01 
-1.029748e+01 -1.105467e+01 -1.054302e+01 -1.140753e+01 -1.061951e+01 -1.139812e+01 -1.032548e+01 -1.164503e+01 -6.647434e+00 2.437963e+01 4.705417e+01 4.749991e+01 4.854012e+01 4.806060e+01 4.887476e+01 4.841325e+01 4.906293e+01 4.841325e+01 4.887476e+01 4.806060e+01 4.854012e+01 4.749991e+01 4.705417e+01 2.437963e+01 -6.647434e+00 -1.164503e+01 -1.032548e+01 -1.139812e+01 -1.061951e+01 -1.140753e+01 -1.054302e+01 -1.105467e+01 
-9.777168e+00 -1.067430e+01 -1.002363e+01 -1.111373e+01 -9.908726e+00 -1.103588e+01 -8.547136e+00 -9.810423e+00 7.318718e-01 3.495252e+01 4.831264e+01 4.691547e+01 4.848623e+01 4.786872e+01 4.877026e+01 4.817720e+01 4.884921e+01 4.817720e+01 4.877026e+01 4.786872e+01 4.848623e+01 4.691547e+01 4.831264e+01 3.495252e+01 7.318718e-01 -9.810423e+00 -8.547136e+00 -1.103588e+01 -9.908726e+00 -1.111373e+01 -1.002363e+01 -1.067430e+01 
-9.373036e+00 -1.036499e+01 -9.623971e+00 -1.077963e+01 -9.403561e+00 -1.022225e+01 -7.328544e+00 -7.285321e+00 6.407834e+00 4.237764e+01 4.942777e+01 4.747052e+01 4.907359e+01 4.801266e+01 4.909541e+01 4.828596e+01 4.912122e+01 4.828596e+01 4.909541e+01 4.801266e+01 4.907359e+01 4.747052e+01 4.942777e+01 4.237764e+01 6.407834e+00 -7.285321e+00 -7.328544e+00 -1.022225e+01 -9.403561e+00 -1.077963e+01 -9.623971e+00 -1.036499e+01 
-9.061398e+00 -1.002828e+01 -9.272093e+00 -1.029197e+01 -8.898703e+00 -9.128131e+00 -6.276329e+00 -5.760304e+00 8.520486e+00 4.331373e+01 4.926264e+01 4.716099e+01 4.883869e+01 4.782898e+01 4.887996e+01 4.811202e+01 4.889232e+01 4.811202e+01 4.887996e+01 4.782898e+01 4.883869e+01 4.716099e+01 4.926264e+01 4.331373e+01 8.520486e+00 -5.760304e+00 -6.276329e+00 -9.128131e+00 -8.898703e+00 -1.029197e+01 -9.272093e+00 -1.002828e+01 
-9.373036e+00 -1.036499e+01 -9.623971e+00 -1.077963e+01 -9.403561e+00 -1.022225e+01 -7.328544e+00 -7.285321e+00 6.407834e+00 4.237764e+01 4.942777e+01 4.747052e+01 4.907359e+01 4.801266e+01 4.909541e+01 4.828596e+01 4.912122e+01 4.828596e+01 4.909541e+01 4.801266e+01 4.907359e+01 4.747052e+01 4.942777e+01 4.237764e+01 6.407834e+00 -7.285321e+00 -7.328544e+00 -1.022225e+01 -9.403561e+00 -1.077963e+01 -9.623971e+00 -1.036499e+01 
-9.777168e+00 -1.067430e+01 -1.002363e+01 -1.111373e+01 -9.908726e+00 -1.103588e+01 -8.547136e+00 -9.810423e+00 7.318718e-01 3.495252e+01 4.831264e+01 4.691547e+01 4.848623e+01 4.786872e+01 4.877026e+01 4.817720e+01 4.884921e+01 4.817720e+01 4.877026e+01 4.786872e+01 4.848623e+01 4.691547e+01 4.831264e+01 3.495252e+01 7.318718e-01 -9.810423e+00 -8.547136e+00 -1.103588e+01 -9.908726e+00 -1.111373e+01 -1.002363e+01 -1.067430e+01 
-1.029748e+01 -1.105467e+01 -1.054302e+01 -1.140753e+01 -1.061951e+01 -1.139812e+01 -1.032548e+01 -1.164503e+01 -6.647434e+00 2.437963e+01 4.705417e+01 4.749991e+01 4.854012e+01 4.806060e+01 4.887476e+01 4.841325e+01 4.906293e+01 4.841325e+01 4.887476e+01 4.806060e+01 4.854012e+01 4.749991e+01 4.705417e+01 2.437963e+01 -6.647434e+00 -1.164503e+01 -1.032548e+01 -1.139812e+01 -1.061951e+01 -1.140753e+01 -1.054302e+01 -1.105467e+01 
-1.059965e+01 -1.117520e+01 -1.082589e+01 -1.141318e+01 -1.101453e+01 -1.127541e+01 -1.112024e+01 -1.087338e+01 -1.105791e+01 1.129569e+01 3.939857e+01 4.760520e+01 4.789679e+01 4.841406e+01 4.874655e+01 4.848563e+01 4.892522e+01 4.848563e+01 4.874655e+01 4.841406e+01 4.789679e+01 4.760520e+01 3.939857e+01 1.129569e+01 -1.105791e+01 -1.087338e+01 -1.112024e+01 -1.127541e+01 -1.101453e+01 -1.141318e+01 -1.082589e+01 -1.117520e+01 
-1.079745e+01 -1.123299e+01 -1.098945e+01 -1.140330e+01 -1.120850e+01 -1.126235e+01 -1.146613e+01 -1.061366e+01 -1.271806e+01 -4.302851e+00 2.146199e+01 4.476227e+01 4.819404e+01 4.817131e+01 4.870521e+01 4.881268e+01 4.929926e+01 4.881268e+01 4.870521e+01 4.817131e+01 4.819404e+01 4.476227e+01 2.146199e+01 -4.302851e+00 -1.271806e+01 -1.061366e+01 -1.146613e+01 -1.126235e+01 -1.120850e+01 -1.140330e+01 -1.098945e+01 -1.123299e+01 
-1.090628e+01 -1.123342e+01 -1.107867e+01 -1.141377e+01 -1.135655e+01 -1.150308e+01 -1.180542e+01 -1.170485e+01 -1.307760e+01 -1.225308e+01 4.117464e-01 2.553379e+01 4.360058e+01 4.987651e+01 4.957963e+01 4.880174e+01 4.924720e+01 4.880174e+01 4.957963e+01 4.987651e+01 4.360058e+01 2.553379e+01 4.117464e-01 -1.225308e+01 -1.307760e+01 -1.170485e+01 -1.180542e+01 -1.150308e+01 -1.135655e+01 -1.141377e+01 -1.107867e+01 -1.123342e+01 
-1.095009e+01 -1.118463e+01 -1.109281e+01 -1.133369e+01 -1.135742e+01 -1.144990e+01 -1.174906e+01 -1.173994e+01 -1.248905e+01 -1.315846e+01 -1.207541e+01 -2.643382e+00 1.947027e+01 3.825696e+01 4.563823e+01 4.923672e+01 5.007058e+01 4.923672e+01 4.563823e+01 3.825696e+01 1.947027e+01 -2.643382e+00 -1.207541e+01 -1.315846e+01 -1.248905e+01 -1.173994e+01 -1.174906e+01 -1.144990e+01 -1.135742e+01 -1.133369e+01 -1.109281e+01 -1.118463e+01 
-1.103899e+01 -1.121562e+01 -1.117077e+01 -1.138345e+01 -1.147984e+01 -1.163543e+01 -1.200348e+01 -1.212698e+01 -1.293299e+01 -1.321658e+01 -1.435243e+01 -1.426844e+01 -7.686842e+00 2.990886e+00 1.375472e+01 2.190717e+01 2.364208e+01 2.190717e+01 1.375472e+01 2.990886e+00 -7.686842e+00 -1.426844e+01 -1.435243e+01 -1.321658e+01 -1.293299e+01 -1.212698e+01 -1.200348e+01 -1.163543e+01 -1.147984e+01 -1.138345e+01 -1.117077e+01 -1.121562e+01 
-1.106697e+01 -1.118668e+01 -1.116750e+01 -1.131938e+01 -1.142784e+01 -1.156269e+01 -1.188480e+01 -1.205420e+01 -1.264953e+01 -1.299644e+01 -1.387959e+01 -1.390113e+01 -1.449398e+01 -1.540221e+01 -1.324736e+01 -1.036307e+01 -9.799456e+00 -1.036307e+01 -1.324736e+01 -1.540221e+01 -1.449398e+01 -1.390113e+01 -1.387959e+01 -1.299644e+01 -1.264953e+01 -1.205420e+01 -1.188480e+01 -1.156269e+01 -1.142784e+01 -1.131938e+01 -1.116750e+01 -1.118668e+01 
-1.117109e+01 -1.125716e+01 -1.125648e+01 -1.138111e+01 -1.150423e+01 -1.164320e+01 -1.195365e+01 -1.212787e+01 -1.262056e+01 -1.283974e+01 -1.329733e+01 -1.343881e+01 -1.316102e+01 -1.291499e+01 -1.301558e+01 -1.311352e+01 -1.317144e+01 -1.311352e+01 -1.301558e+01 -1.291499e+01 -1.316102e+01 -1.343881e+01 -1.329733e+01 -1.283974e+01 -1.262056e+01 -1.212787e+01 -1.195365e+01 -1.164320e+01 -1.150423e+01 -1.138111e+01 -1.125648e+01 -1.125716e+01 
-1.120419e+01 -1.125771e+01 -1.126649e+01 -1.135282e+01 -1.146681e+01 -1.159016e+01 -1.186900e+01 -1.207095e+01 -1.252022e+01 -1.280830e+01 -1.328966e+01 -1.349573e+01 -1.367993e+01 -1.384106e+01 -1.333107e+01 -1.255451e+01 -1.239718e+01 -1.255451e+01 -1.333107e+01 -1.384106e+01 -1.367993e+01 -1.349573e+01 -1.328966e+01 -1.280830e+01 -1.252022e+01 -1.207095e+01 -1.186900e+01 -1.159016e+01 -1.146681e+01 -1.135282e+01 -1.126649e+01 -1.125771e+01 
-1.128793e+01 -1.132263e+01 -1.133547e+01 -1.139712e+01 -1.149674e+01 -1.159654e+01 -1.183294e+01 -1.200870e+01 -1.237894e+01 -1.262902e+01 -1.297872e+01 -1.318056e+01 -1.323776e+01 -1.316934e+01 -1.306169e+01 -1.280507e+01 -1.271496e+01 -1.280507e+01 -1.306169e+01 -1.316934e+01 -1.323776e+01 -1.318056e+01 -1.297872e+01 -1.262902e+01 -1.237894e+01 -1.200870e+01 -1.183294e+01 -1.159654e+01 -1.149674e+01 -1.139712e+01 -1.133547e+01 -1.132263e+01 
-1.130468e+01 -1.132304e+01 -1.134086e+01 -1.138196e+01 -1.147031e+01 -1.155362e+01 -1.176289e+01 -1.193678e+01 -1.228329e+01 -1.254763e+01 -1.290797e+01 -1.310505e+01 -1.320864e+01 -1.313434e+01 -1.281189e+01 -1.227022e+01 -1.210265e+01 -1.227022e+01 -1.281189e+01 -1.313434e+01 -1.320864e+01 -1.310505e+01 -1.290797e+01 -1.254763e+01 -1.228329e+01 -1.193678e+01 -1.176289e+01 -1.155362e+01 -1.147031e+01 -1.138196e+01 -1.134086e+01 -1.132304e+01 
-1.134833e+01 -1.135810e+01 -1.137406e+01 -1.139836e+01 -1.146658e+01 -1.152222e+01 -1.168577e+01 -1.182114e+01 -1.210086e+01 -1.232187e+01 -1.260670e+01 -1.275355e+01 -1.278892e+01 -1.258691e+01 -1.225196e+01 -1.174260e+01 -1.154748e+01 -1.174260e+01 -1.225196e+01 -1.258691e+01 -1.278892e+01 -1.275355e+01 -1.260670e+01 -1.232187e+01 -1.210086e+01 -1.182114e+01 -1.168577e+01 -1.152222e+01 -1.146658e+01 -1.139836e+01 -1.137406e+01 -1.135810e+01 
-1.134501e+01 -1.134863e+01 -1.136853e+01 -1.138619e+01 -1.145088e+01 -1.149779e+01 -1.164620e+01 -1.176839e+01 -1.202435e+01 -1.222188e+01 -1.247885e+01 -1.257553e+01 -1.255865e+01 -1.227450e+01 -1.180881e+01 -1.117484e+01 -1.093595e+01 -1.117484e+01 -1.180881e+01 -1.227450e+01 -1.255865e+01 -1.257553e+01 -1.247885e+01 -1.222188e+01 -1.202435e+01 -1.176839e+01 -1.164620e+01 -1.149779e+01 -1.145088e+01 -1.138619e+01 -1.136853e+01 -1.134863e+01 
