# vtk DataFile Version 2.0
Comment goes here
ASCII

DATASET STRUCTURED_POINTS
FIELD FieldData 1
TIME 1 1 double
0.26000000
DIMENSIONS    32   32   1

ORIGIN    0.000   0.000   0.000
SPACING   0.03125 0.03125   1.000

POINT_DATA   1024
SCALARS P double
LOOKUP_TABLE default

-1.738430e+01 -1.735603e+01 -1.706020e+01 -1.671327e+01 -1.610925e+01 -1.546717e+01 -1.460458e+01 -1.372402e+01 -1.269686e+01 -1.169130e+01 -1.063454e+01 -9.667101e+00 -8.723069e+00 -7.978329e+00 -7.235223e+00 -6.717864e+00 -6.132678e+00 -6.717864e+00 -7.235223e+00 -7.978329e+00 -8.723069e+00 -9.667101e+00 -1.063454e+01 -1.169130e+01 -1.269686e+01 -1.372402e+01 -1.460458e+01 -1.546717e+01 -1.610925e+01 -1.671327e+01 -1.706020e+01 -1.735603e+01 
-1.739853e+01 -1.733107e+01 -1.706795e+01 -1.667933e+01 -1.609625e+01 -1.541086e+01 -1.455366e+01 -1.362701e+01 -1.259112e+01 -1.154029e+01 -1.047175e+01 -9.477976e+00 -8.552466e+00 -7.812421e+00 -7.136679e+00 -6.632091e+00 -6.118869e+00 -6.632091e+00 -7.136679e+00 -7.812421e+00 -8.552466e+00 -9.477976e+00 -1.047175e+01 -1.154029e+01 -1.259112e+01 -1.362701e+01 -1.455366e+01 -1.541086e+01 -1.609625e+01 -1.667933e+01 -1.706795e+01 -1.733107e+01 
-1.772056e+01 -1.768930e+01 -1.738591e+01 -1.702682e+01 -1.639754e+01 -1.572570e+01 -1.481442e+01 -1.387519e+01 -1.277926e+01 -1.169239e+01 -1.056774e+01 -9.516897e+00 -8.534896e+00 -7.777467e+00 -7.144031e+00 -6.660504e+00 -6.201245e+00 -6.660504e+00 -7.144031e+00 -7.777467e+00 -8.534896e+00 -9.516897e+00 -1.056774e+01 -1.169239e+01 -1.277926e+01 -1.387519e+01 -1.481442e+01 -1.572570e+01 -1.639754e+01 -1.702682e+01 -1.738591e+01 -1.768930e+01 
-1.808405e+01 -1.800694e+01 -1.773408e+01 -1.732062e+01 -1.669084e+01 -1.594710e+01 -1.499049e+01 -1.394207e+01 -1.275662e+01 -1.152428e+01 -1.028717e+01 -9.114665e+00 -8.090591e+00 -7.323412e+00 -6.780593e+00 -6.371131e+00 -5.996099e+00 -6.371131e+00 -6.780593e+00 -7.323412e+00 -8.090591e+00 -9.114665e+00 -1.028717e+01 -1.152428e+01 -1.275662e+01 -1.394207e+01 -1.499049e+01 -1.594710e+01 -1.669084e+01 -1.732062e+01 -1.773408e+01 -1.800694e+01 
-1.875012e+01 -1.870889e+01 -1.839110e+01 -1.800513e+01 -1.730707e+01 -1.655782e+01 -1.549650e+01 -1.437272e+01 -1.304620e+01 -1.169121e+01 -1.033811e+01 -8.976543e+00 -7.742013e+00 -6.784950e+00 -5.994242e+00 -5.560341e+00 -5.056960e+00 -5.560341e+00 -5.994242e+00 -6.784950e+00 -7.742013e+00 -8.976543e+00 -1.033811e+01 -1.169121e+01 -1.304620e+01 -1.437272e+01 -1.549650e+01 -1.655782e+01 -1.730707e+01 -1.800513e+01 -1.839110e+01 -1.870889e+01 
-1.949268e+01 -1.939305e+01 -1.912101e+01 -1.867947e+01 -1.797589e+01 -1.714808e+01 -1.599001e+01 -1.469030e+01 -1.316943e+01 -1.150788e+01 -9.851750e+00 -8.201961e+00 -6.812386e+00 -5.705050e+00 -4.729419e+00 -4.340571e+00 -3.807243e+00 -4.340571e+00 -4.729419e+00 -5.705050e+00 -6.812386e+00 -8.201961e+00 -9.851750e+00 -1.150788e+01 -1.316943e+01 -1.469030e+01 -1.599001e+01 -1.714808e+01 -1.797589e+01 -1.867947e+01 -1.912101e+01 -1.939305e+01 
-2.051850e+01 -2.045521e+01 -2.015165e+01 -1.976477e+01 -1.899071e+01 -1.818283e+01 -1.687588e+01 -1.542298e+01 -1.362974e+01 -1.177912e+01 -1.008474e+01 -8.065556e+00 -6.255947e+00 -4.557635e+00 -2.949354e+00 -2.289282e+00 -1.646038e+00 -2.289282e+00 -2.949354e+00 -4.557635e+00 -6.255947e+00 -8.065556e+00 -1.008474e+01 -1.177912e+01 -1.362974e+01 -1.542298e+01 -1.687588e+01 -1.818283e+01 -1.899071e+01 -1.976477e+01 -2.015165e+01 -2.045521e+01 
-2.166078e+01 -2.151479e+01 -2.131682e+01 -2.090909e+01 -2.017871e+01 -1.937963e+01 -1.794596e+01 -1.629222e+01 -1.422350e+01 -1.178514e+01 -9.355960e+00 -6.720261e+00 -4.850778e+00 -3.064897e+00 -1.332888e+00 -6.879212e-01 -9.471473e-02 -6.879212e-01 -1.332888e+00 -3.064897e+00 -4.850778e+00 -6.720261e+00 -9.355960e+00 -1.178514e+01 -1.422350e+01 -1.629222e+01 -1.794596e+01 -1.937963e+01 -2.017871e+01 -2.090909e+01 -2.131682e+01 -2.151479e+01 
-2.302974e+01 -2.291426e+01 -2.275263e+01 -2.249945e+01 -2.176494e+01 -2.118916e+01 -1.964142e+01 -1.777420e+01 -1.510023e+01 -1.239600e+01 -1.070743e+01 -7.754555e+00 -4.878205e+00 -1.710072e+00 1.673807e+00 3.157018e+00 4.150991e+00 3.157018e+00 1.673807e+00 -1.710072e+00 -4.878205e+00 -7.754555e+00 -1.070743e+01 -1.239600e+01 -1.510023e+01 -1.777420e+01 -1.964142e+01 -2.118916e+01 -2.176494e+01 -2.249945e+01 -2.275263e+01 -2.291426e+01 
-2.452173e+01 -2.427381e+01 -2.437540e+01 -2.420183e+01 -2.372376e+01 -2.361719e+01 -2.207200e+01 -2.017082e+01 -1.736964e+01 -1.326699e+01 -6.399474e+00 2.232178e+00 8.944468e+00 1.460042e+01 1.989806e+01 2.260847e+01 2.353804e+01 2.260847e+01 1.989806e+01 1.460042e+01 8.944468e+00 2.232178e+00 -6.399474e+00 -1.326699e+01 -1.736964e+01 -2.017082e+01 -2.207200e+01 -2.361719e+01 -2.372376e+01 -2.420183e+01 -2.437540e+01 -2.427381e+01 
-2.611085e+01 -2.584883e+01 -2.617796e+01 -2.638476e+01 -2.619507e+01 -2.730936e+01 -2.597555e+01 -2.197527e+01 -9.395502e+00 9.163336e+00 2.419510e+01 3.284432e+01 3.662901e+01 3.811824e+01 3.913190e+01 3.993386e+01 3.983387e+01 3.993386e+01 3.913190e+01 3.811824e+01 3.662901e+01 3.284432e+01 2.419510e+01 9.163336e+00 -9.395502e+00 -2.197527e+01 -2.597555e+01 -2.730936e+01 -2.619507e+01 -2.638476e+01 -2.617796e+01 -2.584883e+01 
-2.774003e+01 -2.723688e+01 -2.813859e+01 -2.853253e+01 -2.929222e+01 -3.220081e+01 -2.731914e+01 -8.556106e+00 2.287121e+01 4.289702e+01 4.786393e+01 4.718420e+01 4.469434e+01 4.307492e+01 4.167433e+01 4.151295e+01 4.116707e+01 4.151295e+01 4.167433e+01 4.307492e+01 4.469434e+01 4.718420e+01 4.786393e+01 4.289702e+01 2.287121e+01 -8.556106e+00 -2.731914e+01 -3.220081e+01 -2.929222e+01 -2.853253e+01 -2.813859e+01 -2.723688e+01 
-2.921117e+01 -2.844753e+01 -2.992629e+01 -3.069303e+01 -3.235453e+01 -3.708081e+01 -1.124623e+01 2.937544e+01 5.206372e+01 5.461639e+01 5.138707e+01 4.838260e+01 4.553344e+01 4.438108e+01 4.336687e+01 4.343792e+01 4.309444e+01 4.343792e+01 4.336687e+01 4.438108e+01 4.553344e+01 4.838260e+01 5.138707e+01 5.461639e+01 5.206372e+01 2.937544e+01 -1.124623e+01 -3.708081e+01 -3.235453e+01 -3.069303e+01 -2.992629e+01 -2.844753e+01 
-3.037933e+01 -2.908002e+01 -3.141412e+01 -3.119590e+01 -3.597545e+01 -3.067353e+01 1.750011e+01 5.637028e+01 5.769829e+01 5.514361e+01 5.222546e+01 5.060152e+01 4.821354e+01 4.708972e+01 4.554624e+01 4.530994e+01 4.472760e+01 4.530994e+01 4.554624e+01 4.708972e+01 4.821354e+01 5.060152e+01 5.222546e+01 5.514361e+01 5.769829e+01 5.637028e+01 1.750011e+01 -3.067353e+01 -3.597545e+01 -3.119590e+01 -3.141412e+01 -2.908002e+01 
-3.104830e+01 -2.877648e+01 -3.220644e+01 -2.936834e+01 -3.651058e+01 -1.175267e+01 4.550912e+01 6.240547e+01 5.792052e+01 5.661943e+01 5.288287e+01 5.151388e+01 4.892116e+01 4.796437e+01 4.639935e+01 4.624872e+01 4.561809e+01 4.624872e+01 4.639935e+01 4.796437e+01 4.892116e+01 5.151388e+01 5.288287e+01 5.661943e+01 5.792052e+01 6.240547e+01 4.550912e+01 -1.175267e+01 -3.651058e+01 -2.936834e+01 -3.220644e+01 -2.877648e+01 
-3.089768e+01 -2.876424e+01 -3.118860e+01 -2.848448e+01 -3.066493e+01 6.600744e+00 6.459269e+01 6.582413e+01 5.986667e+01 5.770881e+01 5.410414e+01 5.285501e+01 5.031202e+01 4.933825e+01 4.762525e+01 4.738453e+01 4.667369e+01 4.738453e+01 4.762525e+01 4.933825e+01 5.031202e+01 5.285501e+01 5.410414e+01 5.770881e+01 5.986667e+01 6.582413e+01 6.459269e+01 6.600744e+00 -3.066493e+01 -2.848448e+01 -3.118860e+01 -2.876424e+01 
-3.038889e+01 -2.852213e+01 -2.990025e+01 -2.824153e+01 -2.653241e+01 1.571530e+01 6.976350e+01 6.658016e+01 6.037361e+01 5.809969e+01 5.415882e+01 5.286618e+01 5.017073e+01 4.923147e+01 4.748759e+01 4.728979e+01 4.656665e+01 4.728979e+01 4.748759e+01 4.923147e+01 5.017073e+01 5.286618e+01 5.415882e+01 5.809969e+01 6.037361e+01 6.658016e+01 6.976350e+01 1.571530e+01 -2.653241e+01 -2.824153e+01 -2.990025e+01 -2.852213e+01 
-3.089768e+01 -2.876424e+01 -3.118860e+01 -2.848448e+01 -3.066493e+01 6.600744e+00 6.459269e+01 6.582413e+01 5.986667e+01 5.770881e+01 5.410414e+01 5.285501e+01 5.031202e+01 4.933825e+01 4.762525e+01 4.738453e+01 4.667369e+01 4.738453e+01 4.762525e+01 4.933825e+01 5.031202e+01 5.285501e+01 5.410414e+01 5.770881e+01 5.986667e+01 6.582413e+01 6.459269e+01 6.600744e+00 -3.066493e+01 -2.848448e+01 -3.118860e+01 -2.876424e+01 
-3.104830e+01 -2.877648e+01 -3.220644e+01 -2.936834e+01 -3.651058e+01 -1.175267e+01 4.550912e+01 6.240547e+01 5.792052e+01 5.661943e+01 5.288287e+01 5.151388e+01 4.892116e+01 4.796437e+01 4.639935e+01 4.624872e+01 4.561809e+01 4.624872e+01 4.639935e+01 4.796437e+01 4.892116e+01 5.151388e+01 5.288287e+01 5.661943e+01 5.792052e+01 6.240547e+01 4.550912e+01 -1.175267e+01 -3.651058e+01 -2.936834e+01 -3.220644e+01 -2.877648e+01 
-3.037933e+01 -2.908002e+01 -3.141412e+01 -3.119590e+01 -3.597545e+01 -3.067353e+01 1.750011e+01 5.637028e+01 5.769829e+01 5.514361e+01 5.222546e+01 5.060152e+01 4.821354e+01 4.708972e+01 4.554624e+01 4.530994e+01 4.472760e+01 4.530994e+01 4.554624e+01 4.708972e+01 4.821354e+01 5.060152e+01 5.222546e+01 5.514361e+01 5.769829e+01 5.637028e+01 1.750011e+01 -3.067353e+01 -3.597545e+01 -3.119590e+01 -3.141412e+01 -2.908002e+01 
-2.921117e+01 -2.844753e+01 -2.992629e+01 -3.069303e+01 -3.235453e+01 -3.708081e+01 -1.124623e+01 2.937544e+01 5.206372e+01 5.461639e+01 5.138707e+01 4.838260e+01 4.553344e+01 4.438108e+01 4.336687e+01 4.343792e+01 4.309444e+01 4.343792e+01 4.336687e+01 4.438108e+01 4.553344e+01 4.838260e+01 5.138707e+01 5.461639e+01 5.206372e+01 2.937544e+01 -1.124623e+01 -3.708081e+01 -3.235453e+01 -3.069303e+01 -2.992629e+01 -2.844753e+01 
-2.774003e+01 -2.723688e+01 -2.813859e+01 -2.853253e+01 -2.929222e+01 -3.220081e+01 -2.731914e+01 -8.556106e+00 2.287121e+01 4.289702e+01 4.786393e+01 4.718420e+01 4.469434e+01 4.307492e+01 4.167433e+01 4.151295e+01 4.116707e+01 4.151295e+01 4.167433e+01 4.307492e+01 4.469434e+01 4.718420e+01 4.786393e+01 4.289702e+01 2.287121e+01 -8.556106e+00 -2.731914e+01 -3.220081e+01 -2.929222e+01 -2.853253e+01 -2.813859e+01 -2.723688e+01 
-2.611085e+01 -2.584883e+01 -2.617796e+01 -2.638476e+01 -2.619507e+01 -2.730936e+01 -2.597555e+01 -2.197527e+01 -9.395502e+00 9.163336e+00 2.419510e+01 3.284432e+01 3.662901e+01 3.811824e+01 3.913190e+01 3.993386e+01 3.983387e+01 3.993386e+01 3.913190e+01 3.811824e+01 3.662901e+01 3.284432e+01 2.419510e+01 9.163336e+00 -9.395502e+00 -2.197527e+01 -2.597555e+01 -2.730936e+01 -2.619507e+01 -2.638476e+01 -2.617796e+01 -2.584883e+01 
-2.452173e+01 -2.427381e+01 -2.437540e+01 -2.420183e+01 -2.372376e+01 -2.361719e+01 -2.207200e+01 -2.017082e+01 -1.736964e+01 -1.326699e+01 -6.399474e+00 2.232178e+00 8.944468e+00 1.460042e+01 1.989806e+01 2.260847e+01 2.353804e+01 2.260847e+01 1.989806e+01 1.460042e+01 8.944468e+00 2.232178e+00 -6.399474e+00 -1.326699e+01 -1.736964e+01 -2.017082e+01 -2.207200e+01 -2.361719e+01 -2.372376e+01 -2.420183e+01 -2.437540e+01 -2.427381e+01 
-2.302974e+01 -2.291426e+01 -2.275263e+01 -2.249945e+01 -2.176494e+01 -2.118916e+01 -1.964142e+01 -1.777420e+01 -1.510023e+01 -1.239600e+01 -1.070743e+01 -7.754555e+00 -4.878205e+00 -1.710072e+00 1.673807e+00 3.157018e+00 4.150991e+00 3.157018e+00 1.673807e+00 -1.710072e+00 -4.878205e+00 -7.754555e+00 -1.070743e+01 -1.239600e+01 -1.510023e+01 -1.777420e+01 -1.964142e+01 -2.118916e+01 -2.176494e+01 -2.249945e+01 -2.275263e+01 -2.291426e+01 
-2.166078e+01 -2.151479e+01 -2.131682e+01 -2.090909e+01 -2.017871e+01 -1.937963e+01 -1.794596e+01 -1.629222e+01 -1.422350e+01 -1.178514e+01 -9.355960e+00 -6.720261e+00 -4.850778e+00 -3.064897e+00 -1.332888e+00 -6.879212e-01 -9.471473e-02 -6.879212e-01 -1.332888e+00 -3.064897e+00 -4.850778e+00 -6.720261e+00 -9.355960e+00 -1.178514e+01 -1.422350e+01 -1.629222e+01 -1.794596e+01 -1.937963e+01 -2.017871e+01 -2.090909e+01 -2.131682e+01 -2.151479e+01 
-2.051850e+01 -2.045521e+01 -2.015165e+01 -1.976477e+01 -1.899071e+01 -1.818283e+01 -1.687588e+01 -1.542298e+01 -1.362974e+01 -1.177912e+01 -1.008474e+01 -8.065556e+00 -6.255947e+00 -4.557635e+00 -2.949354e+00 -2.289282e+00 -1.646038e+00 -2.289282e+00 -2.949354e+00 -4.557635e+00 -6.255947e+00 -8.065556e+00 -1.008474e+01 -1.177912e+01 -1.362974e+01 -1.542298e+01 -1.687588e+01 -1.818283e+01 -1.899071e+01 -1.976477e+01 -2.015165e+01 -2.045521e+01 
-1.949268e+01 -1.939305e+01 -1.912101e+01 -1.867947e+01 -1.797589e+01 -1.714808e+01 -1.599001e+01 -1.469030e+01 -1.316943e+01 -1.150788e+01 -9.851750e+00 -8.201961e+00 -6.812386e+00 -5.705050e+00 -4.729419e+00 -4.340571e+00 -3.807243e+00 -4.340571e+00 -4.729419e+00 -5.705050e+00 -6.812386e+00 -8.201961e+00 -9.851750e+00 -1.150788e+01 -1.316943e+01 -1.469030e+01 -1.599001e+01 -1.714808e+01 -1.797589e+01 -1.867947e+01 -1.912101e+01 -1.939305e+01 
-1.875012e+01 -1.870889e+01 -1.839110e+01 -1.800513e+01 -1.730707e+01 -1.655782e+01 -1.549650e+01 -1.437272e+01 -1.304620e+01 -1.169121e+01 -1.033811e+01 -8.976543e+00 -7.742013e+00 -6.784950e+00 -5.994242e+00 -5.560341e+00 -5.056960e+00 -5.560341e+00 -5.994242e+00 -6.784950e+00 -7.742013e+00 -8.976543e+00 -1.033811e+01 -1.169121e+01 -1.304620e+01 -1.437272e+01 -1.549650e+01 -1.655782e+01 -1.730707e+01 -1.800513e+01 -1.839110e+01 -1.870889e+01 
-1.808405e+01 -1.800694e+01 -1.773408e+01 -1.732062e+01 -1.669084e+01 -1.594710e+01 -1.499049e+01 -1.394207e+01 -1.275662e+01 -1.152428e+01 -1.028717e+01 -9.114665e+00 -8.090591e+00 -7.323412e+00 -6.780593e+00 -6.371131e+00 -5.996099e+00 -6.371131e+00 -6.780593e+00 -7.323412e+00 -8.090591e+00 -9.114665e+00 -1.028717e+01 -1.152428e+01 -1.275662e+01 -1.394207e+01 -1.499049e+01 -1.594710e+01 -1.669084e+01 -1.732062e+01 -1.773408e+01 -1.800694e+01 
-1.772056e+01 -1.768930e+01 -1.738591e+01 -1.702682e+01 -1.639754e+01 -1.572570e+01 -1.481442e+01 -1.387519e+01 -1.277926e+01 -1.169239e+01 -1.056774e+01 -9.516897e+00 -8.534896e+00 -7.777467e+00 -7.144031e+00 -6.660504e+00 -6.201245e+00 -6.660504e+00 -7.144031e+00 -7.777467e+00 -8.534896e+00 -9.516897e+00 -1.056774e+01 -1.169239e+01 -1.277926e+01 -1.387519e+01 -1.481442e+01 -1.572570e+01 -1.639754e+01 -1.702682e+01 -1.738591e+01 -1.768930e+01 
-1.739853e+01 -1.733107e+01 -1.706795e+01 -1.667933e+01 -1.609625e+01 -1.541086e+01 -1.455366e+01 -1.362701e+01 -1.259112e+01 -1.154029e+01 -1.047175e+01 -9.477976e+00 -8.552466e+00 -7.812421e+00 -7.136679e+00 -6.632091e+00 -6.118869e+00 -6.632091e+00 -7.136679e+00 -7.812421e+00 -8.552466e+00 -9.477976e+00 -1.047175e+01 -1.154029e+01 -1.259112e+01 -1.362701e+01 -1.455366e+01 -1.541086e+01 -1.609625e+01 -1.667933e+01 -1.706795e+01 -1.733107e+01 
