# vtk DataFile Version 2.0
Comment goes here
ASCII

DATASET STRUCTURED_POINTS
FIELD FieldData 1
TIME 1 1 double
1.22000000
DIMENSIONS    32   32   1

ORIGIN    0.000   0.000   0.000
SPACING   0.03125 0.03125   1.000

POINT_DATA   1024
VECTORS u double

-0.000000 -0.000000 0.000000 -0.011256 -0.000000 0.000000 -0.037578 -0.000000 0.000000 -0.099169 -0.000000 0.000000 -0.192708 -0.000000 0.000000 -0.338691 -0.000000 0.000000 -0.506873 -0.000000 0.000000 -0.720540 -0.000000 0.000000 -0.917855 0.000000 0.000000 -1.131289 0.000000 0.000000 -1.270366 0.000000 0.000000 -1.384194 0.000000 0.000000 -1.362238 0.000000 0.000000 -1.268993 0.000000 0.000000 -0.989008 0.000000 0.000000 -0.574427 0.000000 0.000000 0.000000 0.000000 0.000000 0.574427 -0.000000 0.000000 0.989008 -0.000000 0.000000 1.268993 -0.000000 0.000000 1.362238 -0.000000 0.000000 1.384194 -0.000000 0.000000 1.270366 -0.000000 0.000000 1.131289 -0.000000 0.000000 0.917855 -0.000000 0.000000 0.720540 -0.000000 0.000000 0.506873 -0.000000 0.000000 0.338691 0.000000 0.000000 0.192708 -0.000000 0.000000 0.099169 -0.000000 0.000000 0.037578 -0.000000 0.000000 0.011256 -0.000000 0.000000 
-0.000000 0.011256 0.000000 -0.004463 0.018789 0.000000 -0.024063 0.043957 0.000000 -0.078800 0.077565 0.000000 -0.165030 0.119761 0.000000 -0.302150 0.157082 0.000000 -0.460966 0.190924 0.000000 -0.662018 0.205491 0.000000 -0.848050 0.205374 0.000000 -1.045301 0.176255 0.000000 -1.173445 0.126453 0.000000 -1.274092 0.045936 0.000000 -1.250185 -0.057601 0.000000 -1.164743 -0.186615 0.000000 -0.908579 -0.347283 0.000000 -0.530028 -0.494504 0.000000 0.000000 -0.574427 0.000000 0.530028 -0.494504 0.000000 0.908579 -0.347283 0.000000 1.164743 -0.186615 0.000000 1.250185 -0.057601 0.000000 1.274092 0.045936 0.000000 1.173445 0.126453 0.000000 1.045301 0.176255 0.000000 0.848050 0.205374 0.000000 0.662018 0.205491 0.000000 0.460966 0.190924 0.000000 0.302150 0.157082 0.000000 0.165030 0.119761 0.000000 0.078800 0.077565 0.000000 0.024063 0.043957 0.000000 0.004463 0.018789 0.000000 
-0.000000 0.008925 0.000000 0.018411 0.024063 0.000000 0.020548 0.074338 0.000000 -0.011463 0.140967 0.000000 -0.075519 0.223350 0.000000 -0.187025 0.295936 0.000000 -0.318607 0.359868 0.000000 -0.490821 0.387084 0.000000 -0.645967 0.383283 0.000000 -0.818406 0.325395 0.000000 -0.921522 0.228791 0.000000 -1.017975 0.076740 0.000000 -0.998397 -0.109349 0.000000 -0.956934 -0.341606 0.000000 -0.761846 -0.634715 0.000000 -0.445536 -0.908579 0.000000 -0.000000 -1.060057 0.000000 0.445536 -0.908579 0.000000 0.761846 -0.634715 0.000000 0.956934 -0.341606 0.000000 0.998397 -0.109349 0.000000 1.017975 0.076740 0.000000 0.921522 0.228791 0.000000 0.818406 0.325395 0.000000 0.645967 0.383283 0.000000 0.490821 0.387084 0.000000 0.318607 0.359868 0.000000 0.187025 0.295936 0.000000 0.075519 0.223350 0.000000 0.011463 0.140967 0.000000 -0.020548 0.074338 0.000000 -0.018411 0.024063 0.000000 
-0.000000 -0.025565 0.000000 0.049812 -0.001759 0.000000 0.081772 0.073831 0.000000 0.079012 0.173631 0.000000 0.043311 0.295323 0.000000 -0.036796 0.400171 0.000000 -0.135553 0.494720 0.000000 -0.270224 0.532851 0.000000 -0.390175 0.532959 0.000000 -0.523562 0.451810 0.000000 -0.597024 0.326022 0.000000 -0.664108 0.122811 0.000000 -0.626332 -0.118642 0.000000 -0.608565 -0.423166 0.000000 -0.481095 -0.858681 0.000000 -0.280862 -1.256350 0.000000 -0.000000 -1.465499 0.000000 0.280862 -1.256350 0.000000 0.481095 -0.858681 0.000000 0.608565 -0.423166 0.000000 0.626332 -0.118642 0.000000 0.664108 0.122811 0.000000 0.597024 0.326022 0.000000 0.523562 0.451810 0.000000 0.390175 0.532959 0.000000 0.270224 0.532851 0.000000 0.135553 0.494720 0.000000 0.036796 0.400171 0.000000 -0.043311 0.295323 0.000000 -0.079012 0.173631 0.000000 -0.081772 0.073831 0.000000 -0.049812 -0.001759 0.000000 
-0.000000 -0.090698 0.000000 0.088542 -0.057709 0.000000 0.155685 0.045138 0.000000 0.188634 0.179428 0.000000 0.182767 0.339157 0.000000 0.137360 0.474800 0.000000 0.070387 0.593296 0.000000 -0.028149 0.641706 0.000000 -0.113616 0.636621 0.000000 -0.220934 0.532245 0.000000 -0.265658 0.369337 0.000000 -0.332419 0.106047 0.000000 -0.277055 -0.164892 0.000000 -0.328416 -0.486843 0.000000 -0.274351 -0.962417 0.000000 -0.141145 -1.389674 0.000000 -0.000000 -1.621782 0.000000 0.141145 -1.389674 0.000000 0.274351 -0.962417 0.000000 0.328416 -0.486843 0.000000 0.277055 -0.164892 0.000000 0.332419 0.106047 0.000000 0.265658 0.369337 0.000000 0.220934 0.532245 0.000000 0.113616 0.636621 0.000000 0.028149 0.641706 0.000000 -0.070387 0.593296 0.000000 -0.137360 0.474800 0.000000 -0.182767 0.339157 0.000000 -0.188634 0.179428 0.000000 -0.155685 0.045138 0.000000 -0.088542 -0.057709 0.000000 
-0.000000 -0.202650 0.000000 0.124856 -0.157443 0.000000 0.225442 -0.026261 0.000000 0.289094 0.146550 0.000000 0.309393 0.346597 0.000000 0.288366 0.512551 0.000000 0.243998 0.660229 0.000000 0.166610 0.716854 0.000000 0.096345 0.725744 0.000000 0.002709 0.603851 0.000000 -0.051244 0.437507 0.000000 -0.101629 0.134208 0.000000 0.026118 -0.122645 0.000000 0.018413 -0.425869 0.000000 0.089306 -1.045952 0.000000 0.088846 -1.530701 0.000000 0.000000 -1.747789 0.000000 -0.088846 -1.530701 0.000000 -0.089306 -1.045952 0.000000 -0.018413 -0.425869 0.000000 -0.026118 -0.122645 0.000000 0.101629 0.134208 0.000000 0.051244 0.437507 0.000000 -0.002709 0.603851 0.000000 -0.096345 0.725744 0.000000 -0.166610 0.716854 0.000000 -0.243998 0.660229 0.000000 -0.288366 0.512551 0.000000 -0.309393 0.346597 0.000000 -0.289094 0.146550 0.000000 -0.225442 -0.026261 0.000000 -0.124856 -0.157443 0.000000 
-0.000000 -0.340410 0.000000 0.156789 -0.283151 0.000000 0.284741 -0.119100 0.000000 0.378282 0.095477 0.000000 0.417090 0.339885 0.000000 0.422348 0.540195 0.000000 0.389421 0.715051 0.000000 0.332755 0.789358 0.000000 0.269143 0.800522 0.000000 0.178663 0.679834 0.000000 0.127515 0.473676 0.000000 0.051479 0.028686 0.000000 0.231393 -0.284935 0.000000 0.089224 -0.550031 0.000000 0.115094 -1.032849 0.000000 0.162744 -1.300368 0.000000 0.000000 -1.444091 0.000000 -0.162744 -1.300368 0.000000 -0.115094 -1.032849 0.000000 -0.089224 -0.550031 0.000000 -0.231393 -0.284935 0.000000 -0.051479 0.028686 0.000000 -0.127515 0.473676 0.000000 -0.178663 0.679834 0.000000 -0.269143 0.800522 0.000000 -0.332755 0.789358 0.000000 -0.389421 0.715051 0.000000 -0.422348 0.540195 0.000000 -0.417090 0.339885 0.000000 -0.378282 0.095477 0.000000 -0.284741 -0.119100 0.000000 -0.156789 -0.283151 0.000000 
-0.000000 -0.516227 0.000000 0.174929 -0.442184 0.000000 0.319784 -0.247755 0.000000 0.428766 0.014200 0.000000 0.480832 0.302531 0.000000 0.495959 0.540220 0.000000 0.472726 0.749822 0.000000 0.409861 0.837133 0.000000 0.340986 0.879836 0.000000 0.212717 0.745479 0.000000 0.033148 0.564692 0.000000 0.027674 0.030330 0.000000 0.352606 -0.160390 0.000000 0.697226 -0.309571 0.000000 0.879296 -1.119472 0.000000 0.568239 -1.415607 0.000000 0.000000 -1.422300 0.000000 -0.568239 -1.415607 0.000000 -0.879296 -1.119472 0.000000 -0.697226 -0.309571 0.000000 -0.352606 -0.160390 0.000000 -0.027674 0.030330 0.000000 -0.033148 0.564692 0.000000 -0.212717 0.745479 0.000000 -0.340986 0.879836 0.000000 -0.409861 0.837133 0.000000 -0.472726 0.749822 0.000000 -0.495959 0.540220 0.000000 -0.480832 0.302531 0.000000 -0.428766 0.014200 0.000000 -0.319784 -0.247755 0.000000 -0.174929 -0.442184 0.000000 
0.000000 -0.690268 0.000000 0.179015 -0.602935 0.000000 0.326030 -0.372937 0.000000 0.445167 -0.065570 0.000000 0.497539 0.272692 0.000000 0.534163 0.548302 0.000000 0.504903 0.801150 0.000000 0.463426 0.921098 0.000000 0.367987 0.997666 0.000000 0.255538 0.987671 0.000000 0.105912 0.658719 0.000000 0.687856 -0.290772 0.000000 0.876061 -0.954486 0.000000 1.320993 -1.076721 0.000000 0.880260 -0.903862 0.000000 0.299528 -0.421071 0.000000 0.000000 -0.307613 0.000000 -0.299528 -0.421071 0.000000 -0.880260 -0.903862 0.000000 -1.320993 -1.076721 0.000000 -0.876061 -0.954486 0.000000 -0.687856 -0.290772 0.000000 -0.105912 0.658719 0.000000 -0.255538 0.987671 0.000000 -0.367987 0.997666 0.000000 -0.463426 0.921098 0.000000 -0.504903 0.801150 0.000000 -0.534163 0.548302 0.000000 -0.497539 0.272692 0.000000 -0.445167 -0.065570 0.000000 -0.326030 -0.372937 0.000000 -0.179015 -0.602935 0.000000 
0.000000 -0.874257 0.000000 0.163711 -0.768214 0.000000 0.298424 -0.513906 0.000000 0.410421 -0.157309 0.000000 0.460681 0.213535 0.000000 0.503520 0.532856 0.000000 0.490888 0.820558 0.000000 0.443534 0.974048 0.000000 0.456567 1.087725 0.000000 0.258026 1.007554 0.000000 0.217939 0.132374 0.000000 0.677332 -0.739819 0.000000 0.291391 -0.793528 0.000000 -0.292828 -0.313770 0.000000 -0.814017 -0.098007 0.000000 -0.403563 -0.535347 0.000000 -0.000000 -0.823244 0.000000 0.403563 -0.535347 0.000000 0.814017 -0.098007 0.000000 0.292828 -0.313770 0.000000 -0.291391 -0.793528 0.000000 -0.677332 -0.739819 0.000000 -0.217939 0.132374 0.000000 -0.258026 1.007554 0.000000 -0.456567 1.087725 0.000000 -0.443534 0.974048 0.000000 -0.490888 0.820558 0.000000 -0.503520 0.532856 0.000000 -0.460681 0.213535 0.000000 -0.410421 -0.157309 0.000000 -0.298424 -0.513906 0.000000 -0.163711 -0.768214 0.000000 
0.000000 -1.017691 0.000000 0.128308 -0.901359 0.000000 0.233404 -0.619647 0.000000 0.330984 -0.227828 0.000000 0.369822 0.179593 0.000000 0.438611 0.518095 0.000000 0.417062 0.861135 0.000000 0.404558 0.955419 0.000000 0.350380 1.183175 0.000000 -0.193743 1.226300 0.000000 0.209128 0.239412 0.000000 0.137125 -0.364225 0.000000 -0.010313 0.015674 0.000000 -0.099996 0.028687 0.000000 0.303336 -0.793128 0.000000 0.512580 -1.235088 0.000000 -0.000000 -1.114739 0.000000 -0.512580 -1.235088 0.000000 -0.303336 -0.793128 0.000000 0.099996 0.028687 0.000000 0.010313 0.015674 0.000000 -0.137125 -0.364225 0.000000 -0.209128 0.239412 0.000000 0.193743 1.226300 0.000000 -0.350380 1.183175 0.000000 -0.404558 0.955419 0.000000 -0.417062 0.861135 0.000000 -0.438611 0.518095 0.000000 -0.369822 0.179593 0.000000 -0.330984 -0.227828 0.000000 -0.233404 -0.619647 0.000000 -0.128308 -0.901359 0.000000 
0.000000 -1.130874 0.000000 0.071439 -1.001618 0.000000 0.129385 -0.716582 0.000000 0.204936 -0.293728 0.000000 0.228218 0.105908 0.000000 0.322566 0.485617 0.000000 0.248954 0.854612 0.000000 0.294386 1.040730 0.000000 0.054580 1.686026 0.000000 -0.462137 1.148807 0.000000 0.600659 -0.198494 0.000000 0.436925 -0.520378 0.000000 0.676093 -0.556407 0.000000 0.962504 -0.627420 0.000000 0.985685 -0.710583 0.000000 0.492194 -0.232010 0.000000 -0.000000 0.201916 0.000000 -0.492194 -0.232010 0.000000 -0.985685 -0.710583 0.000000 -0.962504 -0.627420 0.000000 -0.676093 -0.556407 0.000000 -0.436925 -0.520378 0.000000 -0.600659 -0.198494 0.000000 0.462137 1.148807 0.000000 -0.054580 1.686026 0.000000 -0.294386 1.040730 0.000000 -0.248954 0.854612 0.000000 -0.322566 0.485617 0.000000 -0.228218 0.105908 0.000000 -0.204936 -0.293728 0.000000 -0.129385 -0.716582 0.000000 -0.071439 -1.001618 0.000000 
0.000000 -1.160569 0.000000 -0.018558 -1.030744 0.000000 -0.027519 -0.753143 0.000000 0.007571 -0.326661 0.000000 0.036976 0.061963 0.000000 0.183936 0.497359 0.000000 0.103912 0.889315 0.000000 0.475700 1.149792 0.000000 -0.273534 1.939697 0.000000 -0.101547 0.680220 0.000000 0.937939 -0.659650 0.000000 0.359236 -0.439658 0.000000 0.452155 -0.509905 0.000000 0.255013 -0.280905 0.000000 0.106013 -0.322817 0.000000 -0.115248 -0.249404 0.000000 0.000000 -0.130352 0.000000 0.115248 -0.249404 0.000000 -0.106013 -0.322817 0.000000 -0.255013 -0.280905 0.000000 -0.452155 -0.509905 0.000000 -0.359236 -0.439658 0.000000 -0.937939 -0.659650 0.000000 0.101547 0.680220 0.000000 0.273534 1.939697 0.000000 -0.475700 1.149792 0.000000 -0.103912 0.889315 0.000000 -0.183936 0.497359 0.000000 -0.036976 0.061963 0.000000 -0.007571 -0.326661 0.000000 0.027519 -0.753143 0.000000 0.018558 -1.030744 0.000000 
0.000000 -1.093757 0.000000 -0.135712 -0.974099 0.000000 -0.237612 -0.742712 0.000000 -0.247692 -0.358223 0.000000 -0.213855 -0.070458 0.000000 0.014317 0.418681 0.000000 0.004686 0.562848 0.000000 0.562733 1.418176 0.000000 -0.577460 2.263272 0.000000 0.674728 -0.062666 0.000000 0.966642 -0.659277 0.000000 0.287653 -0.034594 0.000000 0.280404 -0.452185 0.000000 0.089535 -0.281278 0.000000 0.127523 -0.340322 0.000000 0.003801 -0.125997 0.000000 0.000000 -0.028579 0.000000 -0.003801 -0.125997 0.000000 -0.127523 -0.340322 0.000000 -0.089535 -0.281278 0.000000 -0.280404 -0.452185 0.000000 -0.287653 -0.034594 0.000000 -0.966642 -0.659277 0.000000 -0.674728 -0.062666 0.000000 0.577460 2.263272 0.000000 -0.562733 1.418176 0.000000 -0.004686 0.562848 0.000000 -0.014317 0.418681 0.000000 0.213855 -0.070458 0.000000 0.247692 -0.358223 0.000000 0.237612 -0.742712 0.000000 0.135712 -0.974099 0.000000 
0.000000 -0.889146 0.000000 -0.296474 -0.793132 0.000000 -0.524570 -0.641163 0.000000 -0.673981 -0.350418 0.000000 -0.670794 -0.200046 0.000000 -0.632444 0.278818 0.000000 -0.424811 0.340900 0.000000 -0.420897 1.731939 0.000000 -0.129142 1.827702 0.000000 1.213126 -0.863882 0.000000 0.490600 -0.272575 0.000000 0.380607 0.246580 0.000000 0.219233 -0.311787 0.000000 0.150009 -0.128024 0.000000 0.052122 -0.237083 0.000000 -0.022077 -0.121880 0.000000 0.000000 -0.122750 0.000000 0.022077 -0.121880 0.000000 -0.052122 -0.237083 0.000000 -0.150009 -0.128024 0.000000 -0.219233 -0.311787 0.000000 -0.380607 0.246580 0.000000 -0.490600 -0.272575 0.000000 -1.213126 -0.863882 0.000000 0.129142 1.827702 0.000000 0.420897 1.731939 0.000000 0.424811 0.340900 0.000000 0.632444 0.278818 0.000000 0.670794 -0.200046 0.000000 0.673981 -0.350418 0.000000 0.524570 -0.641163 0.000000 0.296474 -0.793132 0.000000 
0.000000 -0.500810 0.000000 -0.444573 -0.449529 0.000000 -0.793132 -0.365204 0.000000 -1.085736 -0.211998 0.000000 -1.143550 -0.111995 0.000000 -1.285782 0.172698 0.000000 -0.864732 0.351302 0.000000 -0.944882 1.122506 0.000000 0.867207 0.629249 0.000000 0.882820 -0.682407 0.000000 0.003324 0.173242 0.000000 0.610245 0.236773 0.000000 0.249904 -0.221586 0.000000 0.298458 -0.114167 0.000000 0.121880 -0.168236 0.000000 0.061375 -0.073876 0.000000 -0.000000 -0.072734 0.000000 -0.061375 -0.073876 0.000000 -0.121880 -0.168236 0.000000 -0.298458 -0.114167 0.000000 -0.249904 -0.221586 0.000000 -0.610245 0.236773 0.000000 -0.003324 0.173242 0.000000 -0.882820 -0.682407 0.000000 -0.867207 0.629249 0.000000 0.944882 1.122506 0.000000 0.864732 0.351302 0.000000 1.285782 0.172698 0.000000 1.143550 -0.111995 0.000000 1.085736 -0.211998 0.000000 0.793132 -0.365204 0.000000 0.444573 -0.449529 0.000000 
0.000000 0.000000 0.000000 -0.500810 0.000000 0.000000 -0.899058 -0.000000 0.000000 -1.231218 -0.000000 0.000000 -1.323054 -0.000000 0.000000 -1.455208 0.000000 0.000000 -0.977659 0.000000 0.000000 -0.752605 0.000000 0.000000 1.267353 0.000000 0.000000 0.505894 -0.000000 0.000000 -0.097462 0.000000 0.000000 0.852378 0.000000 0.000000 0.376085 0.000000 0.000000 0.409205 0.000000 0.000000 0.147752 0.000000 0.000000 0.072734 0.000000 0.000000 -0.000000 -0.000000 0.000000 -0.072734 -0.000000 0.000000 -0.147752 -0.000000 0.000000 -0.409205 -0.000000 0.000000 -0.376085 -0.000000 0.000000 -0.852378 -0.000000 0.000000 0.097462 0.000000 0.000000 -0.505894 0.000000 0.000000 -1.267353 -0.000000 0.000000 0.752605 -0.000000 0.000000 0.977659 -0.000000 0.000000 1.455208 -0.000000 0.000000 1.323054 -0.000000 0.000000 1.231218 0.000000 0.000000 0.899058 0.000000 0.000000 0.500810 0.000000 0.000000 
-0.000000 0.500810 0.000000 -0.444573 0.449529 0.000000 -0.793132 0.365204 0.000000 -1.085736 0.211998 0.000000 -1.143550 0.111995 0.000000 -1.285782 -0.172698 0.000000 -0.864732 -0.351302 0.000000 -0.944882 -1.122506 0.000000 0.867207 -0.629249 0.000000 0.882820 0.682407 0.000000 0.003324 -0.173242 0.000000 0.610245 -0.236773 0.000000 0.249904 0.221586 0.000000 0.298458 0.114167 0.000000 0.121880 0.168236 0.000000 0.061375 0.073876 0.000000 -0.000000 0.072734 0.000000 -0.061375 0.073876 0.000000 -0.121880 0.168236 0.000000 -0.298458 0.114167 0.000000 -0.249904 0.221586 0.000000 -0.610245 -0.236773 0.000000 -0.003324 -0.173242 0.000000 -0.882820 0.682407 0.000000 -0.867207 -0.629249 0.000000 0.944882 -1.122506 0.000000 0.864732 -0.351302 0.000000 1.285782 -0.172698 0.000000 1.143550 0.111995 0.000000 1.085736 0.211998 0.000000 0.793132 0.365204 0.000000 0.444573 0.449529 0.000000 
-0.000000 0.889146 0.000000 -0.296474 0.793132 0.000000 -0.524570 0.641163 0.000000 -0.673981 0.350418 0.000000 -0.670794 0.200046 0.000000 -0.632444 -0.278818 0.000000 -0.424811 -0.340900 0.000000 -0.420897 -1.731939 0.000000 -0.129142 -1.827702 0.000000 1.213126 0.863882 0.000000 0.490600 0.272575 0.000000 0.380607 -0.246580 0.000000 0.219233 0.311787 0.000000 0.150009 0.128024 0.000000 0.052122 0.237083 0.000000 -0.022077 0.121880 0.000000 -0.000000 0.122750 0.000000 0.022077 0.121880 0.000000 -0.052122 0.237083 0.000000 -0.150009 0.128024 0.000000 -0.219233 0.311787 0.000000 -0.380607 -0.246580 0.000000 -0.490600 0.272575 0.000000 -1.213126 0.863882 0.000000 0.129142 -1.827702 0.000000 0.420897 -1.731939 0.000000 0.424811 -0.340900 0.000000 0.632444 -0.278818 0.000000 0.670794 0.200046 0.000000 0.673981 0.350418 0.000000 0.524570 0.641163 0.000000 0.296474 0.793132 0.000000 
-0.000000 1.093757 0.000000 -0.135712 0.974099 0.000000 -0.237612 0.742712 0.000000 -0.247692 0.358223 0.000000 -0.213855 0.070458 0.000000 0.014317 -0.418681 0.000000 0.004686 -0.562848 0.000000 0.562733 -1.418176 0.000000 -0.577460 -2.263272 0.000000 0.674728 0.062666 0.000000 0.966642 0.659277 0.000000 0.287653 0.034594 0.000000 0.280404 0.452185 0.000000 0.089535 0.281278 0.000000 0.127523 0.340322 0.000000 0.003801 0.125997 0.000000 -0.000000 0.028579 0.000000 -0.003801 0.125997 0.000000 -0.127523 0.340322 0.000000 -0.089535 0.281278 0.000000 -0.280404 0.452185 0.000000 -0.287653 0.034594 0.000000 -0.966642 0.659277 0.000000 -0.674728 0.062666 0.000000 0.577460 -2.263272 0.000000 -0.562733 -1.418176 0.000000 -0.004686 -0.562848 0.000000 -0.014317 -0.418681 0.000000 0.213855 0.070458 0.000000 0.247692 0.358223 0.000000 0.237612 0.742712 0.000000 0.135712 0.974099 0.000000 
-0.000000 1.160569 0.000000 -0.018558 1.030744 0.000000 -0.027519 0.753143 0.000000 0.007571 0.326661 0.000000 0.036976 -0.061963 0.000000 0.183936 -0.497359 0.000000 0.103912 -0.889315 0.000000 0.475700 -1.149792 0.000000 -0.273534 -1.939697 0.000000 -0.101547 -0.680220 0.000000 0.937939 0.659650 0.000000 0.359236 0.439658 0.000000 0.452155 0.509905 0.000000 0.255013 0.280905 0.000000 0.106013 0.322817 0.000000 -0.115248 0.249404 0.000000 -0.000000 0.130352 0.000000 0.115248 0.249404 0.000000 -0.106013 0.322817 0.000000 -0.255013 0.280905 0.000000 -0.452155 0.509905 0.000000 -0.359236 0.439658 0.000000 -0.937939 0.659650 0.000000 0.101547 -0.680220 0.000000 0.273534 -1.939697 0.000000 -0.475700 -1.149792 0.000000 -0.103912 -0.889315 0.000000 -0.183936 -0.497359 0.000000 -0.036976 -0.061963 0.000000 -0.007571 0.326661 0.000000 0.027519 0.753143 0.000000 0.018558 1.030744 0.000000 
-0.000000 1.130874 0.000000 0.071439 1.001618 0.000000 0.129385 0.716582 0.000000 0.204936 0.293728 0.000000 0.228218 -0.105908 0.000000 0.322566 -0.485617 0.000000 0.248954 -0.854612 0.000000 0.294386 -1.040730 0.000000 0.054580 -1.686026 0.000000 -0.462137 -1.148807 0.000000 0.600659 0.198494 0.000000 0.436925 0.520378 0.000000 0.676093 0.556407 0.000000 0.962504 0.627420 0.000000 0.985685 0.710583 0.000000 0.492194 0.232010 0.000000 0.000000 -0.201916 0.000000 -0.492194 0.232010 0.000000 -0.985685 0.710583 0.000000 -0.962504 0.627420 0.000000 -0.676093 0.556407 0.000000 -0.436925 0.520378 0.000000 -0.600659 0.198494 0.000000 0.462137 -1.148807 0.000000 -0.054580 -1.686026 0.000000 -0.294386 -1.040730 0.000000 -0.248954 -0.854612 0.000000 -0.322566 -0.485617 0.000000 -0.228218 -0.105908 0.000000 -0.204936 0.293728 0.000000 -0.129385 0.716582 0.000000 -0.071439 1.001618 0.000000 
-0.000000 1.017691 0.000000 0.128308 0.901359 0.000000 0.233404 0.619647 0.000000 0.330984 0.227828 0.000000 0.369822 -0.179593 0.000000 0.438611 -0.518095 0.000000 0.417062 -0.861135 0.000000 0.404558 -0.955419 0.000000 0.350380 -1.183175 0.000000 -0.193743 -1.226300 0.000000 0.209128 -0.239412 0.000000 0.137125 0.364225 0.000000 -0.010313 -0.015674 0.000000 -0.099996 -0.028687 0.000000 0.303336 0.793128 0.000000 0.512580 1.235088 0.000000 0.000000 1.114739 0.000000 -0.512580 1.235088 0.000000 -0.303336 0.793128 0.000000 0.099996 -0.028687 0.000000 0.010313 -0.015674 0.000000 -0.137125 0.364225 0.000000 -0.209128 -0.239412 0.000000 0.193743 -1.226300 0.000000 -0.350380 -1.183175 0.000000 -0.404558 -0.955419 0.000000 -0.417062 -0.861135 0.000000 -0.438611 -0.518095 0.000000 -0.369822 -0.179593 0.000000 -0.330984 0.227828 0.000000 -0.233404 0.619647 0.000000 -0.128308 0.901359 0.000000 
-0.000000 0.874257 0.000000 0.163711 0.768214 0.000000 0.298424 0.513906 0.000000 0.410421 0.157309 0.000000 0.460681 -0.213535 0.000000 0.503520 -0.532856 0.000000 0.490888 -0.820558 0.000000 0.443534 -0.974048 0.000000 0.456567 -1.087725 0.000000 0.258026 -1.007554 0.000000 0.217939 -0.132374 0.000000 0.677332 0.739819 0.000000 0.291391 0.793528 0.000000 -0.292828 0.313770 0.000000 -0.814017 0.098007 0.000000 -0.403563 0.535347 0.000000 0.000000 0.823244 0.000000 0.403563 0.535347 0.000000 0.814017 0.098007 0.000000 0.292828 0.313770 0.000000 -0.291391 0.793528 0.000000 -0.677332 0.739819 0.000000 -0.217939 -0.132374 0.000000 -0.258026 -1.007554 0.000000 -0.456567 -1.087725 0.000000 -0.443534 -0.974048 0.000000 -0.490888 -0.820558 0.000000 -0.503520 -0.532856 0.000000 -0.460681 -0.213535 0.000000 -0.410421 0.157309 0.000000 -0.298424 0.513906 0.000000 -0.163711 0.768214 0.000000 
-0.000000 0.690268 0.000000 0.179015 0.602935 0.000000 0.326030 0.372937 0.000000 0.445167 0.065570 0.000000 0.497539 -0.272692 0.000000 0.534163 -0.548302 0.000000 0.504903 -0.801150 0.000000 0.463426 -0.921098 0.000000 0.367987 -0.997666 0.000000 0.255538 -0.987671 0.000000 0.105912 -0.658719 0.000000 0.687856 0.290772 0.000000 0.876061 0.954486 0.000000 1.320993 1.076721 0.000000 0.880260 0.903862 0.000000 0.299528 0.421071 0.000000 -0.000000 0.307613 0.000000 -0.299528 0.421071 0.000000 -0.880260 0.903862 0.000000 -1.320993 1.076721 0.000000 -0.876061 0.954486 0.000000 -0.687856 0.290772 0.000000 -0.105912 -0.658719 0.000000 -0.255538 -0.987671 0.000000 -0.367987 -0.997666 0.000000 -0.463426 -0.921098 0.000000 -0.504903 -0.801150 0.000000 -0.534163 -0.548302 0.000000 -0.497539 -0.272692 0.000000 -0.445167 0.065570 0.000000 -0.326030 0.372937 0.000000 -0.179015 0.602935 0.000000 
-0.000000 0.516227 0.000000 0.174929 0.442184 0.000000 0.319784 0.247755 0.000000 0.428766 -0.014200 0.000000 0.480832 -0.302531 0.000000 0.495959 -0.540220 0.000000 0.472726 -0.749822 0.000000 0.409861 -0.837133 0.000000 0.340986 -0.879836 0.000000 0.212717 -0.745479 0.000000 0.033148 -0.564692 0.000000 0.027674 -0.030330 0.000000 0.352606 0.160390 0.000000 0.697226 0.309571 0.000000 0.879296 1.119472 0.000000 0.568239 1.415607 0.000000 -0.000000 1.422300 0.000000 -0.568239 1.415607 0.000000 -0.879296 1.119472 0.000000 -0.697226 0.309571 0.000000 -0.352606 0.160390 0.000000 -0.027674 -0.030330 0.000000 -0.033148 -0.564692 0.000000 -0.212717 -0.745479 0.000000 -0.340986 -0.879836 0.000000 -0.409861 -0.837133 0.000000 -0.472726 -0.749822 0.000000 -0.495959 -0.540220 0.000000 -0.480832 -0.302531 0.000000 -0.428766 -0.014200 0.000000 -0.319784 0.247755 0.000000 -0.174929 0.442184 0.000000 
-0.000000 0.340410 0.000000 0.156789 0.283151 0.000000 0.284741 0.119100 0.000000 0.378282 -0.095477 0.000000 0.417090 -0.339885 0.000000 0.422348 -0.540195 0.000000 0.389421 -0.715051 0.000000 0.332755 -0.789358 0.000000 0.269143 -0.800522 0.000000 0.178663 -0.679834 0.000000 0.127515 -0.473676 0.000000 0.051479 -0.028686 0.000000 0.231393 0.284935 0.000000 0.089224 0.550031 0.000000 0.115094 1.032849 0.000000 0.162744 1.300368 0.000000 -0.000000 1.444091 0.000000 -0.162744 1.300368 0.000000 -0.115094 1.032849 0.000000 -0.089224 0.550031 0.000000 -0.231393 0.284935 0.000000 -0.051479 -0.028686 0.000000 -0.127515 -0.473676 0.000000 -0.178663 -0.679834 0.000000 -0.269143 -0.800522 0.000000 -0.332755 -0.789358 0.000000 -0.389421 -0.715051 0.000000 -0.422348 -0.540195 0.000000 -0.417090 -0.339885 0.000000 -0.378282 -0.095477 0.000000 -0.284741 0.119100 0.000000 -0.156789 0.283151 0.000000 
-0.000000 0.202650 0.000000 0.124856 0.157443 0.000000 0.225442 0.026261 0.000000 0.289094 -0.146550 0.000000 0.309393 -0.346597 0.000000 0.288366 -0.512551 0.000000 0.243998 -0.660229 0.000000 0.166610 -0.716854 0.000000 0.096345 -0.725744 0.000000 0.002709 -0.603851 0.000000 -0.051244 -0.437507 0.000000 -0.101629 -0.134208 0.000000 0.026118 0.122645 0.000000 0.018413 0.425869 0.000000 0.089306 1.045952 0.000000 0.088846 1.530701 0.000000 -0.000000 1.747789 0.000000 -0.088846 1.530701 0.000000 -0.089306 1.045952 0.000000 -0.018413 0.425869 0.000000 -0.026118 0.122645 0.000000 0.101629 -0.134208 0.000000 0.051244 -0.437507 0.000000 -0.002709 -0.603851 0.000000 -0.096345 -0.725744 0.000000 -0.166610 -0.716854 0.000000 -0.243998 -0.660229 0.000000 -0.288366 -0.512551 0.000000 -0.309393 -0.346597 0.000000 -0.289094 -0.146550 0.000000 -0.225442 0.026261 0.000000 -0.124856 0.157443 0.000000 
-0.000000 0.090698 0.000000 0.088542 0.057709 0.000000 0.155685 -0.045138 0.000000 0.188634 -0.179428 0.000000 0.182767 -0.339157 0.000000 0.137360 -0.474800 0.000000 0.070387 -0.593296 0.000000 -0.028149 -0.641706 0.000000 -0.113616 -0.636621 0.000000 -0.220934 -0.532245 0.000000 -0.265658 -0.369337 0.000000 -0.332419 -0.106047 0.000000 -0.277055 0.164892 0.000000 -0.328416 0.486843 0.000000 -0.274351 0.962417 0.000000 -0.141145 1.389674 0.000000 -0.000000 1.621782 0.000000 0.141145 1.389674 0.000000 0.274351 0.962417 0.000000 0.328416 0.486843 0.000000 0.277055 0.164892 0.000000 0.332419 -0.106047 0.000000 0.265658 -0.369337 0.000000 0.220934 -0.532245 0.000000 0.113616 -0.636621 0.000000 0.028149 -0.641706 0.000000 -0.070387 -0.593296 0.000000 -0.137360 -0.474800 0.000000 -0.182767 -0.339157 0.000000 -0.188634 -0.179428 0.000000 -0.155685 -0.045138 0.000000 -0.088542 0.057709 0.000000 
-0.000000 0.025565 0.000000 0.049812 0.001759 0.000000 0.081772 -0.073831 0.000000 0.079012 -0.173631 0.000000 0.043311 -0.295323 0.000000 -0.036796 -0.400171 0.000000 -0.135553 -0.494720 0.000000 -0.270224 -0.532851 0.000000 -0.390175 -0.532959 0.000000 -0.523562 -0.451810 0.000000 -0.597024 -0.326022 0.000000 -0.664108 -0.122811 0.000000 -0.626332 0.118642 0.000000 -0.608565 0.423166 0.000000 -0.481095 0.858681 0.000000 -0.280862 1.256350 0.000000 0.000000 1.465499 0.000000 0.280862 1.256350 0.000000 0.481095 0.858681 0.000000 0.608565 0.423166 0.000000 0.626332 0.118642 0.000000 0.664108 -0.122811 0.000000 0.597024 -0.326022 0.000000 0.523562 -0.451810 0.000000 0.390175 -0.532959 0.000000 0.270224 -0.532851 0.000000 0.135553 -0.494720 0.000000 0.036796 -0.400171 0.000000 -0.043311 -0.295323 0.000000 -0.079012 -0.173631 0.000000 -0.081772 -0.073831 0.000000 -0.049812 0.001759 0.000000 
-0.000000 -0.008925 0.000000 0.018411 -0.024063 0.000000 0.020548 -0.074338 0.000000 -0.011463 -0.140967 0.000000 -0.075519 -0.223350 0.000000 -0.187025 -0.295936 0.000000 -0.318607 -0.359868 0.000000 -0.490821 -0.387084 0.000000 -0.645967 -0.383283 0.000000 -0.818406 -0.325395 0.000000 -0.921522 -0.228791 0.000000 -1.017975 -0.076740 0.000000 -0.998397 0.109349 0.000000 -0.956934 0.341606 0.000000 -0.761846 0.634715 0.000000 -0.445536 0.908579 0.000000 0.000000 1.060057 0.000000 0.445536 0.908579 0.000000 0.761846 0.634715 0.000000 0.956934 0.341606 0.000000 0.998397 0.109349 0.000000 1.017975 -0.076740 0.000000 0.921522 -0.228791 0.000000 0.818406 -0.325395 0.000000 0.645967 -0.383283 0.000000 0.490821 -0.387084 0.000000 0.318607 -0.359868 0.000000 0.187025 -0.295936 0.000000 0.075519 -0.223350 0.000000 0.011463 -0.140967 0.000000 -0.020548 -0.074338 0.000000 -0.018411 -0.024063 0.000000 
-0.000000 -0.011256 0.000000 -0.004463 -0.018789 0.000000 -0.024063 -0.043957 0.000000 -0.078800 -0.077565 0.000000 -0.165030 -0.119761 0.000000 -0.302150 -0.157082 0.000000 -0.460966 -0.190924 0.000000 -0.662018 -0.205491 0.000000 -0.848050 -0.205374 0.000000 -1.045301 -0.176255 0.000000 -1.173445 -0.126453 0.000000 -1.274092 -0.045936 0.000000 -1.250185 0.057601 0.000000 -1.164743 0.186615 0.000000 -0.908579 0.347283 0.000000 -0.530028 0.494504 0.000000 0.000000 0.574427 0.000000 0.530028 0.494504 0.000000 0.908579 0.347283 0.000000 1.164743 0.186615 0.000000 1.250185 0.057601 0.000000 1.274092 -0.045936 0.000000 1.173445 -0.126453 0.000000 1.045301 -0.176255 0.000000 0.848050 -0.205374 0.000000 0.662018 -0.205491 0.000000 0.460966 -0.190924 0.000000 0.302150 -0.157082 0.000000 0.165030 -0.119761 0.000000 0.078800 -0.077565 0.000000 0.024063 -0.043957 0.000000 0.004463 -0.018789 0.000000 
