# vtk DataFile Version 2.0
Comment goes here
ASCII

DATASET STRUCTURED_POINTS
FIELD FieldData 1
TIME 1 1 double
0.04000000
DIMENSIONS    32   32   1

ORIGIN    0.000   0.000   0.000
SPACING   0.03125 0.03125   1.000

POINT_DATA   1024
VECTORS u double

0.000000 -0.000000 0.000000 0.255330 0.000000 0.000000 0.512167 -0.000000 0.000000 0.772413 0.000000 0.000000 1.032677 -0.000000 0.000000 1.294030 -0.000000 0.000000 1.539101 -0.000000 0.000000 1.769343 -0.000000 0.000000 1.942656 -0.000000 0.000000 2.059327 -0.000000 0.000000 2.063107 -0.000000 0.000000 1.944639 -0.000000 0.000000 1.693039 0.000000 0.000000 1.295702 -0.000000 0.000000 0.862772 0.000000 0.000000 0.393313 -0.000000 0.000000 -0.000000 0.000000 0.000000 -0.393313 -0.000000 0.000000 -0.862772 0.000000 0.000000 -1.295702 -0.000000 0.000000 -1.693039 0.000000 0.000000 -1.944639 0.000000 0.000000 -2.063107 0.000000 0.000000 -2.059327 0.000000 0.000000 -1.942656 0.000000 0.000000 -1.769343 0.000000 0.000000 -1.539101 0.000000 0.000000 -1.294030 0.000000 0.000000 -1.032677 0.000000 0.000000 -0.772413 0.000000 0.000000 -0.512167 0.000000 0.000000 -0.255330 0.000000 0.000000 
0.000000 -0.255330 0.000000 0.254502 -0.256083 0.000000 0.511517 -0.258541 0.000000 0.771936 -0.260255 0.000000 1.035680 -0.260808 0.000000 1.300726 -0.253212 0.000000 1.555318 -0.237656 0.000000 1.796484 -0.201777 0.000000 1.986456 -0.144992 0.000000 2.124365 -0.060225 0.000000 2.144389 0.057344 0.000000 2.057355 0.185034 0.000000 1.781560 0.324469 0.000000 1.438204 0.415133 0.000000 0.808688 0.451195 0.000000 0.108636 0.431386 0.000000 0.000000 0.393313 0.000000 -0.108636 0.431386 0.000000 -0.808688 0.451195 0.000000 -1.438204 0.415133 0.000000 -1.781560 0.324469 0.000000 -2.057355 0.185034 0.000000 -2.144389 0.057344 0.000000 -2.124365 -0.060225 0.000000 -1.986456 -0.144992 0.000000 -1.796484 -0.201777 0.000000 -1.555318 -0.237656 0.000000 -1.300726 -0.253212 0.000000 -1.035680 -0.260808 0.000000 -0.771936 -0.260255 0.000000 -0.511517 -0.258541 0.000000 -0.254502 -0.256083 0.000000 
0.000000 -0.509004 0.000000 0.252167 -0.511517 0.000000 0.508017 -0.517435 0.000000 0.770316 -0.524162 0.000000 1.039795 -0.528789 0.000000 1.317442 -0.519639 0.000000 1.590909 -0.495758 0.000000 1.862284 -0.431138 0.000000 2.085232 -0.327881 0.000000 2.261351 -0.157933 0.000000 2.316792 0.067010 0.000000 2.212552 0.362829 0.000000 1.959390 0.619151 0.000000 1.403472 0.972873 0.000000 0.477622 1.329568 0.000000 0.087137 0.808688 0.000000 0.000000 0.217271 0.000000 -0.087137 0.808688 0.000000 -0.477622 1.329568 0.000000 -1.403472 0.972873 0.000000 -1.959390 0.619151 0.000000 -2.212552 0.362829 0.000000 -2.316792 0.067010 0.000000 -2.261351 -0.157933 0.000000 -2.085232 -0.327881 0.000000 -1.862284 -0.431138 0.000000 -1.590909 -0.495758 0.000000 -1.317442 -0.519639 0.000000 -1.039795 -0.528789 0.000000 -0.770316 -0.524162 0.000000 -0.508017 -0.517435 0.000000 -0.252167 -0.511517 0.000000 
0.000000 -0.759664 0.000000 0.246201 -0.764100 0.000000 0.499005 -0.776691 0.000000 0.761082 -0.792033 0.000000 1.040493 -0.807934 0.000000 1.334722 -0.804326 0.000000 1.644735 -0.782498 0.000000 1.965509 -0.696100 0.000000 2.259537 -0.544059 0.000000 2.520015 -0.291786 0.000000 2.676620 0.106142 0.000000 2.658092 0.542436 0.000000 2.289360 1.133549 0.000000 1.632589 1.896901 0.000000 1.330050 1.767529 0.000000 1.171393 0.909008 0.000000 0.000000 0.567588 0.000000 -1.171393 0.909008 0.000000 -1.330050 1.767529 0.000000 -1.632589 1.896901 0.000000 -2.289360 1.133549 0.000000 -2.658092 0.542436 0.000000 -2.676620 0.106142 0.000000 -2.520015 -0.291786 0.000000 -2.259537 -0.544059 0.000000 -1.965509 -0.696100 0.000000 -1.644735 -0.782498 0.000000 -1.334722 -0.804326 0.000000 -1.040493 -0.807934 0.000000 -0.761082 -0.792033 0.000000 -0.499005 -0.776691 0.000000 -0.246201 -0.764100 0.000000 
0.000000 -1.001406 0.000000 0.235267 -1.010522 0.000000 0.480126 -1.032316 0.000000 0.739678 -1.065650 0.000000 1.027480 -1.102429 0.000000 1.344404 -1.123881 0.000000 1.700217 -1.126545 0.000000 2.100894 -1.045940 0.000000 2.486035 -0.882387 0.000000 2.930908 -0.575016 0.000000 3.213098 -0.071067 0.000000 3.136699 0.750089 0.000000 2.591468 1.644654 0.000000 2.275061 1.932182 0.000000 2.292148 1.790764 0.000000 1.416362 2.138738 0.000000 0.000000 2.560057 0.000000 -1.416362 2.138738 0.000000 -2.292148 1.790764 0.000000 -2.275061 1.932182 0.000000 -2.591468 1.644654 0.000000 -3.136699 0.750089 0.000000 -3.213098 -0.071067 0.000000 -2.930908 -0.575016 0.000000 -2.486035 -0.882387 0.000000 -2.100894 -1.045940 0.000000 -1.700217 -1.126545 0.000000 -1.344404 -1.123881 0.000000 -1.027480 -1.102429 0.000000 -0.739678 -1.065650 0.000000 -0.480126 -1.032316 0.000000 -0.235267 -1.010522 0.000000 
0.000000 -1.230199 0.000000 0.215462 -1.244227 0.000000 0.444046 -1.281102 0.000000 0.691922 -1.339387 0.000000 0.982193 -1.412659 0.000000 1.314357 -1.477063 0.000000 1.723951 -1.538989 0.000000 2.203133 -1.481919 0.000000 2.745634 -1.374073 0.000000 3.428950 -1.018848 0.000000 3.724354 -0.099649 0.000000 3.449146 1.164067 0.000000 3.026015 1.995186 0.000000 2.736312 2.196221 0.000000 1.769275 2.626228 0.000000 0.656088 3.201156 0.000000 -0.000000 3.400312 0.000000 -0.656088 3.201156 0.000000 -1.769275 2.626228 0.000000 -2.736312 2.196221 0.000000 -3.026015 1.995186 0.000000 -3.449146 1.164067 0.000000 -3.724354 -0.099649 0.000000 -3.428950 -1.018848 0.000000 -2.745634 -1.374073 0.000000 -2.203133 -1.481919 0.000000 -1.723951 -1.538989 0.000000 -1.314357 -1.477063 0.000000 -0.982193 -1.412659 0.000000 -0.691922 -1.339387 0.000000 -0.444046 -1.281102 0.000000 -0.215462 -1.244227 0.000000 
0.000000 -1.432330 0.000000 0.184479 -1.454568 0.000000 0.385053 -1.508776 0.000000 0.609069 -1.603797 0.000000 0.888973 -1.724863 0.000000 1.224949 -1.865639 0.000000 1.689081 -2.015321 0.000000 2.235989 -2.067624 0.000000 3.081398 -2.108204 0.000000 3.800416 -1.553735 0.000000 3.778480 -0.091263 0.000000 3.454802 1.448428 0.000000 3.121230 2.357488 0.000000 2.415897 3.188922 0.000000 1.306688 3.870989 0.000000 0.596964 3.908013 0.000000 -0.000000 3.872232 0.000000 -0.596964 3.908013 0.000000 -1.306688 3.870989 0.000000 -2.415897 3.188922 0.000000 -3.121230 2.357488 0.000000 -3.454802 1.448428 0.000000 -3.778480 -0.091263 0.000000 -3.800416 -1.553735 0.000000 -3.081398 -2.108204 0.000000 -2.235989 -2.067624 0.000000 -1.689081 -2.015321 0.000000 -1.224949 -1.865639 0.000000 -0.888973 -1.724863 0.000000 -0.609069 -1.603797 0.000000 -0.385053 -1.508776 0.000000 -0.184479 -1.454568 0.000000 
0.000000 -1.599156 0.000000 0.139049 -1.629280 0.000000 0.295029 -1.705693 0.000000 0.476347 -1.843306 0.000000 0.719870 -2.028539 0.000000 1.030136 -2.277171 0.000000 1.501737 -2.550029 0.000000 2.077888 -2.874236 0.000000 3.038359 -2.938500 0.000000 3.075772 -1.715930 0.000000 2.787547 0.245965 0.000000 2.578656 1.821317 0.000000 1.865787 3.034092 0.000000 1.001712 4.010762 0.000000 0.996089 4.445161 0.000000 0.515191 4.507844 0.000000 -0.000000 4.594240 0.000000 -0.515191 4.507844 0.000000 -0.996089 4.445161 0.000000 -1.001712 4.010762 0.000000 -1.865787 3.034092 0.000000 -2.578656 1.821317 0.000000 -2.787547 0.245965 0.000000 -3.075772 -1.715930 0.000000 -3.038359 -2.938500 0.000000 -2.077888 -2.874236 0.000000 -1.501737 -2.550029 0.000000 -1.030136 -2.277171 0.000000 -0.719870 -2.028539 0.000000 -0.476347 -1.843306 0.000000 -0.295029 -1.705693 0.000000 -0.139049 -1.629280 0.000000 
0.000000 -1.710428 0.000000 0.077941 -1.749597 0.000000 0.171367 -1.846074 0.000000 0.286154 -2.028638 0.000000 0.456303 -2.278652 0.000000 0.696659 -2.647506 0.000000 1.052747 -3.063074 0.000000 1.572880 -3.604246 0.000000 1.887231 -3.106088 0.000000 1.517281 -1.302923 0.000000 1.392860 0.405853 0.000000 0.637214 2.370187 0.000000 -0.669999 3.934432 0.000000 -0.562460 4.058620 0.000000 -0.075878 4.357510 0.000000 -0.110890 4.904102 0.000000 0.000000 4.902614 0.000000 0.110890 4.904102 0.000000 0.075878 4.357510 0.000000 0.562460 4.058620 0.000000 0.669999 3.934432 0.000000 -0.637214 2.370187 0.000000 -1.392860 0.405853 0.000000 -1.517281 -1.302923 0.000000 -1.887231 -3.106088 0.000000 -1.572880 -3.604246 0.000000 -1.052747 -3.063074 0.000000 -0.696659 -2.647506 0.000000 -0.456303 -2.278652 0.000000 -0.286154 -2.028638 0.000000 -0.171367 -1.846074 0.000000 -0.077941 -1.749597 0.000000 
0.000000 -1.755037 0.000000 0.003405 -1.800647 0.000000 0.016379 -1.913906 0.000000 0.043324 -2.128242 0.000000 0.100389 -2.439044 0.000000 0.212846 -2.873615 0.000000 0.335686 -3.426250 0.000000 0.555663 -3.708720 0.000000 0.085186 -2.882901 0.000000 0.095095 -1.221559 0.000000 -0.471530 1.126032 0.000000 -2.353749 3.884176 0.000000 -3.068952 4.233766 0.000000 -1.706279 3.416641 0.000000 -1.496288 3.993592 0.000000 -0.682658 4.431966 0.000000 0.000000 4.372460 0.000000 0.682658 4.431966 0.000000 1.496288 3.993592 0.000000 1.706279 3.416641 0.000000 3.068952 4.233766 0.000000 2.353749 3.884176 0.000000 0.471530 1.126032 0.000000 -0.095095 -1.221559 0.000000 -0.085186 -2.882901 0.000000 -0.555663 -3.708720 0.000000 -0.335686 -3.426250 0.000000 -0.212846 -2.873615 0.000000 -0.100389 -2.439044 0.000000 -0.043324 -2.128242 0.000000 -0.016379 -1.913906 0.000000 -0.003405 -1.800647 0.000000 
0.000000 -1.717238 0.000000 -0.080695 -1.765977 0.000000 -0.156055 -1.885993 0.000000 -0.238852 -2.112648 0.000000 -0.301827 -2.448174 0.000000 -0.393261 -2.882803 0.000000 -0.477552 -3.405891 0.000000 -0.803467 -3.353745 0.000000 -1.231923 -2.645520 0.000000 -1.343995 -0.746207 0.000000 -2.723595 2.854697 0.000000 -4.393494 4.967609 0.000000 -3.317403 3.286962 0.000000 -2.101781 2.485956 0.000000 -1.826618 3.333889 0.000000 -0.781505 3.407814 0.000000 0.000000 3.537297 0.000000 0.781505 3.407814 0.000000 1.826618 3.333889 0.000000 2.101781 2.485956 0.000000 3.317403 3.286962 0.000000 4.393494 4.967609 0.000000 2.723595 2.854697 0.000000 1.343995 -0.746207 0.000000 1.231923 -2.645520 0.000000 0.803467 -3.353745 0.000000 0.477552 -3.405891 0.000000 0.393261 -2.882803 0.000000 0.301827 -2.448174 0.000000 0.238852 -2.112648 0.000000 0.156055 -1.885993 0.000000 0.080695 -1.765977 0.000000 
0.000000 -1.593648 0.000000 -0.165030 -1.644592 0.000000 -0.330439 -1.755749 0.000000 -0.521188 -1.982470 0.000000 -0.706264 -2.284634 0.000000 -0.987656 -2.697891 0.000000 -1.249958 -3.016045 0.000000 -1.902180 -2.954348 0.000000 -2.016096 -2.342373 0.000000 -2.613936 0.270113 0.000000 -3.967914 4.175531 0.000000 -4.316809 4.477984 0.000000 -2.508361 1.942053 0.000000 -2.144687 1.925856 0.000000 -1.510122 2.673315 0.000000 -0.731094 2.605348 0.000000 0.000000 2.809450 0.000000 0.731094 2.605348 0.000000 1.510122 2.673315 0.000000 2.144687 1.925856 0.000000 2.508361 1.942053 0.000000 4.316809 4.477984 0.000000 3.967914 4.175531 0.000000 2.613936 0.270113 0.000000 2.016096 -2.342373 0.000000 1.902180 -2.954348 0.000000 1.249958 -3.016045 0.000000 0.987656 -2.697891 0.000000 0.706264 -2.284634 0.000000 0.521188 -1.982470 0.000000 0.330439 -1.755749 0.000000 0.165030 -1.644592 0.000000 
0.000000 -1.387179 0.000000 -0.242388 -1.435538 0.000000 -0.494664 -1.529834 0.000000 -0.775097 -1.736822 0.000000 -1.085901 -1.981706 0.000000 -1.483630 -2.339108 0.000000 -1.936846 -2.491368 0.000000 -2.551658 -2.587607 0.000000 -2.765382 -1.933764 0.000000 -3.448923 1.205611 0.000000 -4.135899 4.557570 0.000000 -3.319542 3.508056 0.000000 -2.097358 1.114841 0.000000 -2.040858 1.487717 0.000000 -1.251219 1.920296 0.000000 -0.670952 1.897692 0.000000 0.000000 2.075110 0.000000 0.670952 1.897692 0.000000 1.251219 1.920296 0.000000 2.040858 1.487717 0.000000 2.097358 1.114841 0.000000 3.319542 3.508056 0.000000 4.135899 4.557570 0.000000 3.448923 1.205611 0.000000 2.765382 -1.933764 0.000000 2.551658 -2.587607 0.000000 1.936846 -2.491368 0.000000 1.483630 -2.339108 0.000000 1.085901 -1.981706 0.000000 0.775097 -1.736822 0.000000 0.494664 -1.529834 0.000000 0.242388 -1.435538 0.000000 
0.000000 -1.108871 0.000000 -0.307370 -1.149928 0.000000 -0.633583 -1.223041 0.000000 -0.985769 -1.391232 0.000000 -1.402276 -1.576101 0.000000 -1.876427 -1.846946 0.000000 -2.474450 -1.948017 0.000000 -3.023927 -2.125812 0.000000 -3.568645 -1.445108 0.000000 -4.045571 1.640630 0.000000 -3.845458 4.046150 0.000000 -2.385470 2.439442 0.000000 -1.822643 0.663370 0.000000 -1.700380 1.079717 0.000000 -1.038901 1.303409 0.000000 -0.578079 1.354130 0.000000 0.000000 1.467547 0.000000 0.578079 1.354130 0.000000 1.038901 1.303409 0.000000 1.700380 1.079717 0.000000 1.822643 0.663370 0.000000 2.385470 2.439442 0.000000 3.845458 4.046150 0.000000 4.045571 1.640630 0.000000 3.568645 -1.445108 0.000000 3.023927 -2.125812 0.000000 2.474450 -1.948017 0.000000 1.876427 -1.846946 0.000000 1.402276 -1.576101 0.000000 0.985769 -1.391232 0.000000 0.633583 -1.223041 0.000000 0.307370 -1.149928 0.000000 
0.000000 -0.772439 0.000000 -0.356212 -0.801955 0.000000 -0.738206 -0.851435 0.000000 -1.142475 -0.968129 0.000000 -1.633713 -1.091048 0.000000 -2.161363 -1.266934 0.000000 -2.841385 -1.343868 0.000000 -3.428516 -1.493412 0.000000 -4.204315 -0.912120 0.000000 -4.437582 1.482423 0.000000 -3.415864 2.897469 0.000000 -1.871765 1.485242 0.000000 -1.661784 0.429750 0.000000 -1.429556 0.703974 0.000000 -0.931180 0.797994 0.000000 -0.510064 0.858792 0.000000 -0.000000 0.918952 0.000000 0.510064 0.858792 0.000000 0.931180 0.797994 0.000000 1.429556 0.703974 0.000000 1.661784 0.429750 0.000000 1.871765 1.485242 0.000000 3.415864 2.897469 0.000000 4.437582 1.482423 0.000000 4.204315 -0.912120 0.000000 3.428516 -1.493412 0.000000 2.841385 -1.343868 0.000000 2.161363 -1.266934 0.000000 1.633713 -1.091048 0.000000 1.142475 -0.968129 0.000000 0.738206 -0.851435 0.000000 0.356212 -0.801955 0.000000 
-0.000000 -0.396447 0.000000 -0.386219 -0.411722 0.000000 -0.801955 -0.436778 0.000000 -1.237654 -0.495726 0.000000 -1.770084 -0.557212 0.000000 -2.328703 -0.639274 0.000000 -3.037019 -0.680864 0.000000 -3.672570 -0.762883 0.000000 -4.530430 -0.436042 0.000000 -4.584690 0.852180 0.000000 -3.048008 1.480333 0.000000 -1.687221 0.685362 0.000000 -1.562766 0.221160 0.000000 -1.257471 0.349114 0.000000 -0.858792 0.383917 0.000000 -0.459476 0.422949 0.000000 -0.000000 0.447419 0.000000 0.459476 0.422949 0.000000 0.858792 0.383917 0.000000 1.257471 0.349114 0.000000 1.562766 0.221160 0.000000 1.687221 0.685362 0.000000 3.048008 1.480333 0.000000 4.584690 0.852180 0.000000 4.530430 -0.436042 0.000000 3.672570 -0.762883 0.000000 3.037019 -0.680864 0.000000 2.328703 -0.639274 0.000000 1.770084 -0.557212 0.000000 1.237654 -0.495726 0.000000 0.801955 -0.436778 0.000000 0.386219 -0.411722 0.000000 
0.000000 -0.000000 0.000000 -0.396447 -0.000000 0.000000 -0.823444 -0.000000 0.000000 -1.270004 -0.000000 0.000000 -1.814896 -0.000000 0.000000 -2.384429 -0.000000 0.000000 -3.093444 -0.000000 0.000000 -3.746157 0.000000 0.000000 -4.619210 0.000000 0.000000 -4.618240 0.000000 0.000000 -2.914850 0.000000 0.000000 -1.657573 0.000000 0.000000 -1.544126 -0.000000 0.000000 -1.215254 -0.000000 0.000000 -0.845899 -0.000000 0.000000 -0.447419 -0.000000 0.000000 -0.000000 -0.000000 0.000000 0.447419 -0.000000 0.000000 0.845899 -0.000000 0.000000 1.215254 -0.000000 0.000000 1.544126 -0.000000 0.000000 1.657573 -0.000000 0.000000 2.914850 -0.000000 0.000000 4.618240 0.000000 0.000000 4.619210 0.000000 0.000000 3.746157 0.000000 0.000000 3.093444 -0.000000 0.000000 2.384429 -0.000000 0.000000 1.814896 -0.000000 0.000000 1.270004 -0.000000 0.000000 0.823444 -0.000000 0.000000 0.396447 -0.000000 0.000000 
-0.000000 0.396447 0.000000 -0.386219 0.411722 0.000000 -0.801955 0.436778 0.000000 -1.237654 0.495726 0.000000 -1.770084 0.557212 0.000000 -2.328703 0.639274 0.000000 -3.037019 0.680864 0.000000 -3.672570 0.762883 0.000000 -4.530430 0.436042 0.000000 -4.584690 -0.852180 0.000000 -3.048008 -1.480333 0.000000 -1.687221 -0.685362 0.000000 -1.562766 -0.221160 0.000000 -1.257471 -0.349114 0.000000 -0.858792 -0.383917 0.000000 -0.459476 -0.422949 0.000000 0.000000 -0.447419 0.000000 0.459476 -0.422949 0.000000 0.858792 -0.383917 0.000000 1.257471 -0.349114 0.000000 1.562766 -0.221160 0.000000 1.687221 -0.685362 0.000000 3.048008 -1.480333 0.000000 4.584690 -0.852180 0.000000 4.530430 0.436042 0.000000 3.672570 0.762883 0.000000 3.037019 0.680864 0.000000 2.328703 0.639274 0.000000 1.770084 0.557212 0.000000 1.237654 0.495726 0.000000 0.801955 0.436778 0.000000 0.386219 0.411722 0.000000 
-0.000000 0.772439 0.000000 -0.356212 0.801955 0.000000 -0.738206 0.851435 0.000000 -1.142475 0.968129 0.000000 -1.633713 1.091048 0.000000 -2.161363 1.266934 0.000000 -2.841385 1.343868 0.000000 -3.428516 1.493412 0.000000 -4.204315 0.912120 0.000000 -4.437582 -1.482423 0.000000 -3.415864 -2.897469 0.000000 -1.871765 -1.485242 0.000000 -1.661784 -0.429750 0.000000 -1.429556 -0.703974 0.000000 -0.931180 -0.797994 0.000000 -0.510064 -0.858792 0.000000 -0.000000 -0.918952 0.000000 0.510064 -0.858792 0.000000 0.931180 -0.797994 0.000000 1.429556 -0.703974 0.000000 1.661784 -0.429750 0.000000 1.871765 -1.485242 0.000000 3.415864 -2.897469 0.000000 4.437582 -1.482423 0.000000 4.204315 0.912120 0.000000 3.428516 1.493412 0.000000 2.841385 1.343868 0.000000 2.161363 1.266934 0.000000 1.633713 1.091048 0.000000 1.142475 0.968129 0.000000 0.738206 0.851435 0.000000 0.356212 0.801955 0.000000 
-0.000000 1.108871 0.000000 -0.307370 1.149928 0.000000 -0.633583 1.223041 0.000000 -0.985769 1.391232 0.000000 -1.402276 1.576101 0.000000 -1.876427 1.846946 0.000000 -2.474450 1.948017 0.000000 -3.023927 2.125812 0.000000 -3.568645 1.445108 0.000000 -4.045571 -1.640630 0.000000 -3.845458 -4.046150 0.000000 -2.385470 -2.439442 0.000000 -1.822643 -0.663370 0.000000 -1.700380 -1.079717 0.000000 -1.038901 -1.303409 0.000000 -0.578079 -1.354130 0.000000 0.000000 -1.467547 0.000000 0.578079 -1.354130 0.000000 1.038901 -1.303409 0.000000 1.700380 -1.079717 0.000000 1.822643 -0.663370 0.000000 2.385470 -2.439442 0.000000 3.845458 -4.046150 0.000000 4.045571 -1.640630 0.000000 3.568645 1.445108 0.000000 3.023927 2.125812 0.000000 2.474450 1.948017 0.000000 1.876427 1.846946 0.000000 1.402276 1.576101 0.000000 0.985769 1.391232 0.000000 0.633583 1.223041 0.000000 0.307370 1.149928 0.000000 
-0.000000 1.387179 0.000000 -0.242388 1.435538 0.000000 -0.494664 1.529834 0.000000 -0.775097 1.736822 0.000000 -1.085901 1.981706 0.000000 -1.483630 2.339108 0.000000 -1.936846 2.491368 0.000000 -2.551658 2.587607 0.000000 -2.765382 1.933764 0.000000 -3.448923 -1.205611 0.000000 -4.135899 -4.557570 0.000000 -3.319542 -3.508056 0.000000 -2.097358 -1.114841 0.000000 -2.040858 -1.487717 0.000000 -1.251219 -1.920296 0.000000 -0.670952 -1.897692 0.000000 0.000000 -2.075110 0.000000 0.670952 -1.897692 0.000000 1.251219 -1.920296 0.000000 2.040858 -1.487717 0.000000 2.097358 -1.114841 0.000000 3.319542 -3.508056 0.000000 4.135899 -4.557570 0.000000 3.448923 -1.205611 0.000000 2.765382 1.933764 0.000000 2.551658 2.587607 0.000000 1.936846 2.491368 0.000000 1.483630 2.339108 0.000000 1.085901 1.981706 0.000000 0.775097 1.736822 0.000000 0.494664 1.529834 0.000000 0.242388 1.435538 0.000000 
-0.000000 1.593648 0.000000 -0.165030 1.644592 0.000000 -0.330439 1.755749 0.000000 -0.521188 1.982470 0.000000 -0.706264 2.284634 0.000000 -0.987656 2.697891 0.000000 -1.249958 3.016045 0.000000 -1.902180 2.954348 0.000000 -2.016096 2.342373 0.000000 -2.613936 -0.270113 0.000000 -3.967914 -4.175531 0.000000 -4.316809 -4.477984 0.000000 -2.508361 -1.942053 0.000000 -2.144687 -1.925856 0.000000 -1.510122 -2.673315 0.000000 -0.731094 -2.605348 0.000000 0.000000 -2.809450 0.000000 0.731094 -2.605348 0.000000 1.510122 -2.673315 0.000000 2.144687 -1.925856 0.000000 2.508361 -1.942053 0.000000 4.316809 -4.477984 0.000000 3.967914 -4.175531 0.000000 2.613936 -0.270113 0.000000 2.016096 2.342373 0.000000 1.902180 2.954348 0.000000 1.249958 3.016045 0.000000 0.987656 2.697891 0.000000 0.706264 2.284634 0.000000 0.521188 1.982470 0.000000 0.330439 1.755749 0.000000 0.165030 1.644592 0.000000 
-0.000000 1.717238 0.000000 -0.080695 1.765977 0.000000 -0.156055 1.885993 0.000000 -0.238852 2.112648 0.000000 -0.301827 2.448174 0.000000 -0.393261 2.882803 0.000000 -0.477552 3.405891 0.000000 -0.803467 3.353745 0.000000 -1.231923 2.645520 0.000000 -1.343995 0.746207 0.000000 -2.723595 -2.854697 0.000000 -4.393494 -4.967609 0.000000 -3.317403 -3.286962 0.000000 -2.101781 -2.485956 0.000000 -1.826618 -3.333889 0.000000 -0.781505 -3.407814 0.000000 0.000000 -3.537297 0.000000 0.781505 -3.407814 0.000000 1.826618 -3.333889 0.000000 2.101781 -2.485956 0.000000 3.317403 -3.286962 0.000000 4.393494 -4.967609 0.000000 2.723595 -2.854697 0.000000 1.343995 0.746207 0.000000 1.231923 2.645520 0.000000 0.803467 3.353745 0.000000 0.477552 3.405891 0.000000 0.393261 2.882803 0.000000 0.301827 2.448174 0.000000 0.238852 2.112648 0.000000 0.156055 1.885993 0.000000 0.080695 1.765977 0.000000 
-0.000000 1.755037 0.000000 0.003405 1.800647 0.000000 0.016379 1.913906 0.000000 0.043324 2.128242 0.000000 0.100389 2.439044 0.000000 0.212846 2.873615 0.000000 0.335686 3.426250 0.000000 0.555663 3.708720 0.000000 0.085186 2.882901 0.000000 0.095095 1.221559 0.000000 -0.471530 -1.126032 0.000000 -2.353749 -3.884176 0.000000 -3.068952 -4.233766 0.000000 -1.706279 -3.416641 0.000000 -1.496288 -3.993592 0.000000 -0.682658 -4.431966 0.000000 -0.000000 -4.372460 0.000000 0.682658 -4.431966 0.000000 1.496288 -3.993592 0.000000 1.706279 -3.416641 0.000000 3.068952 -4.233766 0.000000 2.353749 -3.884176 0.000000 0.471530 -1.126032 0.000000 -0.095095 1.221559 0.000000 -0.085186 2.882901 0.000000 -0.555663 3.708720 0.000000 -0.335686 3.426250 0.000000 -0.212846 2.873615 0.000000 -0.100389 2.439044 0.000000 -0.043324 2.128242 0.000000 -0.016379 1.913906 0.000000 -0.003405 1.800647 0.000000 
-0.000000 1.710428 0.000000 0.077941 1.749597 0.000000 0.171367 1.846074 0.000000 0.286154 2.028638 0.000000 0.456303 2.278652 0.000000 0.696659 2.647506 0.000000 1.052747 3.063074 0.000000 1.572880 3.604246 0.000000 1.887231 3.106088 0.000000 1.517281 1.302923 0.000000 1.392860 -0.405853 0.000000 0.637214 -2.370187 0.000000 -0.669999 -3.934432 0.000000 -0.562460 -4.058620 0.000000 -0.075878 -4.357510 0.000000 -0.110890 -4.904102 0.000000 0.000000 -4.902614 0.000000 0.110890 -4.904102 0.000000 0.075878 -4.357510 0.000000 0.562460 -4.058620 0.000000 0.669999 -3.934432 0.000000 -0.637214 -2.370187 0.000000 -1.392860 -0.405853 0.000000 -1.517281 1.302923 0.000000 -1.887231 3.106088 0.000000 -1.572880 3.604246 0.000000 -1.052747 3.063074 0.000000 -0.696659 2.647506 0.000000 -0.456303 2.278652 0.000000 -0.286154 2.028638 0.000000 -0.171367 1.846074 0.000000 -0.077941 1.749597 0.000000 
-0.000000 1.599156 0.000000 0.139049 1.629280 0.000000 0.295029 1.705693 0.000000 0.476347 1.843306 0.000000 0.719870 2.028539 0.000000 1.030136 2.277171 0.000000 1.501737 2.550029 0.000000 2.077888 2.874236 0.000000 3.038359 2.938500 0.000000 3.075772 1.715930 0.000000 2.787547 -0.245965 0.000000 2.578656 -1.821317 0.000000 1.865787 -3.034092 0.000000 1.001712 -4.010762 0.000000 0.996089 -4.445161 0.000000 0.515191 -4.507844 0.000000 0.000000 -4.594240 0.000000 -0.515191 -4.507844 0.000000 -0.996089 -4.445161 0.000000 -1.001712 -4.010762 0.000000 -1.865787 -3.034092 0.000000 -2.578656 -1.821317 0.000000 -2.787547 -0.245965 0.000000 -3.075772 1.715930 0.000000 -3.038359 2.938500 0.000000 -2.077888 2.874236 0.000000 -1.501737 2.550029 0.000000 -1.030136 2.277171 0.000000 -0.719870 2.028539 0.000000 -0.476347 1.843306 0.000000 -0.295029 1.705693 0.000000 -0.139049 1.629280 0.000000 
-0.000000 1.432330 0.000000 0.184479 1.454568 0.000000 0.385053 1.508776 0.000000 0.609069 1.603797 0.000000 0.888973 1.724863 0.000000 1.224949 1.865639 0.000000 1.689081 2.015321 0.000000 2.235989 2.067624 0.000000 3.081398 2.108204 0.000000 3.800416 1.553735 0.000000 3.778480 0.091263 0.000000 3.454802 -1.448428 0.000000 3.121230 -2.357488 0.000000 2.415897 -3.188922 0.000000 1.306688 -3.870989 0.000000 0.596964 -3.908013 0.000000 0.000000 -3.872232 0.000000 -0.596964 -3.908013 0.000000 -1.306688 -3.870989 0.000000 -2.415897 -3.188922 0.000000 -3.121230 -2.357488 0.000000 -3.454802 -1.448428 0.000000 -3.778480 0.091263 0.000000 -3.800416 1.553735 0.000000 -3.081398 2.108204 0.000000 -2.235989 2.067624 0.000000 -1.689081 2.015321 0.000000 -1.224949 1.865639 0.000000 -0.888973 1.724863 0.000000 -0.609069 1.603797 0.000000 -0.385053 1.508776 0.000000 -0.184479 1.454568 0.000000 
-0.000000 1.230199 0.000000 0.215462 1.244227 0.000000 0.444046 1.281102 0.000000 0.691922 1.339387 0.000000 0.982193 1.412659 0.000000 1.314357 1.477063 0.000000 1.723951 1.538989 0.000000 2.203133 1.481919 0.000000 2.745634 1.374073 0.000000 3.428950 1.018848 0.000000 3.724354 0.099649 0.000000 3.449146 -1.164067 0.000000 3.026015 -1.995186 0.000000 2.736312 -2.196221 0.000000 1.769275 -2.626228 0.000000 0.656088 -3.201156 0.000000 0.000000 -3.400312 0.000000 -0.656088 -3.201156 0.000000 -1.769275 -2.626228 0.000000 -2.736312 -2.196221 0.000000 -3.026015 -1.995186 0.000000 -3.449146 -1.164067 0.000000 -3.724354 0.099649 0.000000 -3.428950 1.018848 0.000000 -2.745634 1.374073 0.000000 -2.203133 1.481919 0.000000 -1.723951 1.538989 0.000000 -1.314357 1.477063 0.000000 -0.982193 1.412659 0.000000 -0.691922 1.339387 0.000000 -0.444046 1.281102 0.000000 -0.215462 1.244227 0.000000 
-0.000000 1.001406 0.000000 0.235267 1.010522 0.000000 0.480126 1.032316 0.000000 0.739678 1.065650 0.000000 1.027480 1.102429 0.000000 1.344404 1.123881 0.000000 1.700217 1.126545 0.000000 2.100894 1.045940 0.000000 2.486035 0.882387 0.000000 2.930908 0.575016 0.000000 3.213098 0.071067 0.000000 3.136699 -0.750089 0.000000 2.591468 -1.644654 0.000000 2.275061 -1.932182 0.000000 2.292148 -1.790764 0.000000 1.416362 -2.138738 0.000000 0.000000 -2.560057 0.000000 -1.416362 -2.138738 0.000000 -2.292148 -1.790764 0.000000 -2.275061 -1.932182 0.000000 -2.591468 -1.644654 0.000000 -3.136699 -0.750089 0.000000 -3.213098 0.071067 0.000000 -2.930908 0.575016 0.000000 -2.486035 0.882387 0.000000 -2.100894 1.045940 0.000000 -1.700217 1.126545 0.000000 -1.344404 1.123881 0.000000 -1.027480 1.102429 0.000000 -0.739678 1.065650 0.000000 -0.480126 1.032316 0.000000 -0.235267 1.010522 0.000000 
-0.000000 0.759664 0.000000 0.246201 0.764100 0.000000 0.499005 0.776691 0.000000 0.761082 0.792033 0.000000 1.040493 0.807934 0.000000 1.334722 0.804326 0.000000 1.644735 0.782498 0.000000 1.965509 0.696100 0.000000 2.259537 0.544059 0.000000 2.520015 0.291786 0.000000 2.676620 -0.106142 0.000000 2.658092 -0.542436 0.000000 2.289360 -1.133549 0.000000 1.632589 -1.896901 0.000000 1.330050 -1.767529 0.000000 1.171393 -0.909008 0.000000 -0.000000 -0.567588 0.000000 -1.171393 -0.909008 0.000000 -1.330050 -1.767529 0.000000 -1.632589 -1.896901 0.000000 -2.289360 -1.133549 0.000000 -2.658092 -0.542436 0.000000 -2.676620 -0.106142 0.000000 -2.520015 0.291786 0.000000 -2.259537 0.544059 0.000000 -1.965509 0.696100 0.000000 -1.644735 0.782498 0.000000 -1.334722 0.804326 0.000000 -1.040493 0.807934 0.000000 -0.761082 0.792033 0.000000 -0.499005 0.776691 0.000000 -0.246201 0.764100 0.000000 
-0.000000 0.509004 0.000000 0.252167 0.511517 0.000000 0.508017 0.517435 0.000000 0.770316 0.524162 0.000000 1.039795 0.528789 0.000000 1.317442 0.519639 0.000000 1.590909 0.495758 0.000000 1.862284 0.431138 0.000000 2.085232 0.327881 0.000000 2.261351 0.157933 0.000000 2.316792 -0.067010 0.000000 2.212552 -0.362829 0.000000 1.959390 -0.619151 0.000000 1.403472 -0.972873 0.000000 0.477622 -1.329568 0.000000 0.087137 -0.808688 0.000000 -0.000000 -0.217271 0.000000 -0.087137 -0.808688 0.000000 -0.477622 -1.329568 0.000000 -1.403472 -0.972873 0.000000 -1.959390 -0.619151 0.000000 -2.212552 -0.362829 0.000000 -2.316792 -0.067010 0.000000 -2.261351 0.157933 0.000000 -2.085232 0.327881 0.000000 -1.862284 0.431138 0.000000 -1.590909 0.495758 0.000000 -1.317442 0.519639 0.000000 -1.039795 0.528789 0.000000 -0.770316 0.524162 0.000000 -0.508017 0.517435 0.000000 -0.252167 0.511517 0.000000 
-0.000000 0.255330 0.000000 0.254502 0.256083 0.000000 0.511517 0.258541 0.000000 0.771936 0.260255 0.000000 1.035680 0.260808 0.000000 1.300726 0.253212 0.000000 1.555318 0.237656 0.000000 1.796484 0.201777 0.000000 1.986456 0.144992 0.000000 2.124365 0.060225 0.000000 2.144389 -0.057344 0.000000 2.057355 -0.185034 0.000000 1.781560 -0.324469 0.000000 1.438204 -0.415133 0.000000 0.808688 -0.451195 0.000000 0.108636 -0.431386 0.000000 0.000000 -0.393313 0.000000 -0.108636 -0.431386 0.000000 -0.808688 -0.451195 0.000000 -1.438204 -0.415133 0.000000 -1.781560 -0.324469 0.000000 -2.057355 -0.185034 0.000000 -2.144389 -0.057344 0.000000 -2.124365 0.060225 0.000000 -1.986456 0.144992 0.000000 -1.796484 0.201777 0.000000 -1.555318 0.237656 0.000000 -1.300726 0.253212 0.000000 -1.035680 0.260808 0.000000 -0.771936 0.260255 0.000000 -0.511517 0.258541 0.000000 -0.254502 0.256083 0.000000 
