# vtk DataFile Version 2.0
Comment goes here
ASCII

DATASET STRUCTURED_POINTS
FIELD FieldData 1
TIME 1 1 double
0.70000000
DIMENSIONS    32   32   1

ORIGIN    0.000   0.000   0.000
SPACING   0.03125 0.03125   1.000

POINT_DATA   1024
VECTORS u double

0.000000 -0.000000 0.000000 0.065578 -0.000000 0.000000 0.120329 -0.000000 0.000000 0.158783 -0.000000 0.000000 0.166333 -0.000000 0.000000 0.147797 -0.000000 0.000000 0.075939 -0.000000 0.000000 -0.023379 -0.000000 0.000000 -0.196978 -0.000000 0.000000 -0.373188 -0.000000 0.000000 -0.615615 -0.000000 0.000000 -0.789197 -0.000000 0.000000 -0.964686 0.000000 0.000000 -0.966624 0.000000 0.000000 -0.857755 0.000000 0.000000 -0.525276 0.000000 0.000000 0.000000 -0.000000 0.000000 0.525276 -0.000000 0.000000 0.857755 -0.000000 0.000000 0.966624 -0.000000 0.000000 0.964686 -0.000000 0.000000 0.789197 0.000000 0.000000 0.615615 0.000000 0.000000 0.373188 0.000000 0.000000 0.196978 0.000000 0.000000 0.023379 0.000000 0.000000 -0.075939 0.000000 0.000000 -0.147797 0.000000 0.000000 -0.166333 0.000000 0.000000 -0.158783 0.000000 0.000000 -0.120329 0.000000 0.000000 -0.065578 -0.000000 0.000000 
-0.000000 -0.065578 0.000000 0.070838 -0.060164 0.000000 0.131143 -0.046602 0.000000 0.175030 -0.023002 0.000000 0.190045 0.005493 0.000000 0.180404 0.045197 0.000000 0.122226 0.085588 0.000000 0.039928 0.136458 0.000000 -0.112187 0.174904 0.000000 -0.265207 0.209318 0.000000 -0.488869 0.208005 0.000000 -0.650031 0.174535 0.000000 -0.833765 0.088714 0.000000 -0.862625 -0.053465 0.000000 -0.796474 -0.220674 0.000000 -0.498917 -0.428878 0.000000 0.000000 -0.525276 0.000000 0.498917 -0.428878 0.000000 0.796474 -0.220674 0.000000 0.862625 -0.053465 0.000000 0.833765 0.088714 0.000000 0.650031 0.174535 0.000000 0.488869 0.208005 0.000000 0.265207 0.209318 0.000000 0.112187 0.174904 0.000000 -0.039928 0.136458 0.000000 -0.122226 0.085588 0.000000 -0.180404 0.045197 0.000000 -0.190045 0.005493 0.000000 -0.175030 -0.023002 0.000000 -0.131143 -0.046602 0.000000 -0.070838 -0.060164 0.000000 
0.000000 -0.141677 0.000000 0.082980 -0.131143 0.000000 0.155215 -0.104192 0.000000 0.209533 -0.058902 0.000000 0.238034 -0.005374 0.000000 0.243950 0.067819 0.000000 0.211527 0.140476 0.000000 0.162404 0.234413 0.000000 0.055868 0.305136 0.000000 -0.045756 0.376682 0.000000 -0.220663 0.384824 0.000000 -0.342139 0.344896 0.000000 -0.523713 0.212594 0.000000 -0.576421 -0.037291 0.000000 -0.601918 -0.363708 0.000000 -0.421966 -0.796474 0.000000 0.000000 -0.997834 0.000000 0.421966 -0.796474 0.000000 0.601918 -0.363708 0.000000 0.576421 -0.037291 0.000000 0.523713 0.212594 0.000000 0.342139 0.344896 0.000000 0.220663 0.384824 0.000000 0.045756 0.376682 0.000000 -0.055868 0.305136 0.000000 -0.162404 0.234413 0.000000 -0.211527 0.140476 0.000000 -0.243950 0.067819 0.000000 -0.238034 -0.005374 0.000000 -0.209533 -0.058902 0.000000 -0.155215 -0.104192 0.000000 -0.082980 -0.131143 0.000000 
-0.000000 -0.231538 0.000000 0.104021 -0.215380 0.000000 0.196843 -0.173156 0.000000 0.268360 -0.105821 0.000000 0.318783 -0.028924 0.000000 0.347605 0.071705 0.000000 0.353472 0.167134 0.000000 0.350429 0.292117 0.000000 0.308263 0.383064 0.000000 0.278416 0.485850 0.000000 0.167358 0.504387 0.000000 0.101529 0.477585 0.000000 -0.099902 0.322996 0.000000 -0.231778 0.024740 0.000000 -0.400203 -0.375129 0.000000 -0.314432 -1.030796 0.000000 0.000000 -1.369208 0.000000 0.314432 -1.030796 0.000000 0.400203 -0.375129 0.000000 0.231778 0.024740 0.000000 0.099902 0.322996 0.000000 -0.101529 0.477585 0.000000 -0.167358 0.504387 0.000000 -0.278416 0.485850 0.000000 -0.308263 0.383064 0.000000 -0.350429 0.292117 0.000000 -0.353472 0.167134 0.000000 -0.347605 0.071705 0.000000 -0.318783 -0.028924 0.000000 -0.268360 -0.105821 0.000000 -0.196843 -0.173156 0.000000 -0.104021 -0.215380 0.000000 
-0.000000 -0.349718 0.000000 0.130845 -0.327986 0.000000 0.248271 -0.268531 0.000000 0.337202 -0.180842 0.000000 0.406996 -0.084619 0.000000 0.451381 0.033131 0.000000 0.486565 0.137652 0.000000 0.515011 0.279621 0.000000 0.524612 0.377149 0.000000 0.550731 0.517587 0.000000 0.501663 0.561711 0.000000 0.497538 0.612156 0.000000 0.338791 0.545901 0.000000 0.289444 0.263010 0.000000 0.011862 -0.281054 0.000000 -0.045621 -1.196677 0.000000 0.000000 -1.626697 0.000000 0.045621 -1.196677 0.000000 -0.011862 -0.281054 0.000000 -0.289444 0.263010 0.000000 -0.338791 0.545901 0.000000 -0.497538 0.612156 0.000000 -0.501663 0.561711 0.000000 -0.550731 0.517587 0.000000 -0.524612 0.377149 0.000000 -0.515011 0.279621 0.000000 -0.486565 0.137652 0.000000 -0.451381 0.033131 0.000000 -0.406996 -0.084619 0.000000 -0.337202 -0.180842 0.000000 -0.248271 -0.268531 0.000000 -0.130845 -0.327986 0.000000 
-0.000000 -0.493227 0.000000 0.161361 -0.463651 0.000000 0.306426 -0.379513 0.000000 0.412867 -0.264546 0.000000 0.502504 -0.143103 0.000000 0.559363 -0.007864 0.000000 0.625702 0.103504 0.000000 0.682595 0.254070 0.000000 0.751714 0.347344 0.000000 0.840410 0.508798 0.000000 0.872435 0.557580 0.000000 1.017455 0.640458 0.000000 0.859083 0.531090 0.000000 0.669306 0.351668 0.000000 0.434117 -0.040064 0.000000 0.474361 -1.018933 0.000000 0.000000 -1.460450 0.000000 -0.474361 -1.018933 0.000000 -0.434117 -0.040064 0.000000 -0.669306 0.351668 0.000000 -0.859083 0.531090 0.000000 -1.017455 0.640458 0.000000 -0.872435 0.557580 0.000000 -0.840410 0.508798 0.000000 -0.751714 0.347344 0.000000 -0.682595 0.254070 0.000000 -0.625702 0.103504 0.000000 -0.559363 -0.007864 0.000000 -0.502504 -0.143103 0.000000 -0.412867 -0.264546 0.000000 -0.306426 -0.379513 0.000000 -0.161361 -0.463651 0.000000 
-0.000000 -0.672441 0.000000 0.193125 -0.634412 0.000000 0.366268 -0.520037 0.000000 0.487522 -0.376920 0.000000 0.591391 -0.231115 0.000000 0.650295 -0.090067 0.000000 0.733979 0.014420 0.000000 0.797104 0.153610 0.000000 0.903332 0.219334 0.000000 0.996231 0.396866 0.000000 1.071855 0.384666 0.000000 1.139473 0.625508 0.000000 0.938732 0.894049 0.000000 1.433529 0.687976 0.000000 1.832474 -0.086108 0.000000 1.396213 -0.762560 0.000000 -0.000000 -0.677976 0.000000 -1.396213 -0.762560 0.000000 -1.832474 -0.086108 0.000000 -1.433529 0.687976 0.000000 -0.938732 0.894049 0.000000 -1.139473 0.625508 0.000000 -1.071855 0.384666 0.000000 -0.996231 0.396866 0.000000 -0.903332 0.219334 0.000000 -0.797104 0.153610 0.000000 -0.733979 0.014420 0.000000 -0.650295 -0.090067 0.000000 -0.591391 -0.231115 0.000000 -0.487522 -0.376920 0.000000 -0.366268 -0.520037 0.000000 -0.193125 -0.634412 0.000000 
-0.000000 -0.879478 0.000000 0.213585 -0.829919 0.000000 0.405145 -0.673910 0.000000 0.532086 -0.489669 0.000000 0.643671 -0.305876 0.000000 0.697616 -0.150452 0.000000 0.802723 -0.043305 0.000000 0.869305 0.084717 0.000000 1.046497 0.148216 0.000000 1.072099 0.340274 0.000000 1.213842 0.414338 0.000000 1.590148 0.773581 0.000000 2.122144 0.237034 0.000000 2.498541 -0.542074 0.000000 2.012301 -0.002749 0.000000 0.996742 0.813541 0.000000 -0.000000 1.331977 0.000000 -0.996742 0.813541 0.000000 -2.012301 -0.002749 0.000000 -2.498541 -0.542074 0.000000 -2.122144 0.237034 0.000000 -1.590148 0.773581 0.000000 -1.213842 0.414338 0.000000 -1.072099 0.340274 0.000000 -1.046497 0.148216 0.000000 -0.869305 0.084717 0.000000 -0.802723 -0.043305 0.000000 -0.697616 -0.150452 0.000000 -0.643671 -0.305876 0.000000 -0.532086 -0.489669 0.000000 -0.405145 -0.673910 0.000000 -0.213585 -0.829919 0.000000 
-0.000000 -1.099611 0.000000 0.222978 -1.039556 0.000000 0.424652 -0.838537 0.000000 0.550716 -0.615446 0.000000 0.665796 -0.396645 0.000000 0.711075 -0.249119 0.000000 0.832408 -0.157269 0.000000 0.915627 -0.090164 0.000000 1.098358 0.016539 0.000000 1.086758 0.229520 0.000000 1.448517 -0.133383 0.000000 1.455177 -0.282794 0.000000 1.405201 -0.014343 0.000000 0.539236 0.797819 0.000000 -0.224632 1.415690 0.000000 -0.255638 1.249741 0.000000 -0.000000 1.315509 0.000000 0.255638 1.249741 0.000000 0.224632 1.415690 0.000000 -0.539236 0.797819 0.000000 -1.405201 -0.014343 0.000000 -1.455177 -0.282794 0.000000 -1.448517 -0.133383 0.000000 -1.086758 0.229520 0.000000 -1.098358 0.016539 0.000000 -0.915627 -0.090164 0.000000 -0.832408 -0.157269 0.000000 -0.711075 -0.249119 0.000000 -0.665796 -0.396645 0.000000 -0.550716 -0.615446 0.000000 -0.424652 -0.838537 0.000000 -0.222978 -1.039556 0.000000 
0.000000 -1.325433 0.000000 0.200471 -1.254570 0.000000 0.381878 -1.001648 0.000000 0.482538 -0.730813 0.000000 0.578714 -0.466235 0.000000 0.604277 -0.317064 0.000000 0.735429 -0.247857 0.000000 0.868425 -0.181233 0.000000 0.848706 -0.022914 0.000000 0.581391 -0.009885 0.000000 0.598511 0.045920 0.000000 -0.109032 0.816897 0.000000 -0.774430 1.152975 0.000000 -0.888913 1.087759 0.000000 -0.463958 0.792126 0.000000 -0.053788 0.588909 0.000000 -0.000000 0.820700 0.000000 0.053788 0.588909 0.000000 0.463958 0.792126 0.000000 0.888913 1.087759 0.000000 0.774430 1.152975 0.000000 0.109032 0.816897 0.000000 -0.598511 0.045920 0.000000 -0.581391 -0.009885 0.000000 -0.848706 -0.022914 0.000000 -0.868425 -0.181233 0.000000 -0.735429 -0.247857 0.000000 -0.604277 -0.317064 0.000000 -0.578714 -0.466235 0.000000 -0.482538 -0.730813 0.000000 -0.381878 -1.001648 0.000000 -0.200471 -1.254570 0.000000 
0.000000 -1.500553 0.000000 0.159855 -1.421434 0.000000 0.305320 -1.120604 0.000000 0.371351 -0.812282 0.000000 0.448588 -0.518384 0.000000 0.443157 -0.405834 0.000000 0.581856 -0.421417 0.000000 0.446035 -0.203442 0.000000 -0.182323 0.303573 0.000000 -0.247900 0.479715 0.000000 -0.484537 0.557040 0.000000 -0.672983 1.090147 0.000000 -0.331303 0.765537 0.000000 0.023006 0.487347 0.000000 0.233385 0.580565 0.000000 0.128881 0.785783 0.000000 0.000000 1.207933 0.000000 -0.128881 0.785783 0.000000 -0.233385 0.580565 0.000000 -0.023006 0.487347 0.000000 0.331303 0.765537 0.000000 0.672983 1.090147 0.000000 0.484537 0.557040 0.000000 0.247900 0.479715 0.000000 0.182323 0.303573 0.000000 -0.446035 -0.203442 0.000000 -0.581856 -0.421417 0.000000 -0.443157 -0.405834 0.000000 -0.448588 -0.518384 0.000000 -0.371351 -0.812282 0.000000 -0.305320 -1.120604 0.000000 -0.159855 -1.421434 0.000000 
0.000000 -1.645142 0.000000 0.074681 -1.559890 0.000000 0.135113 -1.213144 0.000000 0.124263 -0.874081 0.000000 0.123052 -0.538041 0.000000 -0.016596 -0.450331 0.000000 -0.016127 -0.250736 0.000000 -0.872478 0.582946 0.000000 -1.276071 0.671021 0.000000 -0.399869 0.292329 0.000000 -0.744920 0.471004 0.000000 -0.773832 0.663663 0.000000 -0.321236 0.456986 0.000000 -0.283281 0.523071 0.000000 -0.139973 0.686251 0.000000 -0.169085 0.822294 0.000000 0.000000 1.078461 0.000000 0.169085 0.822294 0.000000 0.139973 0.686251 0.000000 0.283281 0.523071 0.000000 0.321236 0.456986 0.000000 0.773832 0.663663 0.000000 0.744920 0.471004 0.000000 0.399869 0.292329 0.000000 1.276071 0.671021 0.000000 0.872478 0.582946 0.000000 0.016127 -0.250736 0.000000 0.016596 -0.450331 0.000000 -0.123052 -0.538041 0.000000 -0.124263 -0.874081 0.000000 -0.135113 -1.213144 0.000000 -0.074681 -1.559890 0.000000 
0.000000 -1.649915 0.000000 -0.034213 -1.556548 0.000000 -0.077412 -1.170186 0.000000 -0.147239 -0.800221 0.000000 -0.209457 -0.377525 0.000000 -0.368627 -0.266656 0.000000 -0.494008 0.434464 0.000000 -1.486716 1.056503 0.000000 -0.756792 -0.169036 0.000000 -0.012097 -0.051436 0.000000 -0.982278 0.931004 0.000000 -0.902243 0.666463 0.000000 -0.662298 0.274985 0.000000 -0.574345 0.306084 0.000000 -0.348922 0.466370 0.000000 -0.233738 0.645810 0.000000 0.000000 0.869763 0.000000 0.233738 0.645810 0.000000 0.348922 0.466370 0.000000 0.574345 0.306084 0.000000 0.662298 0.274985 0.000000 0.902243 0.666463 0.000000 0.982278 0.931004 0.000000 0.012097 -0.051436 0.000000 0.756792 -0.169036 0.000000 1.486716 1.056503 0.000000 0.494008 0.434464 0.000000 0.368627 -0.266656 0.000000 0.209457 -0.377525 0.000000 0.147239 -0.800221 0.000000 0.077412 -1.170186 0.000000 0.034213 -1.556548 0.000000 
0.000000 -1.576715 0.000000 -0.198783 -1.482478 0.000000 -0.403131 -1.100119 0.000000 -0.549892 -0.742036 0.000000 -0.750259 -0.316653 0.000000 -0.840305 -0.165781 0.000000 -1.235180 0.867353 0.000000 -1.292332 0.845730 0.000000 -0.359685 -0.803598 0.000000 -0.645402 0.517815 0.000000 -1.168165 1.361149 0.000000 -0.850055 0.343684 0.000000 -0.632670 0.129088 0.000000 -0.574379 0.209695 0.000000 -0.392504 0.345645 0.000000 -0.265293 0.473372 0.000000 0.000000 0.610985 0.000000 0.265293 0.473372 0.000000 0.392504 0.345645 0.000000 0.574379 0.209695 0.000000 0.632670 0.129088 0.000000 0.850055 0.343684 0.000000 1.168165 1.361149 0.000000 0.645402 0.517815 0.000000 0.359685 -0.803598 0.000000 1.292332 0.845730 0.000000 1.235180 0.867353 0.000000 0.840305 -0.165781 0.000000 0.750259 -0.316653 0.000000 0.549892 -0.742036 0.000000 0.403131 -1.100119 0.000000 0.198783 -1.482478 0.000000 
0.000000 -1.252349 0.000000 -0.416152 -1.153417 0.000000 -0.813339 -0.819077 0.000000 -1.063239 -0.453092 0.000000 -1.344925 -0.087111 0.000000 -1.343190 0.218265 0.000000 -1.705367 0.886490 0.000000 -0.936363 0.181007 0.000000 -0.754454 -0.815965 0.000000 -1.394742 0.757044 0.000000 -0.872721 1.135656 0.000000 -0.668222 0.130968 0.000000 -0.564935 -0.000691 0.000000 -0.512369 0.065918 0.000000 -0.361923 0.157284 0.000000 -0.230414 0.253306 0.000000 0.000000 0.339176 0.000000 0.230414 0.253306 0.000000 0.361923 0.157284 0.000000 0.512369 0.065918 0.000000 0.564935 -0.000691 0.000000 0.668222 0.130968 0.000000 0.872721 1.135656 0.000000 1.394742 0.757044 0.000000 0.754454 -0.815965 0.000000 0.936363 0.181007 0.000000 1.705367 0.886490 0.000000 1.343190 0.218265 0.000000 1.344925 -0.087111 0.000000 1.063239 -0.453092 0.000000 0.813339 -0.819077 0.000000 0.416152 -1.153417 0.000000 
0.000000 -0.744411 0.000000 -0.626175 -0.669139 0.000000 -1.153417 -0.453032 0.000000 -1.445252 -0.210450 0.000000 -1.606509 -0.036701 0.000000 -1.532363 0.194661 0.000000 -1.388244 0.460526 0.000000 -0.645873 -0.105184 0.000000 -1.207237 -0.345219 0.000000 -1.461838 0.636082 0.000000 -0.450192 0.634629 0.000000 -0.326182 0.035897 0.000000 -0.319224 -0.026765 0.000000 -0.326873 0.006683 0.000000 -0.253306 0.063690 0.000000 -0.169588 0.111449 0.000000 -0.000000 0.150157 0.000000 0.169588 0.111449 0.000000 0.253306 0.063690 0.000000 0.326873 0.006683 0.000000 0.319224 -0.026765 0.000000 0.326182 0.035897 0.000000 0.450192 0.634629 0.000000 1.461838 0.636082 0.000000 1.207237 -0.345219 0.000000 0.645873 -0.105184 0.000000 1.388244 0.460526 0.000000 1.532363 0.194661 0.000000 1.606509 -0.036701 0.000000 1.445252 -0.210450 0.000000 1.153417 -0.453032 0.000000 0.626175 -0.669139 0.000000 
-0.000000 0.000000 0.000000 -0.744411 0.000000 0.000000 -1.338278 0.000000 0.000000 -1.650476 0.000000 0.000000 -1.759178 0.000000 0.000000 -1.723879 -0.000000 0.000000 -1.369855 -0.000000 0.000000 -0.802826 -0.000000 0.000000 -1.580223 -0.000000 0.000000 -1.493264 0.000000 0.000000 -0.308059 -0.000000 0.000000 -0.224006 -0.000000 0.000000 -0.236264 -0.000000 0.000000 -0.277536 0.000000 0.000000 -0.222898 -0.000000 0.000000 -0.150157 0.000000 0.000000 -0.000000 -0.000000 0.000000 0.150157 -0.000000 0.000000 0.222898 -0.000000 0.000000 0.277536 -0.000000 0.000000 0.236264 -0.000000 0.000000 0.224006 -0.000000 0.000000 0.308059 0.000000 0.000000 1.493264 0.000000 0.000000 1.580223 0.000000 0.000000 0.802826 0.000000 0.000000 1.369855 -0.000000 0.000000 1.723879 -0.000000 0.000000 1.759178 -0.000000 0.000000 1.650476 0.000000 0.000000 1.338278 0.000000 0.000000 0.744411 0.000000 0.000000 
-0.000000 0.744411 0.000000 -0.626175 0.669139 0.000000 -1.153417 0.453032 0.000000 -1.445252 0.210450 0.000000 -1.606509 0.036701 0.000000 -1.532363 -0.194661 0.000000 -1.388244 -0.460526 0.000000 -0.645873 0.105184 0.000000 -1.207237 0.345219 0.000000 -1.461838 -0.636082 0.000000 -0.450192 -0.634629 0.000000 -0.326182 -0.035897 0.000000 -0.319224 0.026765 0.000000 -0.326873 -0.006683 0.000000 -0.253306 -0.063690 0.000000 -0.169588 -0.111449 0.000000 -0.000000 -0.150157 0.000000 0.169588 -0.111449 0.000000 0.253306 -0.063690 0.000000 0.326873 -0.006683 0.000000 0.319224 0.026765 0.000000 0.326182 -0.035897 0.000000 0.450192 -0.634629 0.000000 1.461838 -0.636082 0.000000 1.207237 0.345219 0.000000 0.645873 0.105184 0.000000 1.388244 -0.460526 0.000000 1.532363 -0.194661 0.000000 1.606509 0.036701 0.000000 1.445252 0.210450 0.000000 1.153417 0.453032 0.000000 0.626175 0.669139 0.000000 
-0.000000 1.252349 0.000000 -0.416152 1.153417 0.000000 -0.813339 0.819077 0.000000 -1.063239 0.453092 0.000000 -1.344925 0.087111 0.000000 -1.343190 -0.218265 0.000000 -1.705367 -0.886490 0.000000 -0.936363 -0.181007 0.000000 -0.754454 0.815965 0.000000 -1.394742 -0.757044 0.000000 -0.872721 -1.135656 0.000000 -0.668222 -0.130968 0.000000 -0.564935 0.000691 0.000000 -0.512369 -0.065918 0.000000 -0.361923 -0.157284 0.000000 -0.230414 -0.253306 0.000000 -0.000000 -0.339176 0.000000 0.230414 -0.253306 0.000000 0.361923 -0.157284 0.000000 0.512369 -0.065918 0.000000 0.564935 0.000691 0.000000 0.668222 -0.130968 0.000000 0.872721 -1.135656 0.000000 1.394742 -0.757044 0.000000 0.754454 0.815965 0.000000 0.936363 -0.181007 0.000000 1.705367 -0.886490 0.000000 1.343190 -0.218265 0.000000 1.344925 0.087111 0.000000 1.063239 0.453092 0.000000 0.813339 0.819077 0.000000 0.416152 1.153417 0.000000 
-0.000000 1.576715 0.000000 -0.198783 1.482478 0.000000 -0.403131 1.100119 0.000000 -0.549892 0.742036 0.000000 -0.750259 0.316653 0.000000 -0.840305 0.165781 0.000000 -1.235180 -0.867353 0.000000 -1.292332 -0.845730 0.000000 -0.359685 0.803598 0.000000 -0.645402 -0.517815 0.000000 -1.168165 -1.361149 0.000000 -0.850055 -0.343684 0.000000 -0.632670 -0.129088 0.000000 -0.574379 -0.209695 0.000000 -0.392504 -0.345645 0.000000 -0.265293 -0.473372 0.000000 -0.000000 -0.610985 0.000000 0.265293 -0.473372 0.000000 0.392504 -0.345645 0.000000 0.574379 -0.209695 0.000000 0.632670 -0.129088 0.000000 0.850055 -0.343684 0.000000 1.168165 -1.361149 0.000000 0.645402 -0.517815 0.000000 0.359685 0.803598 0.000000 1.292332 -0.845730 0.000000 1.235180 -0.867353 0.000000 0.840305 0.165781 0.000000 0.750259 0.316653 0.000000 0.549892 0.742036 0.000000 0.403131 1.100119 0.000000 0.198783 1.482478 0.000000 
-0.000000 1.649915 0.000000 -0.034213 1.556548 0.000000 -0.077412 1.170186 0.000000 -0.147239 0.800221 0.000000 -0.209457 0.377525 0.000000 -0.368627 0.266656 0.000000 -0.494008 -0.434464 0.000000 -1.486716 -1.056503 0.000000 -0.756792 0.169036 0.000000 -0.012097 0.051436 0.000000 -0.982278 -0.931004 0.000000 -0.902243 -0.666463 0.000000 -0.662298 -0.274985 0.000000 -0.574345 -0.306084 0.000000 -0.348922 -0.466370 0.000000 -0.233738 -0.645810 0.000000 -0.000000 -0.869763 0.000000 0.233738 -0.645810 0.000000 0.348922 -0.466370 0.000000 0.574345 -0.306084 0.000000 0.662298 -0.274985 0.000000 0.902243 -0.666463 0.000000 0.982278 -0.931004 0.000000 0.012097 0.051436 0.000000 0.756792 0.169036 0.000000 1.486716 -1.056503 0.000000 0.494008 -0.434464 0.000000 0.368627 0.266656 0.000000 0.209457 0.377525 0.000000 0.147239 0.800221 0.000000 0.077412 1.170186 0.000000 0.034213 1.556548 0.000000 
-0.000000 1.645142 0.000000 0.074681 1.559890 0.000000 0.135113 1.213144 0.000000 0.124263 0.874081 0.000000 0.123052 0.538041 0.000000 -0.016596 0.450331 0.000000 -0.016127 0.250736 0.000000 -0.872478 -0.582946 0.000000 -1.276071 -0.671021 0.000000 -0.399869 -0.292329 0.000000 -0.744920 -0.471004 0.000000 -0.773832 -0.663663 0.000000 -0.321236 -0.456986 0.000000 -0.283281 -0.523071 0.000000 -0.139973 -0.686251 0.000000 -0.169085 -0.822294 0.000000 -0.000000 -1.078461 0.000000 0.169085 -0.822294 0.000000 0.139973 -0.686251 0.000000 0.283281 -0.523071 0.000000 0.321236 -0.456986 0.000000 0.773832 -0.663663 0.000000 0.744920 -0.471004 0.000000 0.399869 -0.292329 0.000000 1.276071 -0.671021 0.000000 0.872478 -0.582946 0.000000 0.016127 0.250736 0.000000 0.016596 0.450331 0.000000 -0.123052 0.538041 0.000000 -0.124263 0.874081 0.000000 -0.135113 1.213144 0.000000 -0.074681 1.559890 0.000000 
-0.000000 1.500553 0.000000 0.159855 1.421434 0.000000 0.305320 1.120604 0.000000 0.371351 0.812282 0.000000 0.448588 0.518384 0.000000 0.443157 0.405834 0.000000 0.581856 0.421417 0.000000 0.446035 0.203442 0.000000 -0.182323 -0.303573 0.000000 -0.247900 -0.479715 0.000000 -0.484537 -0.557040 0.000000 -0.672983 -1.090147 0.000000 -0.331303 -0.765537 0.000000 0.023006 -0.487347 0.000000 0.233385 -0.580565 0.000000 0.128881 -0.785783 0.000000 0.000000 -1.207933 0.000000 -0.128881 -0.785783 0.000000 -0.233385 -0.580565 0.000000 -0.023006 -0.487347 0.000000 0.331303 -0.765537 0.000000 0.672983 -1.090147 0.000000 0.484537 -0.557040 0.000000 0.247900 -0.479715 0.000000 0.182323 -0.303573 0.000000 -0.446035 0.203442 0.000000 -0.581856 0.421417 0.000000 -0.443157 0.405834 0.000000 -0.448588 0.518384 0.000000 -0.371351 0.812282 0.000000 -0.305320 1.120604 0.000000 -0.159855 1.421434 0.000000 
0.000000 1.325433 0.000000 0.200471 1.254570 0.000000 0.381878 1.001648 0.000000 0.482538 0.730813 0.000000 0.578714 0.466235 0.000000 0.604277 0.317064 0.000000 0.735429 0.247857 0.000000 0.868425 0.181233 0.000000 0.848706 0.022914 0.000000 0.581391 0.009885 0.000000 0.598511 -0.045920 0.000000 -0.109032 -0.816897 0.000000 -0.774430 -1.152975 0.000000 -0.888913 -1.087759 0.000000 -0.463958 -0.792126 0.000000 -0.053788 -0.588909 0.000000 0.000000 -0.820700 0.000000 0.053788 -0.588909 0.000000 0.463958 -0.792126 0.000000 0.888913 -1.087759 0.000000 0.774430 -1.152975 0.000000 0.109032 -0.816897 0.000000 -0.598511 -0.045920 0.000000 -0.581391 0.009885 0.000000 -0.848706 0.022914 0.000000 -0.868425 0.181233 0.000000 -0.735429 0.247857 0.000000 -0.604277 0.317064 0.000000 -0.578714 0.466235 0.000000 -0.482538 0.730813 0.000000 -0.381878 1.001648 0.000000 -0.200471 1.254570 0.000000 
0.000000 1.099611 0.000000 0.222978 1.039556 0.000000 0.424652 0.838537 0.000000 0.550716 0.615446 0.000000 0.665796 0.396645 0.000000 0.711075 0.249119 0.000000 0.832408 0.157269 0.000000 0.915627 0.090164 0.000000 1.098358 -0.016539 0.000000 1.086758 -0.229520 0.000000 1.448517 0.133383 0.000000 1.455177 0.282794 0.000000 1.405201 0.014343 0.000000 0.539236 -0.797819 0.000000 -0.224632 -1.415690 0.000000 -0.255638 -1.249741 0.000000 0.000000 -1.315509 0.000000 0.255638 -1.249741 0.000000 0.224632 -1.415690 0.000000 -0.539236 -0.797819 0.000000 -1.405201 0.014343 0.000000 -1.455177 0.282794 0.000000 -1.448517 0.133383 0.000000 -1.086758 -0.229520 0.000000 -1.098358 -0.016539 0.000000 -0.915627 0.090164 0.000000 -0.832408 0.157269 0.000000 -0.711075 0.249119 0.000000 -0.665796 0.396645 0.000000 -0.550716 0.615446 0.000000 -0.424652 0.838537 0.000000 -0.222978 1.039556 0.000000 
0.000000 0.879478 0.000000 0.213585 0.829919 0.000000 0.405145 0.673910 0.000000 0.532086 0.489669 0.000000 0.643671 0.305876 0.000000 0.697616 0.150452 0.000000 0.802723 0.043305 0.000000 0.869305 -0.084717 0.000000 1.046497 -0.148216 0.000000 1.072099 -0.340274 0.000000 1.213842 -0.414338 0.000000 1.590148 -0.773581 0.000000 2.122144 -0.237034 0.000000 2.498541 0.542074 0.000000 2.012301 0.002749 0.000000 0.996742 -0.813541 0.000000 -0.000000 -1.331977 0.000000 -0.996742 -0.813541 0.000000 -2.012301 0.002749 0.000000 -2.498541 0.542074 0.000000 -2.122144 -0.237034 0.000000 -1.590148 -0.773581 0.000000 -1.213842 -0.414338 0.000000 -1.072099 -0.340274 0.000000 -1.046497 -0.148216 0.000000 -0.869305 -0.084717 0.000000 -0.802723 0.043305 0.000000 -0.697616 0.150452 0.000000 -0.643671 0.305876 0.000000 -0.532086 0.489669 0.000000 -0.405145 0.673910 0.000000 -0.213585 0.829919 0.000000 
0.000000 0.672441 0.000000 0.193125 0.634412 0.000000 0.366268 0.520037 0.000000 0.487522 0.376920 0.000000 0.591391 0.231115 0.000000 0.650295 0.090067 0.000000 0.733979 -0.014420 0.000000 0.797104 -0.153610 0.000000 0.903332 -0.219334 0.000000 0.996231 -0.396866 0.000000 1.071855 -0.384666 0.000000 1.139473 -0.625508 0.000000 0.938732 -0.894049 0.000000 1.433529 -0.687976 0.000000 1.832474 0.086108 0.000000 1.396213 0.762560 0.000000 -0.000000 0.677976 0.000000 -1.396213 0.762560 0.000000 -1.832474 0.086108 0.000000 -1.433529 -0.687976 0.000000 -0.938732 -0.894049 0.000000 -1.139473 -0.625508 0.000000 -1.071855 -0.384666 0.000000 -0.996231 -0.396866 0.000000 -0.903332 -0.219334 0.000000 -0.797104 -0.153610 0.000000 -0.733979 -0.014420 0.000000 -0.650295 0.090067 0.000000 -0.591391 0.231115 0.000000 -0.487522 0.376920 0.000000 -0.366268 0.520037 0.000000 -0.193125 0.634412 0.000000 
0.000000 0.493227 0.000000 0.161361 0.463651 0.000000 0.306426 0.379513 0.000000 0.412867 0.264546 0.000000 0.502504 0.143103 0.000000 0.559363 0.007864 0.000000 0.625702 -0.103504 0.000000 0.682595 -0.254070 0.000000 0.751714 -0.347344 0.000000 0.840410 -0.508798 0.000000 0.872435 -0.557580 0.000000 1.017455 -0.640458 0.000000 0.859083 -0.531090 0.000000 0.669306 -0.351668 0.000000 0.434117 0.040064 0.000000 0.474361 1.018933 0.000000 -0.000000 1.460450 0.000000 -0.474361 1.018933 0.000000 -0.434117 0.040064 0.000000 -0.669306 -0.351668 0.000000 -0.859083 -0.531090 0.000000 -1.017455 -0.640458 0.000000 -0.872435 -0.557580 0.000000 -0.840410 -0.508798 0.000000 -0.751714 -0.347344 0.000000 -0.682595 -0.254070 0.000000 -0.625702 -0.103504 0.000000 -0.559363 0.007864 0.000000 -0.502504 0.143103 0.000000 -0.412867 0.264546 0.000000 -0.306426 0.379513 0.000000 -0.161361 0.463651 0.000000 
0.000000 0.349718 0.000000 0.130845 0.327986 0.000000 0.248271 0.268531 0.000000 0.337202 0.180842 0.000000 0.406996 0.084619 0.000000 0.451381 -0.033131 0.000000 0.486565 -0.137652 0.000000 0.515011 -0.279621 0.000000 0.524612 -0.377149 0.000000 0.550731 -0.517587 0.000000 0.501663 -0.561711 0.000000 0.497538 -0.612156 0.000000 0.338791 -0.545901 0.000000 0.289444 -0.263010 0.000000 0.011862 0.281054 0.000000 -0.045621 1.196677 0.000000 -0.000000 1.626697 0.000000 0.045621 1.196677 0.000000 -0.011862 0.281054 0.000000 -0.289444 -0.263010 0.000000 -0.338791 -0.545901 0.000000 -0.497538 -0.612156 0.000000 -0.501663 -0.561711 0.000000 -0.550731 -0.517587 0.000000 -0.524612 -0.377149 0.000000 -0.515011 -0.279621 0.000000 -0.486565 -0.137652 0.000000 -0.451381 -0.033131 0.000000 -0.406996 0.084619 0.000000 -0.337202 0.180842 0.000000 -0.248271 0.268531 0.000000 -0.130845 0.327986 0.000000 
0.000000 0.231538 0.000000 0.104021 0.215380 0.000000 0.196843 0.173156 0.000000 0.268360 0.105821 0.000000 0.318783 0.028924 0.000000 0.347605 -0.071705 0.000000 0.353472 -0.167134 0.000000 0.350429 -0.292117 0.000000 0.308263 -0.383064 0.000000 0.278416 -0.485850 0.000000 0.167358 -0.504387 0.000000 0.101529 -0.477585 0.000000 -0.099902 -0.322996 0.000000 -0.231778 -0.024740 0.000000 -0.400203 0.375129 0.000000 -0.314432 1.030796 0.000000 -0.000000 1.369208 0.000000 0.314432 1.030796 0.000000 0.400203 0.375129 0.000000 0.231778 -0.024740 0.000000 0.099902 -0.322996 0.000000 -0.101529 -0.477585 0.000000 -0.167358 -0.504387 0.000000 -0.278416 -0.485850 0.000000 -0.308263 -0.383064 0.000000 -0.350429 -0.292117 0.000000 -0.353472 -0.167134 0.000000 -0.347605 -0.071705 0.000000 -0.318783 0.028924 0.000000 -0.268360 0.105821 0.000000 -0.196843 0.173156 0.000000 -0.104021 0.215380 0.000000 
0.000000 0.141677 0.000000 0.082980 0.131143 0.000000 0.155215 0.104192 0.000000 0.209533 0.058902 0.000000 0.238034 0.005374 0.000000 0.243950 -0.067819 0.000000 0.211527 -0.140476 0.000000 0.162404 -0.234413 0.000000 0.055868 -0.305136 0.000000 -0.045756 -0.376682 0.000000 -0.220663 -0.384824 0.000000 -0.342139 -0.344896 0.000000 -0.523713 -0.212594 0.000000 -0.576421 0.037291 0.000000 -0.601918 0.363708 0.000000 -0.421966 0.796474 0.000000 0.000000 0.997834 0.000000 0.421966 0.796474 0.000000 0.601918 0.363708 0.000000 0.576421 0.037291 0.000000 0.523713 -0.212594 0.000000 0.342139 -0.344896 0.000000 0.220663 -0.384824 0.000000 0.045756 -0.376682 0.000000 -0.055868 -0.305136 0.000000 -0.162404 -0.234413 0.000000 -0.211527 -0.140476 0.000000 -0.243950 -0.067819 0.000000 -0.238034 0.005374 0.000000 -0.209533 0.058902 0.000000 -0.155215 0.104192 0.000000 -0.082980 0.131143 0.000000 
-0.000000 0.065578 0.000000 0.070838 0.060164 0.000000 0.131143 0.046602 0.000000 0.175030 0.023002 0.000000 0.190045 -0.005493 0.000000 0.180404 -0.045197 0.000000 0.122226 -0.085588 0.000000 0.039928 -0.136458 0.000000 -0.112187 -0.174904 0.000000 -0.265207 -0.209318 0.000000 -0.488869 -0.208005 0.000000 -0.650031 -0.174535 0.000000 -0.833765 -0.088714 0.000000 -0.862625 0.053465 0.000000 -0.796474 0.220674 0.000000 -0.498917 0.428878 0.000000 0.000000 0.525276 0.000000 0.498917 0.428878 0.000000 0.796474 0.220674 0.000000 0.862625 0.053465 0.000000 0.833765 -0.088714 0.000000 0.650031 -0.174535 0.000000 0.488869 -0.208005 0.000000 0.265207 -0.209318 0.000000 0.112187 -0.174904 0.000000 -0.039928 -0.136458 0.000000 -0.122226 -0.085588 0.000000 -0.180404 -0.045197 0.000000 -0.190045 -0.005493 0.000000 -0.175030 0.023002 0.000000 -0.131143 0.046602 0.000000 -0.070838 0.060164 0.000000 
