# vtk DataFile Version 2.0
Comment goes here
ASCII

DATASET STRUCTURED_POINTS
FIELD FieldData 1
TIME 1 1 double
1.02000000
DIMENSIONS    32   32   1

ORIGIN    0.000   0.000   0.000
SPACING   0.03125 0.03125   1.000

POINT_DATA   1024
VECTORS u double

-0.000000 -0.000000 0.000000 0.027466 -0.000000 0.000000 0.037273 -0.000000 0.000000 0.021680 -0.000000 0.000000 -0.036947 -0.000000 0.000000 -0.133591 0.000000 0.000000 -0.278810 0.000000 0.000000 -0.457393 0.000000 0.000000 -0.661691 0.000000 0.000000 -0.873309 0.000000 0.000000 -1.059135 0.000000 0.000000 -1.206242 0.000000 0.000000 -1.256463 0.000000 0.000000 -1.195646 0.000000 0.000000 -0.970034 0.000000 0.000000 -0.567939 0.000000 0.000000 0.000000 0.000000 0.000000 0.567939 -0.000000 0.000000 0.970034 -0.000000 0.000000 1.195646 -0.000000 0.000000 1.256463 -0.000000 0.000000 1.206242 -0.000000 0.000000 1.059135 -0.000000 0.000000 0.873309 -0.000000 0.000000 0.661691 -0.000000 0.000000 0.457393 -0.000000 0.000000 0.278810 -0.000000 0.000000 0.133591 -0.000000 0.000000 0.036947 -0.000000 0.000000 -0.021680 -0.000000 0.000000 -0.037273 -0.000000 0.000000 -0.027466 -0.000000 0.000000 
-0.000000 -0.027466 0.000000 0.034768 -0.018636 0.000000 0.051699 0.002893 0.000000 0.043471 0.037110 0.000000 -0.007047 0.077635 0.000000 -0.093687 0.120932 0.000000 -0.226969 0.161901 0.000000 -0.391296 0.191440 0.000000 -0.580454 0.207958 0.000000 -0.776125 0.198722 0.000000 -0.948061 0.166466 0.000000 -1.084840 0.098664 0.000000 -1.133985 -0.005298 0.000000 -1.084643 -0.143215 0.000000 -0.889079 -0.313853 0.000000 -0.530890 -0.485017 0.000000 0.000000 -0.567939 0.000000 0.530890 -0.485017 0.000000 0.889079 -0.313853 0.000000 1.084643 -0.143215 0.000000 1.133985 -0.005298 0.000000 1.084840 0.098664 0.000000 0.948061 0.166466 0.000000 0.776125 0.198722 0.000000 0.580454 0.207958 0.000000 0.391296 0.191440 0.000000 0.226969 0.161901 0.000000 0.093687 0.120932 0.000000 0.007047 0.077635 0.000000 -0.043471 0.037110 0.000000 -0.051699 0.002893 0.000000 -0.034768 -0.018636 0.000000 
-0.000000 -0.069535 0.000000 0.055077 -0.051699 0.000000 0.091345 -0.008704 0.000000 0.102975 0.058746 0.000000 0.072941 0.137159 0.000000 0.012433 0.219922 0.000000 -0.091152 0.297608 0.000000 -0.218083 0.353485 0.000000 -0.368651 0.384829 0.000000 -0.525235 0.367607 0.000000 -0.662985 0.308715 0.000000 -0.786544 0.185924 0.000000 -0.843789 -0.000196 0.000000 -0.843760 -0.244906 0.000000 -0.733824 -0.553754 0.000000 -0.461709 -0.889079 0.000000 0.000000 -1.061780 0.000000 0.461709 -0.889079 0.000000 0.733824 -0.553754 0.000000 0.843760 -0.244906 0.000000 0.843789 -0.000196 0.000000 0.786544 0.185924 0.000000 0.662985 0.308715 0.000000 0.525235 0.367607 0.000000 0.368651 0.384829 0.000000 0.218083 0.353485 0.000000 0.091152 0.297608 0.000000 -0.012433 0.219922 0.000000 -0.072941 0.137159 0.000000 -0.102975 0.058746 0.000000 -0.091345 -0.008704 0.000000 -0.055077 -0.051699 0.000000 
-0.000000 -0.137620 0.000000 0.085873 -0.109981 0.000000 0.150767 -0.045004 0.000000 0.190043 0.055513 0.000000 0.186745 0.168177 0.000000 0.158591 0.285025 0.000000 0.091536 0.392417 0.000000 0.011116 0.468939 0.000000 -0.090895 0.515110 0.000000 -0.196440 0.493057 0.000000 -0.288584 0.427776 0.000000 -0.384389 0.279468 0.000000 -0.432715 0.051918 0.000000 -0.466298 -0.253180 0.000000 -0.463696 -0.695905 0.000000 -0.329189 -1.218841 0.000000 -0.000000 -1.491356 0.000000 0.329189 -1.218841 0.000000 0.463696 -0.695905 0.000000 0.466298 -0.253180 0.000000 0.432715 0.051918 0.000000 0.384389 0.279468 0.000000 0.288584 0.427776 0.000000 0.196440 0.493057 0.000000 0.090895 0.515110 0.000000 -0.011116 0.468939 0.000000 -0.091536 0.392417 0.000000 -0.158591 0.285025 0.000000 -0.186745 0.168177 0.000000 -0.190043 0.055513 0.000000 -0.150767 -0.045004 0.000000 -0.085873 -0.109981 0.000000 
0.000000 -0.241280 0.000000 0.122384 -0.202467 0.000000 0.220407 -0.112874 0.000000 0.290059 0.022768 0.000000 0.313142 0.168610 0.000000 0.316431 0.315131 0.000000 0.281454 0.445083 0.000000 0.247740 0.535916 0.000000 0.190892 0.592384 0.000000 0.138017 0.565296 0.000000 0.094352 0.496664 0.000000 0.011491 0.330055 0.000000 -0.035139 0.081713 0.000000 -0.137974 -0.213925 0.000000 -0.253374 -0.690863 0.000000 -0.186572 -1.352775 0.000000 0.000000 -1.720158 0.000000 0.186572 -1.352775 0.000000 0.253374 -0.690863 0.000000 0.137974 -0.213925 0.000000 0.035139 0.081713 0.000000 -0.011491 0.330055 0.000000 -0.094352 0.496664 0.000000 -0.138017 0.565296 0.000000 -0.190892 0.592384 0.000000 -0.247740 0.535916 0.000000 -0.281454 0.445083 0.000000 -0.316431 0.315131 0.000000 -0.313142 0.168610 0.000000 -0.290059 0.022768 0.000000 -0.220407 -0.112874 0.000000 -0.122384 -0.202467 0.000000 
0.000000 -0.382388 0.000000 0.159579 -0.330388 0.000000 0.290695 -0.212679 0.000000 0.388925 -0.037222 0.000000 0.433903 0.141804 0.000000 0.460340 0.316713 0.000000 0.445142 0.461109 0.000000 0.442197 0.559501 0.000000 0.411418 0.624832 0.000000 0.393841 0.589597 0.000000 0.383846 0.554302 0.000000 0.320267 0.408959 0.000000 0.372086 0.201383 0.000000 0.377118 -0.034944 0.000000 0.223434 -0.647307 0.000000 0.145697 -1.472216 0.000000 0.000000 -1.864499 0.000000 -0.145697 -1.472216 0.000000 -0.223434 -0.647307 0.000000 -0.377118 -0.034944 0.000000 -0.372086 0.201383 0.000000 -0.320267 0.408959 0.000000 -0.383846 0.554302 0.000000 -0.393841 0.589597 0.000000 -0.411418 0.624832 0.000000 -0.442197 0.559501 0.000000 -0.445142 0.461109 0.000000 -0.460340 0.316713 0.000000 -0.433903 0.141804 0.000000 -0.388925 -0.037222 0.000000 -0.290695 -0.212679 0.000000 -0.159579 -0.330388 0.000000 
0.000000 -0.560438 0.000000 0.189418 -0.493161 0.000000 0.347381 -0.342220 0.000000 0.466845 -0.120440 0.000000 0.527224 0.097195 0.000000 0.569388 0.303893 0.000000 0.562289 0.463226 0.000000 0.587281 0.569640 0.000000 0.567021 0.640740 0.000000 0.603198 0.592868 0.000000 0.652601 0.570239 0.000000 0.610473 0.341815 0.000000 0.728502 0.024862 0.000000 0.582996 -0.065273 0.000000 0.470326 -0.459441 0.000000 0.475088 -1.129341 0.000000 0.000000 -1.428764 0.000000 -0.475088 -1.129341 0.000000 -0.470326 -0.459441 0.000000 -0.582996 -0.065273 0.000000 -0.728502 0.024862 0.000000 -0.610473 0.341815 0.000000 -0.652601 0.570239 0.000000 -0.603198 0.592868 0.000000 -0.567021 0.640740 0.000000 -0.587281 0.569640 0.000000 -0.562289 0.463226 0.000000 -0.569388 0.303893 0.000000 -0.527224 0.097195 0.000000 -0.466845 -0.120440 0.000000 -0.347381 -0.342220 0.000000 -0.189418 -0.493161 0.000000 
0.000000 -0.761225 0.000000 0.206654 -0.677769 0.000000 0.380644 -0.490105 0.000000 0.511805 -0.217064 0.000000 0.580468 0.039261 0.000000 0.631058 0.281648 0.000000 0.624972 0.443215 0.000000 0.662717 0.554769 0.000000 0.627821 0.608916 0.000000 0.674769 0.504016 0.000000 0.626075 0.547026 0.000000 0.482913 0.333058 0.000000 0.853362 0.228860 0.000000 1.293744 0.223232 0.000000 1.598009 -0.539399 0.000000 1.067073 -1.001890 0.000000 0.000000 -0.914323 0.000000 -1.067073 -1.001890 0.000000 -1.598009 -0.539399 0.000000 -1.293744 0.223232 0.000000 -0.853362 0.228860 0.000000 -0.482913 0.333058 0.000000 -0.626075 0.547026 0.000000 -0.674769 0.504016 0.000000 -0.627821 0.608916 0.000000 -0.662717 0.554769 0.000000 -0.624972 0.443215 0.000000 -0.631058 0.281648 0.000000 -0.580468 0.039261 0.000000 -0.511805 -0.217064 0.000000 -0.380644 -0.490105 0.000000 -0.206654 -0.677769 0.000000 
0.000000 -0.973746 0.000000 0.202406 -0.873805 0.000000 0.375741 -0.647370 0.000000 0.499666 -0.320265 0.000000 0.568227 -0.022059 0.000000 0.612366 0.259389 0.000000 0.599538 0.431567 0.000000 0.648363 0.566790 0.000000 0.554783 0.628689 0.000000 0.692928 0.594614 0.000000 0.667364 0.762094 0.000000 1.169454 0.114528 0.000000 1.569239 -0.785969 0.000000 1.568137 -0.809920 0.000000 1.364710 -0.232770 0.000000 0.500557 0.468668 0.000000 0.000000 0.705382 0.000000 -0.500557 0.468668 0.000000 -1.364710 -0.232770 0.000000 -1.568137 -0.809920 0.000000 -1.569239 -0.785969 0.000000 -1.169454 0.114528 0.000000 -0.667364 0.762094 0.000000 -0.692928 0.594614 0.000000 -0.554783 0.628689 0.000000 -0.648363 0.566790 0.000000 -0.599538 0.431567 0.000000 -0.612366 0.259389 0.000000 -0.568227 -0.022059 0.000000 -0.499666 -0.320265 0.000000 -0.375741 -0.647370 0.000000 -0.202406 -0.873805 0.000000 
0.000000 -1.166036 0.000000 0.176846 -1.053511 0.000000 0.331835 -0.787366 0.000000 0.435628 -0.409550 0.000000 0.497967 -0.073439 0.000000 0.536509 0.250337 0.000000 0.531918 0.407218 0.000000 0.605898 0.599524 0.000000 0.542452 0.564351 0.000000 0.602883 0.391435 0.000000 0.843214 0.070501 0.000000 1.130603 -0.568817 0.000000 0.516833 -0.169823 0.000000 -0.259889 0.427761 0.000000 -0.605885 0.528181 0.000000 -0.462929 0.362820 0.000000 -0.000000 0.086791 0.000000 0.462929 0.362820 0.000000 0.605885 0.528181 0.000000 0.259889 0.427761 0.000000 -0.516833 -0.169823 0.000000 -1.130603 -0.568817 0.000000 -0.843214 0.070501 0.000000 -0.602883 0.391435 0.000000 -0.542452 0.564351 0.000000 -0.605898 0.599524 0.000000 -0.531918 0.407218 0.000000 -0.536509 0.250337 0.000000 -0.497967 -0.073439 0.000000 -0.435628 -0.409550 0.000000 -0.331835 -0.787366 0.000000 -0.176846 -1.053511 0.000000 
0.000000 -1.327439 0.000000 0.125127 -1.205640 0.000000 0.242056 -0.906152 0.000000 0.302948 -0.486397 0.000000 0.359769 -0.122939 0.000000 0.359926 0.225438 0.000000 0.386250 0.362179 0.000000 0.373973 0.556256 0.000000 -0.034879 0.631704 0.000000 -0.323017 0.293852 0.000000 0.131326 0.234374 0.000000 -0.329949 0.440909 0.000000 -0.646977 0.604523 0.000000 -0.243356 0.312798 0.000000 -0.019259 -0.029730 0.000000 0.231533 -0.137217 0.000000 -0.000000 -0.220477 0.000000 -0.231533 -0.137217 0.000000 0.019259 -0.029730 0.000000 0.243356 0.312798 0.000000 0.646977 0.604523 0.000000 0.329949 0.440909 0.000000 -0.131326 0.234374 0.000000 0.323017 0.293852 0.000000 0.034879 0.631704 0.000000 -0.373973 0.556256 0.000000 -0.386250 0.362179 0.000000 -0.359926 0.225438 0.000000 -0.359769 -0.122939 0.000000 -0.302948 -0.486397 0.000000 -0.242056 -0.906152 0.000000 -0.125127 -1.205640 0.000000 
0.000000 -1.416289 0.000000 0.049835 -1.295567 0.000000 0.108303 -0.965187 0.000000 0.114731 -0.527263 0.000000 0.153193 -0.130417 0.000000 0.109676 0.223856 0.000000 0.093918 0.393171 0.000000 -0.035917 1.020652 0.000000 -0.884468 1.261342 0.000000 -0.443668 0.225231 0.000000 -0.027762 0.077433 0.000000 -0.308767 0.209485 0.000000 0.230696 -0.256417 0.000000 0.422720 -0.199956 0.000000 0.339684 0.053292 0.000000 0.261522 0.343560 0.000000 -0.000000 0.549856 0.000000 -0.261522 0.343560 0.000000 -0.339684 0.053292 0.000000 -0.422720 -0.199956 0.000000 -0.230696 -0.256417 0.000000 0.308767 0.209485 0.000000 0.027762 0.077433 0.000000 0.443668 0.225231 0.000000 0.884468 1.261342 0.000000 0.035917 1.020652 0.000000 -0.093918 0.393171 0.000000 -0.109676 0.223856 0.000000 -0.153193 -0.130417 0.000000 -0.114731 -0.527263 0.000000 -0.108303 -0.965187 0.000000 -0.049835 -1.295567 0.000000 
0.000000 -1.427109 0.000000 -0.052905 -1.313942 0.000000 -0.079467 -0.971048 0.000000 -0.134552 -0.531287 0.000000 -0.107201 -0.117884 0.000000 -0.226623 0.284714 0.000000 -0.157273 0.507771 0.000000 -0.752668 1.534641 0.000000 -1.122503 1.039455 0.000000 0.488719 -0.562853 0.000000 0.153672 0.099472 0.000000 -0.139823 0.182451 0.000000 -0.017338 -0.126964 0.000000 -0.192708 0.203811 0.000000 -0.162171 0.131468 0.000000 -0.137682 0.202467 0.000000 0.000000 0.302567 0.000000 0.137682 0.202467 0.000000 0.162171 0.131468 0.000000 0.192708 0.203811 0.000000 0.017338 -0.126964 0.000000 0.139823 0.182451 0.000000 -0.153672 0.099472 0.000000 -0.488719 -0.562853 0.000000 1.122503 1.039455 0.000000 0.752668 1.534641 0.000000 0.157273 0.507771 0.000000 0.226623 0.284714 0.000000 0.107201 -0.117884 0.000000 0.134552 -0.531287 0.000000 0.079467 -0.971048 0.000000 0.052905 -1.313942 0.000000 
0.000000 -1.310479 0.000000 -0.189024 -1.216100 0.000000 -0.324804 -0.883540 0.000000 -0.458203 -0.499529 0.000000 -0.423133 -0.038346 0.000000 -0.611664 0.273929 0.000000 -0.302678 0.919215 0.000000 -1.286147 1.985882 0.000000 -0.267639 0.019956 0.000000 0.792180 -1.050943 0.000000 -0.311865 0.705974 0.000000 -0.121446 0.380495 0.000000 -0.340823 -0.203531 0.000000 -0.209474 -0.055122 0.000000 -0.121448 -0.001734 0.000000 -0.089220 0.181389 0.000000 0.000000 0.274492 0.000000 0.089220 0.181389 0.000000 0.121448 -0.001734 0.000000 0.209474 -0.055122 0.000000 0.340823 -0.203531 0.000000 0.121446 0.380495 0.000000 0.311865 0.705974 0.000000 -0.792180 -1.050943 0.000000 0.267639 0.019956 0.000000 1.286147 1.985882 0.000000 0.302678 0.919215 0.000000 0.611664 0.273929 0.000000 0.423133 -0.038346 0.000000 0.458203 -0.499529 0.000000 0.324804 -0.883540 0.000000 0.189024 -1.216100 0.000000 
-0.000000 -1.049061 0.000000 -0.355841 -0.989139 0.000000 -0.657539 -0.701870 0.000000 -0.847512 -0.432958 0.000000 -0.932562 0.035578 0.000000 -0.934168 0.164258 0.000000 -0.828361 1.182254 0.000000 -0.783332 1.499603 0.000000 0.642774 -1.038872 0.000000 0.025316 -0.518628 0.000000 -0.505412 1.013099 0.000000 -0.030760 0.211409 0.000000 -0.179233 -0.038936 0.000000 -0.147495 -0.015564 0.000000 -0.159493 0.011214 0.000000 -0.113797 0.081019 0.000000 0.000000 0.124127 0.000000 0.113797 0.081019 0.000000 0.159493 0.011214 0.000000 0.147495 -0.015564 0.000000 0.179233 -0.038936 0.000000 0.030760 0.211409 0.000000 0.505412 1.013099 0.000000 -0.025316 -0.518628 0.000000 -0.642774 -1.038872 0.000000 0.783332 1.499603 0.000000 0.828361 1.182254 0.000000 0.934168 0.164258 0.000000 0.932562 0.035578 0.000000 0.847512 -0.432958 0.000000 0.657539 -0.701870 0.000000 0.355841 -0.989139 0.000000 
-0.000000 -0.598798 0.000000 -0.524531 -0.558561 0.000000 -0.989139 -0.391869 0.000000 -1.226400 -0.224506 0.000000 -1.422097 0.048310 0.000000 -1.190822 0.169728 0.000000 -1.257839 0.768380 0.000000 -0.008568 0.514746 0.000000 0.241765 -0.788693 0.000000 -1.047440 0.097242 0.000000 -0.276864 0.762050 0.000000 -0.034341 0.054317 0.000000 -0.065454 -0.086796 0.000000 -0.073278 -0.074863 0.000000 -0.081019 -0.035432 0.000000 -0.062064 0.021896 0.000000 -0.000000 0.046899 0.000000 0.062064 0.021896 0.000000 0.081019 -0.035432 0.000000 0.073278 -0.074863 0.000000 0.065454 -0.086796 0.000000 0.034341 0.054317 0.000000 0.276864 0.762050 0.000000 1.047440 0.097242 0.000000 -0.241765 -0.788693 0.000000 0.008568 0.514746 0.000000 1.257839 0.768380 0.000000 1.190822 0.169728 0.000000 1.422097 0.048310 0.000000 1.226400 -0.224506 0.000000 0.989139 -0.391869 0.000000 0.524531 -0.558561 0.000000 
-0.000000 0.000000 0.000000 -0.598798 -0.000000 0.000000 -1.117121 -0.000000 0.000000 -1.382536 -0.000000 0.000000 -1.566133 -0.000000 0.000000 -1.285916 -0.000000 0.000000 -1.226677 0.000000 0.000000 0.250844 0.000000 0.000000 -0.197185 -0.000000 0.000000 -1.326543 0.000000 0.000000 -0.002700 0.000000 0.000000 0.197557 0.000000 0.000000 0.105933 0.000000 0.000000 0.023966 0.000000 0.000000 -0.043793 0.000000 0.000000 -0.046899 -0.000000 0.000000 -0.000000 -0.000000 0.000000 0.046899 -0.000000 0.000000 0.043793 -0.000000 0.000000 -0.023966 -0.000000 0.000000 -0.105933 -0.000000 0.000000 -0.197557 -0.000000 0.000000 0.002700 0.000000 0.000000 1.326543 0.000000 0.000000 0.197185 0.000000 0.000000 -0.250844 -0.000000 0.000000 1.226677 -0.000000 0.000000 1.285916 -0.000000 0.000000 1.566133 0.000000 0.000000 1.382536 0.000000 0.000000 1.117121 0.000000 0.000000 0.598798 0.000000 0.000000 
0.000000 0.598798 0.000000 -0.524531 0.558561 0.000000 -0.989139 0.391869 0.000000 -1.226400 0.224506 0.000000 -1.422097 -0.048310 0.000000 -1.190822 -0.169728 0.000000 -1.257839 -0.768380 0.000000 -0.008568 -0.514746 0.000000 0.241765 0.788693 0.000000 -1.047440 -0.097242 0.000000 -0.276864 -0.762050 0.000000 -0.034341 -0.054317 0.000000 -0.065454 0.086796 0.000000 -0.073278 0.074863 0.000000 -0.081019 0.035432 0.000000 -0.062064 -0.021896 0.000000 -0.000000 -0.046899 0.000000 0.062064 -0.021896 0.000000 0.081019 0.035432 0.000000 0.073278 0.074863 0.000000 0.065454 0.086796 0.000000 0.034341 -0.054317 0.000000 0.276864 -0.762050 0.000000 1.047440 -0.097242 0.000000 -0.241765 0.788693 0.000000 0.008568 -0.514746 0.000000 1.257839 -0.768380 0.000000 1.190822 -0.169728 0.000000 1.422097 -0.048310 0.000000 1.226400 0.224506 0.000000 0.989139 0.391869 0.000000 0.524531 0.558561 0.000000 
-0.000000 1.049061 0.000000 -0.355841 0.989139 0.000000 -0.657539 0.701870 0.000000 -0.847512 0.432958 0.000000 -0.932562 -0.035578 0.000000 -0.934168 -0.164258 0.000000 -0.828361 -1.182254 0.000000 -0.783332 -1.499603 0.000000 0.642774 1.038872 0.000000 0.025316 0.518628 0.000000 -0.505412 -1.013099 0.000000 -0.030760 -0.211409 0.000000 -0.179233 0.038936 0.000000 -0.147495 0.015564 0.000000 -0.159493 -0.011214 0.000000 -0.113797 -0.081019 0.000000 -0.000000 -0.124127 0.000000 0.113797 -0.081019 0.000000 0.159493 -0.011214 0.000000 0.147495 0.015564 0.000000 0.179233 0.038936 0.000000 0.030760 -0.211409 0.000000 0.505412 -1.013099 0.000000 -0.025316 0.518628 0.000000 -0.642774 1.038872 0.000000 0.783332 -1.499603 0.000000 0.828361 -1.182254 0.000000 0.934168 -0.164258 0.000000 0.932562 -0.035578 0.000000 0.847512 0.432958 0.000000 0.657539 0.701870 0.000000 0.355841 0.989139 0.000000 
-0.000000 1.310479 0.000000 -0.189024 1.216100 0.000000 -0.324804 0.883540 0.000000 -0.458203 0.499529 0.000000 -0.423133 0.038346 0.000000 -0.611664 -0.273929 0.000000 -0.302678 -0.919215 0.000000 -1.286147 -1.985882 0.000000 -0.267639 -0.019956 0.000000 0.792180 1.050943 0.000000 -0.311865 -0.705974 0.000000 -0.121446 -0.380495 0.000000 -0.340823 0.203531 0.000000 -0.209474 0.055122 0.000000 -0.121448 0.001734 0.000000 -0.089220 -0.181389 0.000000 -0.000000 -0.274492 0.000000 0.089220 -0.181389 0.000000 0.121448 0.001734 0.000000 0.209474 0.055122 0.000000 0.340823 0.203531 0.000000 0.121446 -0.380495 0.000000 0.311865 -0.705974 0.000000 -0.792180 1.050943 0.000000 0.267639 -0.019956 0.000000 1.286147 -1.985882 0.000000 0.302678 -0.919215 0.000000 0.611664 -0.273929 0.000000 0.423133 0.038346 0.000000 0.458203 0.499529 0.000000 0.324804 0.883540 0.000000 0.189024 1.216100 0.000000 
-0.000000 1.427109 0.000000 -0.052905 1.313942 0.000000 -0.079467 0.971048 0.000000 -0.134552 0.531287 0.000000 -0.107201 0.117884 0.000000 -0.226623 -0.284714 0.000000 -0.157273 -0.507771 0.000000 -0.752668 -1.534641 0.000000 -1.122503 -1.039455 0.000000 0.488719 0.562853 0.000000 0.153672 -0.099472 0.000000 -0.139823 -0.182451 0.000000 -0.017338 0.126964 0.000000 -0.192708 -0.203811 0.000000 -0.162171 -0.131468 0.000000 -0.137682 -0.202467 0.000000 -0.000000 -0.302567 0.000000 0.137682 -0.202467 0.000000 0.162171 -0.131468 0.000000 0.192708 -0.203811 0.000000 0.017338 0.126964 0.000000 0.139823 -0.182451 0.000000 -0.153672 -0.099472 0.000000 -0.488719 0.562853 0.000000 1.122503 -1.039455 0.000000 0.752668 -1.534641 0.000000 0.157273 -0.507771 0.000000 0.226623 -0.284714 0.000000 0.107201 0.117884 0.000000 0.134552 0.531287 0.000000 0.079467 0.971048 0.000000 0.052905 1.313942 0.000000 
-0.000000 1.416289 0.000000 0.049835 1.295567 0.000000 0.108303 0.965187 0.000000 0.114731 0.527263 0.000000 0.153193 0.130417 0.000000 0.109676 -0.223856 0.000000 0.093918 -0.393171 0.000000 -0.035917 -1.020652 0.000000 -0.884468 -1.261342 0.000000 -0.443668 -0.225231 0.000000 -0.027762 -0.077433 0.000000 -0.308767 -0.209485 0.000000 0.230696 0.256417 0.000000 0.422720 0.199956 0.000000 0.339684 -0.053292 0.000000 0.261522 -0.343560 0.000000 0.000000 -0.549856 0.000000 -0.261522 -0.343560 0.000000 -0.339684 -0.053292 0.000000 -0.422720 0.199956 0.000000 -0.230696 0.256417 0.000000 0.308767 -0.209485 0.000000 0.027762 -0.077433 0.000000 0.443668 -0.225231 0.000000 0.884468 -1.261342 0.000000 0.035917 -1.020652 0.000000 -0.093918 -0.393171 0.000000 -0.109676 -0.223856 0.000000 -0.153193 0.130417 0.000000 -0.114731 0.527263 0.000000 -0.108303 0.965187 0.000000 -0.049835 1.295567 0.000000 
-0.000000 1.327439 0.000000 0.125127 1.205640 0.000000 0.242056 0.906152 0.000000 0.302948 0.486397 0.000000 0.359769 0.122939 0.000000 0.359926 -0.225438 0.000000 0.386250 -0.362179 0.000000 0.373973 -0.556256 0.000000 -0.034879 -0.631704 0.000000 -0.323017 -0.293852 0.000000 0.131326 -0.234374 0.000000 -0.329949 -0.440909 0.000000 -0.646977 -0.604523 0.000000 -0.243356 -0.312798 0.000000 -0.019259 0.029730 0.000000 0.231533 0.137217 0.000000 0.000000 0.220477 0.000000 -0.231533 0.137217 0.000000 0.019259 0.029730 0.000000 0.243356 -0.312798 0.000000 0.646977 -0.604523 0.000000 0.329949 -0.440909 0.000000 -0.131326 -0.234374 0.000000 0.323017 -0.293852 0.000000 0.034879 -0.631704 0.000000 -0.373973 -0.556256 0.000000 -0.386250 -0.362179 0.000000 -0.359926 -0.225438 0.000000 -0.359769 0.122939 0.000000 -0.302948 0.486397 0.000000 -0.242056 0.906152 0.000000 -0.125127 1.205640 0.000000 
-0.000000 1.166036 0.000000 0.176846 1.053511 0.000000 0.331835 0.787366 0.000000 0.435628 0.409550 0.000000 0.497967 0.073439 0.000000 0.536509 -0.250337 0.000000 0.531918 -0.407218 0.000000 0.605898 -0.599524 0.000000 0.542452 -0.564351 0.000000 0.602883 -0.391435 0.000000 0.843214 -0.070501 0.000000 1.130603 0.568817 0.000000 0.516833 0.169823 0.000000 -0.259889 -0.427761 0.000000 -0.605885 -0.528181 0.000000 -0.462929 -0.362820 0.000000 0.000000 -0.086791 0.000000 0.462929 -0.362820 0.000000 0.605885 -0.528181 0.000000 0.259889 -0.427761 0.000000 -0.516833 0.169823 0.000000 -1.130603 0.568817 0.000000 -0.843214 -0.070501 0.000000 -0.602883 -0.391435 0.000000 -0.542452 -0.564351 0.000000 -0.605898 -0.599524 0.000000 -0.531918 -0.407218 0.000000 -0.536509 -0.250337 0.000000 -0.497967 0.073439 0.000000 -0.435628 0.409550 0.000000 -0.331835 0.787366 0.000000 -0.176846 1.053511 0.000000 
-0.000000 0.973746 0.000000 0.202406 0.873805 0.000000 0.375741 0.647370 0.000000 0.499666 0.320265 0.000000 0.568227 0.022059 0.000000 0.612366 -0.259389 0.000000 0.599538 -0.431567 0.000000 0.648363 -0.566790 0.000000 0.554783 -0.628689 0.000000 0.692928 -0.594614 0.000000 0.667364 -0.762094 0.000000 1.169454 -0.114528 0.000000 1.569239 0.785969 0.000000 1.568137 0.809920 0.000000 1.364710 0.232770 0.000000 0.500557 -0.468668 0.000000 -0.000000 -0.705382 0.000000 -0.500557 -0.468668 0.000000 -1.364710 0.232770 0.000000 -1.568137 0.809920 0.000000 -1.569239 0.785969 0.000000 -1.169454 -0.114528 0.000000 -0.667364 -0.762094 0.000000 -0.692928 -0.594614 0.000000 -0.554783 -0.628689 0.000000 -0.648363 -0.566790 0.000000 -0.599538 -0.431567 0.000000 -0.612366 -0.259389 0.000000 -0.568227 0.022059 0.000000 -0.499666 0.320265 0.000000 -0.375741 0.647370 0.000000 -0.202406 0.873805 0.000000 
-0.000000 0.761225 0.000000 0.206654 0.677769 0.000000 0.380644 0.490105 0.000000 0.511805 0.217064 0.000000 0.580468 -0.039261 0.000000 0.631058 -0.281648 0.000000 0.624972 -0.443215 0.000000 0.662717 -0.554769 0.000000 0.627821 -0.608916 0.000000 0.674769 -0.504016 0.000000 0.626075 -0.547026 0.000000 0.482913 -0.333058 0.000000 0.853362 -0.228860 0.000000 1.293744 -0.223232 0.000000 1.598009 0.539399 0.000000 1.067073 1.001890 0.000000 -0.000000 0.914323 0.000000 -1.067073 1.001890 0.000000 -1.598009 0.539399 0.000000 -1.293744 -0.223232 0.000000 -0.853362 -0.228860 0.000000 -0.482913 -0.333058 0.000000 -0.626075 -0.547026 0.000000 -0.674769 -0.504016 0.000000 -0.627821 -0.608916 0.000000 -0.662717 -0.554769 0.000000 -0.624972 -0.443215 0.000000 -0.631058 -0.281648 0.000000 -0.580468 -0.039261 0.000000 -0.511805 0.217064 0.000000 -0.380644 0.490105 0.000000 -0.206654 0.677769 0.000000 
-0.000000 0.560438 0.000000 0.189418 0.493161 0.000000 0.347381 0.342220 0.000000 0.466845 0.120440 0.000000 0.527224 -0.097195 0.000000 0.569388 -0.303893 0.000000 0.562289 -0.463226 0.000000 0.587281 -0.569640 0.000000 0.567021 -0.640740 0.000000 0.603198 -0.592868 0.000000 0.652601 -0.570239 0.000000 0.610473 -0.341815 0.000000 0.728502 -0.024862 0.000000 0.582996 0.065273 0.000000 0.470326 0.459441 0.000000 0.475088 1.129341 0.000000 -0.000000 1.428764 0.000000 -0.475088 1.129341 0.000000 -0.470326 0.459441 0.000000 -0.582996 0.065273 0.000000 -0.728502 -0.024862 0.000000 -0.610473 -0.341815 0.000000 -0.652601 -0.570239 0.000000 -0.603198 -0.592868 0.000000 -0.567021 -0.640740 0.000000 -0.587281 -0.569640 0.000000 -0.562289 -0.463226 0.000000 -0.569388 -0.303893 0.000000 -0.527224 -0.097195 0.000000 -0.466845 0.120440 0.000000 -0.347381 0.342220 0.000000 -0.189418 0.493161 0.000000 
-0.000000 0.382388 0.000000 0.159579 0.330388 0.000000 0.290695 0.212679 0.000000 0.388925 0.037222 0.000000 0.433903 -0.141804 0.000000 0.460340 -0.316713 0.000000 0.445142 -0.461109 0.000000 0.442197 -0.559501 0.000000 0.411418 -0.624832 0.000000 0.393841 -0.589597 0.000000 0.383846 -0.554302 0.000000 0.320267 -0.408959 0.000000 0.372086 -0.201383 0.000000 0.377118 0.034944 0.000000 0.223434 0.647307 0.000000 0.145697 1.472216 0.000000 -0.000000 1.864499 0.000000 -0.145697 1.472216 0.000000 -0.223434 0.647307 0.000000 -0.377118 0.034944 0.000000 -0.372086 -0.201383 0.000000 -0.320267 -0.408959 0.000000 -0.383846 -0.554302 0.000000 -0.393841 -0.589597 0.000000 -0.411418 -0.624832 0.000000 -0.442197 -0.559501 0.000000 -0.445142 -0.461109 0.000000 -0.460340 -0.316713 0.000000 -0.433903 -0.141804 0.000000 -0.388925 0.037222 0.000000 -0.290695 0.212679 0.000000 -0.159579 0.330388 0.000000 
-0.000000 0.241280 0.000000 0.122384 0.202467 0.000000 0.220407 0.112874 0.000000 0.290059 -0.022768 0.000000 0.313142 -0.168610 0.000000 0.316431 -0.315131 0.000000 0.281454 -0.445083 0.000000 0.247740 -0.535916 0.000000 0.190892 -0.592384 0.000000 0.138017 -0.565296 0.000000 0.094352 -0.496664 0.000000 0.011491 -0.330055 0.000000 -0.035139 -0.081713 0.000000 -0.137974 0.213925 0.000000 -0.253374 0.690863 0.000000 -0.186572 1.352775 0.000000 0.000000 1.720158 0.000000 0.186572 1.352775 0.000000 0.253374 0.690863 0.000000 0.137974 0.213925 0.000000 0.035139 -0.081713 0.000000 -0.011491 -0.330055 0.000000 -0.094352 -0.496664 0.000000 -0.138017 -0.565296 0.000000 -0.190892 -0.592384 0.000000 -0.247740 -0.535916 0.000000 -0.281454 -0.445083 0.000000 -0.316431 -0.315131 0.000000 -0.313142 -0.168610 0.000000 -0.290059 -0.022768 0.000000 -0.220407 0.112874 0.000000 -0.122384 0.202467 0.000000 
-0.000000 0.137620 0.000000 0.085873 0.109981 0.000000 0.150767 0.045004 0.000000 0.190043 -0.055513 0.000000 0.186745 -0.168177 0.000000 0.158591 -0.285025 0.000000 0.091536 -0.392417 0.000000 0.011116 -0.468939 0.000000 -0.090895 -0.515110 0.000000 -0.196440 -0.493057 0.000000 -0.288584 -0.427776 0.000000 -0.384389 -0.279468 0.000000 -0.432715 -0.051918 0.000000 -0.466298 0.253180 0.000000 -0.463696 0.695905 0.000000 -0.329189 1.218841 0.000000 0.000000 1.491356 0.000000 0.329189 1.218841 0.000000 0.463696 0.695905 0.000000 0.466298 0.253180 0.000000 0.432715 -0.051918 0.000000 0.384389 -0.279468 0.000000 0.288584 -0.427776 0.000000 0.196440 -0.493057 0.000000 0.090895 -0.515110 0.000000 -0.011116 -0.468939 0.000000 -0.091536 -0.392417 0.000000 -0.158591 -0.285025 0.000000 -0.186745 -0.168177 0.000000 -0.190043 -0.055513 0.000000 -0.150767 0.045004 0.000000 -0.085873 0.109981 0.000000 
-0.000000 0.069535 0.000000 0.055077 0.051699 0.000000 0.091345 0.008704 0.000000 0.102975 -0.058746 0.000000 0.072941 -0.137159 0.000000 0.012433 -0.219922 0.000000 -0.091152 -0.297608 0.000000 -0.218083 -0.353485 0.000000 -0.368651 -0.384829 0.000000 -0.525235 -0.367607 0.000000 -0.662985 -0.308715 0.000000 -0.786544 -0.185924 0.000000 -0.843789 0.000196 0.000000 -0.843760 0.244906 0.000000 -0.733824 0.553754 0.000000 -0.461709 0.889079 0.000000 0.000000 1.061780 0.000000 0.461709 0.889079 0.000000 0.733824 0.553754 0.000000 0.843760 0.244906 0.000000 0.843789 0.000196 0.000000 0.786544 -0.185924 0.000000 0.662985 -0.308715 0.000000 0.525235 -0.367607 0.000000 0.368651 -0.384829 0.000000 0.218083 -0.353485 0.000000 0.091152 -0.297608 0.000000 -0.012433 -0.219922 0.000000 -0.072941 -0.137159 0.000000 -0.102975 -0.058746 0.000000 -0.091345 0.008704 0.000000 -0.055077 0.051699 0.000000 
-0.000000 0.027466 0.000000 0.034768 0.018636 0.000000 0.051699 -0.002893 0.000000 0.043471 -0.037110 0.000000 -0.007047 -0.077635 0.000000 -0.093687 -0.120932 0.000000 -0.226969 -0.161901 0.000000 -0.391296 -0.191440 0.000000 -0.580454 -0.207958 0.000000 -0.776125 -0.198722 0.000000 -0.948061 -0.166466 0.000000 -1.084840 -0.098664 0.000000 -1.133985 0.005298 0.000000 -1.084643 0.143215 0.000000 -0.889079 0.313853 0.000000 -0.530890 0.485017 0.000000 0.000000 0.567939 0.000000 0.530890 0.485017 0.000000 0.889079 0.313853 0.000000 1.084643 0.143215 0.000000 1.133985 0.005298 0.000000 1.084840 -0.098664 0.000000 0.948061 -0.166466 0.000000 0.776125 -0.198722 0.000000 0.580454 -0.207958 0.000000 0.391296 -0.191440 0.000000 0.226969 -0.161901 0.000000 0.093687 -0.120932 0.000000 0.007047 -0.077635 0.000000 -0.043471 -0.037110 0.000000 -0.051699 -0.002893 0.000000 -0.034768 0.018636 0.000000 
