# vtk DataFile Version 2.0
Comment goes here
ASCII

DATASET STRUCTURED_POINTS
FIELD FieldData 1
TIME 1 1 double
1.20000000
DIMENSIONS    32   32   1

ORIGIN    0.000   0.000   0.000
SPACING   0.03125 0.03125   1.000

POINT_DATA   1024
VECTORS u double

-0.000000 -0.000000 0.000000 -0.005271 -0.000000 0.000000 -0.029013 -0.000000 0.000000 -0.081024 -0.000000 0.000000 -0.174522 -0.000000 0.000000 -0.308920 -0.000000 0.000000 -0.478825 -0.000000 0.000000 -0.682661 -0.000000 0.000000 -0.882642 0.000000 0.000000 -1.092578 0.000000 0.000000 -1.234935 0.000000 0.000000 -1.355170 0.000000 0.000000 -1.336212 0.000000 0.000000 -1.254249 0.000000 0.000000 -0.976150 0.000000 0.000000 -0.572133 0.000000 0.000000 0.000000 0.000000 0.000000 0.572133 -0.000000 0.000000 0.976150 -0.000000 0.000000 1.254249 -0.000000 0.000000 1.336212 -0.000000 0.000000 1.355170 -0.000000 0.000000 1.234935 -0.000000 0.000000 1.092578 -0.000000 0.000000 0.882642 -0.000000 0.000000 0.682661 -0.000000 0.000000 0.478825 -0.000000 0.000000 0.308920 -0.000000 0.000000 0.174522 -0.000000 0.000000 0.081024 -0.000000 0.000000 0.029013 -0.000000 0.000000 0.005271 -0.000000 0.000000 
-0.000000 0.005271 0.000000 0.000821 0.014506 0.000000 -0.016984 0.037877 0.000000 -0.063242 0.072754 0.000000 -0.150675 0.113948 0.000000 -0.278203 0.152151 0.000000 -0.440745 0.186871 0.000000 -0.635552 0.201908 0.000000 -0.827582 0.204958 0.000000 -1.026611 0.176147 0.000000 -1.162129 0.131296 0.000000 -1.272777 0.050639 0.000000 -1.254085 -0.050461 0.000000 -1.176771 -0.180031 0.000000 -0.918951 -0.341058 0.000000 -0.541419 -0.488075 0.000000 0.000000 -0.572133 0.000000 0.541419 -0.488075 0.000000 0.918951 -0.341058 0.000000 1.176771 -0.180031 0.000000 1.254085 -0.050461 0.000000 1.272777 0.050639 0.000000 1.162129 0.131296 0.000000 1.026611 0.176147 0.000000 0.827582 0.204958 0.000000 0.635552 0.201908 0.000000 0.440745 0.186871 0.000000 0.278203 0.152151 0.000000 0.150675 0.113948 0.000000 0.063242 0.072754 0.000000 0.016984 0.037877 0.000000 -0.000821 0.014506 0.000000 
-0.000000 -0.001643 0.000000 0.024149 0.016984 0.000000 0.028085 0.064064 0.000000 0.005645 0.133691 0.000000 -0.059874 0.214961 0.000000 -0.159181 0.290070 0.000000 -0.294150 0.357349 0.000000 -0.455094 0.386837 0.000000 -0.614180 0.391059 0.000000 -0.781497 0.334547 0.000000 -0.886457 0.246166 0.000000 -0.987498 0.091956 0.000000 -0.967033 -0.096006 0.000000 -0.939796 -0.335134 0.000000 -0.752077 -0.635352 0.000000 -0.454729 -0.918951 0.000000 -0.000000 -1.082838 0.000000 0.454729 -0.918951 0.000000 0.752077 -0.635352 0.000000 0.939796 -0.335134 0.000000 0.967033 -0.096006 0.000000 0.987498 0.091956 0.000000 0.886457 0.246166 0.000000 0.781497 0.334547 0.000000 0.614180 0.391059 0.000000 0.455094 0.386837 0.000000 0.294150 0.357349 0.000000 0.159181 0.290070 0.000000 0.059874 0.214961 0.000000 -0.005645 0.133691 0.000000 -0.028085 0.064064 0.000000 -0.024149 0.016984 0.000000 
-0.000000 -0.043026 0.000000 0.055000 -0.013578 0.000000 0.087517 0.056381 0.000000 0.093679 0.160713 0.000000 0.053959 0.278774 0.000000 -0.015028 0.386427 0.000000 -0.120657 0.482783 0.000000 -0.246166 0.521939 0.000000 -0.373966 0.531361 0.000000 -0.507772 0.448423 0.000000 -0.588051 0.337297 0.000000 -0.669196 0.131215 0.000000 -0.638623 -0.098163 0.000000 -0.637035 -0.394987 0.000000 -0.514827 -0.826125 0.000000 -0.319349 -1.240152 0.000000 -0.000000 -1.481591 0.000000 0.319349 -1.240152 0.000000 0.514827 -0.826125 0.000000 0.637035 -0.394987 0.000000 0.638623 -0.098163 0.000000 0.669196 0.131215 0.000000 0.588051 0.337297 0.000000 0.507772 0.448423 0.000000 0.373966 0.531361 0.000000 0.246166 0.521939 0.000000 0.120657 0.482783 0.000000 0.015028 0.386427 0.000000 -0.053959 0.278774 0.000000 -0.093679 0.160713 0.000000 -0.087517 0.056381 0.000000 -0.055000 -0.013578 0.000000 
-0.000000 -0.111643 0.000000 0.093487 -0.070533 0.000000 0.160111 0.025384 0.000000 0.202273 0.167248 0.000000 0.189915 0.323668 0.000000 0.157624 0.464686 0.000000 0.080634 0.588487 0.000000 -0.002323 0.640146 0.000000 -0.096261 0.652664 0.000000 -0.191744 0.548632 0.000000 -0.234319 0.407590 0.000000 -0.301185 0.142528 0.000000 -0.226653 -0.128167 0.000000 -0.291836 -0.458929 0.000000 -0.252858 -0.953037 0.000000 -0.159914 -1.433778 0.000000 -0.000000 -1.721536 0.000000 0.159914 -1.433778 0.000000 0.252858 -0.953037 0.000000 0.291836 -0.458929 0.000000 0.226653 -0.128167 0.000000 0.301185 0.142528 0.000000 0.234319 0.407590 0.000000 0.191744 0.548632 0.000000 0.096261 0.652664 0.000000 0.002323 0.640146 0.000000 -0.080634 0.588487 0.000000 -0.157624 0.464686 0.000000 -0.189915 0.323668 0.000000 -0.202273 0.167248 0.000000 -0.160111 0.025384 0.000000 -0.093487 -0.070533 0.000000 
-0.000000 -0.229999 0.000000 0.129580 -0.173690 0.000000 0.228202 -0.052406 0.000000 0.301344 0.130910 0.000000 0.311596 0.323423 0.000000 0.304538 0.495708 0.000000 0.244731 0.642730 0.000000 0.183395 0.698834 0.000000 0.100192 0.720782 0.000000 0.012496 0.586481 0.000000 -0.041142 0.446739 0.000000 -0.112772 0.123550 0.000000 0.015720 -0.107512 0.000000 -0.008731 -0.368783 0.000000 0.070898 -0.958046 0.000000 0.059484 -1.493010 0.000000 0.000000 -1.801420 0.000000 -0.059484 -1.493010 0.000000 -0.070898 -0.958046 0.000000 0.008731 -0.368783 0.000000 -0.015720 -0.107512 0.000000 0.112772 0.123550 0.000000 0.041142 0.446739 0.000000 -0.012496 0.586481 0.000000 -0.100192 0.720782 0.000000 -0.183395 0.698834 0.000000 -0.244731 0.642730 0.000000 -0.304538 0.495708 0.000000 -0.311596 0.323423 0.000000 -0.301344 0.130910 0.000000 -0.228202 -0.052406 0.000000 -0.129580 -0.173690 0.000000 
-0.000000 -0.370802 0.000000 0.159895 -0.298735 0.000000 0.283586 -0.146380 0.000000 0.384791 0.083854 0.000000 0.408901 0.320475 0.000000 0.427661 0.531552 0.000000 0.370362 0.709630 0.000000 0.335316 0.784684 0.000000 0.246388 0.823564 0.000000 0.181867 0.689967 0.000000 0.134826 0.532858 0.000000 0.070228 0.085665 0.000000 0.352151 -0.232209 0.000000 0.225870 -0.514108 0.000000 0.267675 -1.021251 0.000000 0.208894 -1.362880 0.000000 0.000000 -1.602569 0.000000 -0.208894 -1.362880 0.000000 -0.267675 -1.021251 0.000000 -0.225870 -0.514108 0.000000 -0.352151 -0.232209 0.000000 -0.070228 0.085665 0.000000 -0.134826 0.532858 0.000000 -0.181867 0.689967 0.000000 -0.246388 0.823564 0.000000 -0.335316 0.784684 0.000000 -0.370362 0.709630 0.000000 -0.427661 0.531552 0.000000 -0.408901 0.320475 0.000000 -0.384791 0.083854 0.000000 -0.283586 -0.146380 0.000000 -0.159895 -0.298735 0.000000 
-0.000000 -0.549789 0.000000 0.177650 -0.457275 0.000000 0.316534 -0.277302 0.000000 0.434063 0.005595 0.000000 0.467061 0.280554 0.000000 0.500459 0.534247 0.000000 0.444569 0.735075 0.000000 0.412945 0.822808 0.000000 0.311312 0.874231 0.000000 0.207521 0.698042 0.000000 0.049473 0.558378 0.000000 -0.050023 -0.093775 0.000000 0.219642 -0.263155 0.000000 0.415681 -0.284307 0.000000 0.832908 -0.941069 0.000000 0.581701 -1.225335 0.000000 0.000000 -1.383632 0.000000 -0.581701 -1.225335 0.000000 -0.832908 -0.941069 0.000000 -0.415681 -0.284307 0.000000 -0.219642 -0.263155 0.000000 0.050023 -0.093775 0.000000 -0.049473 0.558378 0.000000 -0.207521 0.698042 0.000000 -0.311312 0.874231 0.000000 -0.412945 0.822808 0.000000 -0.444569 0.735075 0.000000 -0.500459 0.534247 0.000000 -0.467061 0.280554 0.000000 -0.434063 0.005595 0.000000 -0.316534 -0.277302 0.000000 -0.177650 -0.457275 0.000000 
0.000000 -0.726103 0.000000 0.178431 -0.615269 0.000000 0.317018 -0.402793 0.000000 0.439071 -0.066672 0.000000 0.467783 0.254079 0.000000 0.514997 0.554044 0.000000 0.439382 0.797144 0.000000 0.425628 0.917940 0.000000 0.253944 1.028987 0.000000 0.185334 0.951806 0.000000 -0.078730 0.790402 0.000000 0.376420 -0.084504 0.000000 0.656814 -0.697912 0.000000 1.069229 -1.127374 0.000000 0.935735 -1.187272 0.000000 0.342231 -0.529971 0.000000 0.000000 -0.439167 0.000000 -0.342231 -0.529971 0.000000 -0.935735 -1.187272 0.000000 -1.069229 -1.127374 0.000000 -0.656814 -0.697912 0.000000 -0.376420 -0.084504 0.000000 0.078730 0.790402 0.000000 -0.185334 0.951806 0.000000 -0.253944 1.028987 0.000000 -0.425628 0.917940 0.000000 -0.439382 0.797144 0.000000 -0.514997 0.554044 0.000000 -0.467783 0.254079 0.000000 -0.439071 -0.066672 0.000000 -0.317018 -0.402793 0.000000 -0.178431 -0.615269 0.000000 
0.000000 -0.906650 0.000000 0.161949 -0.774294 0.000000 0.287579 -0.537943 0.000000 0.402315 -0.145170 0.000000 0.425458 0.204628 0.000000 0.487106 0.562648 0.000000 0.412075 0.824443 0.000000 0.428261 1.008245 0.000000 0.318838 1.114525 0.000000 0.182164 1.030717 0.000000 0.206562 0.367292 0.000000 0.949795 -0.829319 0.000000 0.625309 -0.955964 0.000000 0.256928 -0.563228 0.000000 -0.401519 -0.214072 0.000000 -0.324866 -0.289600 0.000000 -0.000000 -0.699170 0.000000 0.324866 -0.289600 0.000000 0.401519 -0.214072 0.000000 -0.256928 -0.563228 0.000000 -0.625309 -0.955964 0.000000 -0.949795 -0.829319 0.000000 -0.206562 0.367292 0.000000 -0.182164 1.030717 0.000000 -0.318838 1.114525 0.000000 -0.428261 1.008245 0.000000 -0.412075 0.824443 0.000000 -0.487106 0.562648 0.000000 -0.425458 0.204628 0.000000 -0.402315 -0.145170 0.000000 -0.287579 -0.537943 0.000000 -0.161949 -0.774294 0.000000 
0.000000 -1.050000 0.000000 0.123542 -0.902848 0.000000 0.220591 -0.643160 0.000000 0.312213 -0.204551 0.000000 0.327943 0.169288 0.000000 0.395403 0.567427 0.000000 0.314411 0.855989 0.000000 0.322384 1.011177 0.000000 0.074796 1.275084 0.000000 -0.383864 1.064082 0.000000 0.387566 0.022771 0.000000 0.228374 -0.503251 0.000000 -0.239833 -0.005045 0.000000 -0.243432 -0.100545 0.000000 -0.084877 -0.605477 0.000000 0.316427 -0.931490 0.000000 -0.000000 -1.088899 0.000000 -0.316427 -0.931490 0.000000 0.084877 -0.605477 0.000000 0.243432 -0.100545 0.000000 0.239833 -0.005045 0.000000 -0.228374 -0.503251 0.000000 -0.387566 0.022771 0.000000 0.383864 1.064082 0.000000 -0.074796 1.275084 0.000000 -0.322384 1.011177 0.000000 -0.314411 0.855989 0.000000 -0.395403 0.567427 0.000000 -0.327943 0.169288 0.000000 -0.312213 -0.204551 0.000000 -0.220591 -0.643160 0.000000 -0.123542 -0.902848 0.000000 
0.000000 -1.153734 0.000000 0.065852 -0.994885 0.000000 0.120448 -0.726614 0.000000 0.182940 -0.252522 0.000000 0.191177 0.121438 0.000000 0.277996 0.576181 0.000000 0.132825 0.897462 0.000000 0.275903 1.247860 0.000000 -0.373869 1.820773 0.000000 -0.584037 0.717947 0.000000 0.569849 -0.244946 0.000000 -0.003482 -0.201920 0.000000 0.610673 -0.484157 0.000000 0.840584 -0.718184 0.000000 0.771377 -0.773931 0.000000 0.514798 -0.374477 0.000000 -0.000000 -0.066315 0.000000 -0.514798 -0.374477 0.000000 -0.771377 -0.773931 0.000000 -0.840584 -0.718184 0.000000 -0.610673 -0.484157 0.000000 0.003482 -0.201920 0.000000 -0.569849 -0.244946 0.000000 0.584037 0.717947 0.000000 0.373869 1.820773 0.000000 -0.275903 1.247860 0.000000 -0.132825 0.897462 0.000000 -0.277996 0.576181 0.000000 -0.191177 0.121438 0.000000 -0.182940 -0.252522 0.000000 -0.120448 -0.726614 0.000000 -0.065852 -0.994885 0.000000 
0.000000 -1.181703 0.000000 -0.022405 -1.023296 0.000000 -0.028639 -0.760248 0.000000 -0.011163 -0.275280 0.000000 0.022638 0.074232 0.000000 0.140031 0.625779 0.000000 0.059427 0.858081 0.000000 0.346953 1.517871 0.000000 -0.804431 2.135024 0.000000 0.202978 0.120364 0.000000 1.020007 -0.557784 0.000000 0.484172 -0.544075 0.000000 0.788314 -0.849111 0.000000 0.403671 -0.261250 0.000000 0.246818 -0.279691 0.000000 -0.009927 -0.160113 0.000000 0.000000 -0.059303 0.000000 0.009927 -0.160113 0.000000 -0.246818 -0.279691 0.000000 -0.403671 -0.261250 0.000000 -0.788314 -0.849111 0.000000 -0.484172 -0.544075 0.000000 -1.020007 -0.557784 0.000000 -0.202978 0.120364 0.000000 0.804431 2.135024 0.000000 -0.346953 1.517871 0.000000 -0.059427 0.858081 0.000000 -0.140031 0.625779 0.000000 -0.022638 0.074232 0.000000 0.011163 -0.275280 0.000000 0.028639 -0.760248 0.000000 0.022405 -1.023296 0.000000 
0.000000 -1.108925 0.000000 -0.140833 -0.966246 0.000000 -0.229585 -0.737855 0.000000 -0.278592 -0.303799 0.000000 -0.193262 -0.029756 0.000000 -0.096805 0.539392 0.000000 0.120799 0.690540 0.000000 0.074150 2.111717 0.000000 -0.480770 1.964748 0.000000 1.253479 -1.106491 0.000000 1.043846 -0.526140 0.000000 0.673692 0.029773 0.000000 0.230958 -0.403657 0.000000 0.072322 -0.176688 0.000000 0.080775 -0.360332 0.000000 -0.008835 -0.127659 0.000000 0.000000 -0.086170 0.000000 0.008835 -0.127659 0.000000 -0.080775 -0.360332 0.000000 -0.072322 -0.176688 0.000000 -0.230958 -0.403657 0.000000 -0.673692 0.029773 0.000000 -1.043846 -0.526140 0.000000 -1.253479 -1.106491 0.000000 0.480770 1.964748 0.000000 -0.074150 2.111717 0.000000 -0.120799 0.690540 0.000000 0.096805 0.539392 0.000000 0.193262 -0.029756 0.000000 0.278592 -0.303799 0.000000 0.229585 -0.737855 0.000000 0.140833 -0.966246 0.000000 
0.000000 -0.900036 0.000000 -0.300375 -0.793711 0.000000 -0.516529 -0.622490 0.000000 -0.693039 -0.311603 0.000000 -0.642539 -0.107554 0.000000 -0.694693 0.311718 0.000000 -0.291791 0.687126 0.000000 -0.638177 2.119440 0.000000 0.674679 0.955695 0.000000 1.222830 -1.404253 0.000000 0.184050 0.022003 0.000000 0.427044 0.268813 0.000000 0.119419 -0.247742 0.000000 0.205012 -0.111066 0.000000 0.057990 -0.198534 0.000000 0.004606 -0.079338 0.000000 0.000000 -0.076973 0.000000 -0.004606 -0.079338 0.000000 -0.057990 -0.198534 0.000000 -0.205012 -0.111066 0.000000 -0.119419 -0.247742 0.000000 -0.427044 0.268813 0.000000 -0.184050 0.022003 0.000000 -1.222830 -1.404253 0.000000 -0.674679 0.955695 0.000000 0.638177 2.119440 0.000000 0.291791 0.687126 0.000000 0.694693 0.311718 0.000000 0.642539 -0.107554 0.000000 0.693039 -0.311603 0.000000 0.516529 -0.622490 0.000000 0.300375 -0.793711 0.000000 
0.000000 -0.508174 0.000000 -0.450018 -0.449716 0.000000 -0.793711 -0.345191 0.000000 -1.072508 -0.177789 0.000000 -1.105314 -0.028103 0.000000 -1.180062 0.188644 0.000000 -0.793596 0.634024 0.000000 -0.492936 1.145248 0.000000 1.325844 0.103742 0.000000 0.462759 -0.615862 0.000000 -0.078408 0.269645 0.000000 0.484762 0.094404 0.000000 0.190405 -0.181625 0.000000 0.237020 -0.115259 0.000000 0.079338 -0.159926 0.000000 0.038487 -0.069669 0.000000 -0.000000 -0.076958 0.000000 -0.038487 -0.069669 0.000000 -0.079338 -0.159926 0.000000 -0.237020 -0.115259 0.000000 -0.190405 -0.181625 0.000000 -0.484762 0.094404 0.000000 0.078408 0.269645 0.000000 -0.462759 -0.615862 0.000000 -1.325844 0.103742 0.000000 0.492936 1.145248 0.000000 0.793596 0.634024 0.000000 1.180062 0.188644 0.000000 1.105314 -0.028103 0.000000 1.072508 -0.177789 0.000000 0.793711 -0.345191 0.000000 0.450018 -0.449716 0.000000 
0.000000 0.000000 0.000000 -0.508174 0.000000 0.000000 -0.899432 -0.000000 0.000000 -1.198557 -0.000000 0.000000 -1.255011 -0.000000 0.000000 -1.254763 0.000000 0.000000 -0.877724 0.000000 0.000000 0.013285 0.000000 0.000000 1.412772 0.000000 0.000000 0.220769 -0.000000 0.000000 0.181048 0.000000 0.000000 0.760060 0.000000 0.000000 0.369856 0.000000 0.000000 0.396811 0.000000 0.000000 0.139338 0.000000 0.000000 0.076958 0.000000 0.000000 -0.000000 -0.000000 0.000000 -0.076958 -0.000000 0.000000 -0.139338 -0.000000 0.000000 -0.396811 -0.000000 0.000000 -0.369856 -0.000000 0.000000 -0.760060 -0.000000 0.000000 -0.181048 0.000000 0.000000 -0.220769 0.000000 0.000000 -1.412772 -0.000000 0.000000 -0.013285 -0.000000 0.000000 0.877724 -0.000000 0.000000 1.254763 -0.000000 0.000000 1.255011 -0.000000 0.000000 1.198557 0.000000 0.000000 0.899432 0.000000 0.000000 0.508174 0.000000 0.000000 
-0.000000 0.508174 0.000000 -0.450018 0.449716 0.000000 -0.793711 0.345191 0.000000 -1.072508 0.177789 0.000000 -1.105314 0.028103 0.000000 -1.180062 -0.188644 0.000000 -0.793596 -0.634024 0.000000 -0.492936 -1.145248 0.000000 1.325844 -0.103742 0.000000 0.462759 0.615862 0.000000 -0.078408 -0.269645 0.000000 0.484762 -0.094404 0.000000 0.190405 0.181625 0.000000 0.237020 0.115259 0.000000 0.079338 0.159926 0.000000 0.038487 0.069669 0.000000 -0.000000 0.076958 0.000000 -0.038487 0.069669 0.000000 -0.079338 0.159926 0.000000 -0.237020 0.115259 0.000000 -0.190405 0.181625 0.000000 -0.484762 -0.094404 0.000000 0.078408 -0.269645 0.000000 -0.462759 0.615862 0.000000 -1.325844 -0.103742 0.000000 0.492936 -1.145248 0.000000 0.793596 -0.634024 0.000000 1.180062 -0.188644 0.000000 1.105314 0.028103 0.000000 1.072508 0.177789 0.000000 0.793711 0.345191 0.000000 0.450018 0.449716 0.000000 
-0.000000 0.900036 0.000000 -0.300375 0.793711 0.000000 -0.516529 0.622490 0.000000 -0.693039 0.311603 0.000000 -0.642539 0.107554 0.000000 -0.694693 -0.311718 0.000000 -0.291791 -0.687126 0.000000 -0.638177 -2.119440 0.000000 0.674679 -0.955695 0.000000 1.222830 1.404253 0.000000 0.184050 -0.022003 0.000000 0.427044 -0.268813 0.000000 0.119419 0.247742 0.000000 0.205012 0.111066 0.000000 0.057990 0.198534 0.000000 0.004606 0.079338 0.000000 -0.000000 0.076973 0.000000 -0.004606 0.079338 0.000000 -0.057990 0.198534 0.000000 -0.205012 0.111066 0.000000 -0.119419 0.247742 0.000000 -0.427044 -0.268813 0.000000 -0.184050 -0.022003 0.000000 -1.222830 1.404253 0.000000 -0.674679 -0.955695 0.000000 0.638177 -2.119440 0.000000 0.291791 -0.687126 0.000000 0.694693 -0.311718 0.000000 0.642539 0.107554 0.000000 0.693039 0.311603 0.000000 0.516529 0.622490 0.000000 0.300375 0.793711 0.000000 
-0.000000 1.108925 0.000000 -0.140833 0.966246 0.000000 -0.229585 0.737855 0.000000 -0.278592 0.303799 0.000000 -0.193262 0.029756 0.000000 -0.096805 -0.539392 0.000000 0.120799 -0.690540 0.000000 0.074150 -2.111717 0.000000 -0.480770 -1.964748 0.000000 1.253479 1.106491 0.000000 1.043846 0.526140 0.000000 0.673692 -0.029773 0.000000 0.230958 0.403657 0.000000 0.072322 0.176688 0.000000 0.080775 0.360332 0.000000 -0.008835 0.127659 0.000000 -0.000000 0.086170 0.000000 0.008835 0.127659 0.000000 -0.080775 0.360332 0.000000 -0.072322 0.176688 0.000000 -0.230958 0.403657 0.000000 -0.673692 -0.029773 0.000000 -1.043846 0.526140 0.000000 -1.253479 1.106491 0.000000 0.480770 -1.964748 0.000000 -0.074150 -2.111717 0.000000 -0.120799 -0.690540 0.000000 0.096805 -0.539392 0.000000 0.193262 0.029756 0.000000 0.278592 0.303799 0.000000 0.229585 0.737855 0.000000 0.140833 0.966246 0.000000 
-0.000000 1.181703 0.000000 -0.022405 1.023296 0.000000 -0.028639 0.760248 0.000000 -0.011163 0.275280 0.000000 0.022638 -0.074232 0.000000 0.140031 -0.625779 0.000000 0.059427 -0.858081 0.000000 0.346953 -1.517871 0.000000 -0.804431 -2.135024 0.000000 0.202978 -0.120364 0.000000 1.020007 0.557784 0.000000 0.484172 0.544075 0.000000 0.788314 0.849111 0.000000 0.403671 0.261250 0.000000 0.246818 0.279691 0.000000 -0.009927 0.160113 0.000000 -0.000000 0.059303 0.000000 0.009927 0.160113 0.000000 -0.246818 0.279691 0.000000 -0.403671 0.261250 0.000000 -0.788314 0.849111 0.000000 -0.484172 0.544075 0.000000 -1.020007 0.557784 0.000000 -0.202978 -0.120364 0.000000 0.804431 -2.135024 0.000000 -0.346953 -1.517871 0.000000 -0.059427 -0.858081 0.000000 -0.140031 -0.625779 0.000000 -0.022638 -0.074232 0.000000 0.011163 0.275280 0.000000 0.028639 0.760248 0.000000 0.022405 1.023296 0.000000 
-0.000000 1.153734 0.000000 0.065852 0.994885 0.000000 0.120448 0.726614 0.000000 0.182940 0.252522 0.000000 0.191177 -0.121438 0.000000 0.277996 -0.576181 0.000000 0.132825 -0.897462 0.000000 0.275903 -1.247860 0.000000 -0.373869 -1.820773 0.000000 -0.584037 -0.717947 0.000000 0.569849 0.244946 0.000000 -0.003482 0.201920 0.000000 0.610673 0.484157 0.000000 0.840584 0.718184 0.000000 0.771377 0.773931 0.000000 0.514798 0.374477 0.000000 0.000000 0.066315 0.000000 -0.514798 0.374477 0.000000 -0.771377 0.773931 0.000000 -0.840584 0.718184 0.000000 -0.610673 0.484157 0.000000 0.003482 0.201920 0.000000 -0.569849 0.244946 0.000000 0.584037 -0.717947 0.000000 0.373869 -1.820773 0.000000 -0.275903 -1.247860 0.000000 -0.132825 -0.897462 0.000000 -0.277996 -0.576181 0.000000 -0.191177 -0.121438 0.000000 -0.182940 0.252522 0.000000 -0.120448 0.726614 0.000000 -0.065852 0.994885 0.000000 
-0.000000 1.050000 0.000000 0.123542 0.902848 0.000000 0.220591 0.643160 0.000000 0.312213 0.204551 0.000000 0.327943 -0.169288 0.000000 0.395403 -0.567427 0.000000 0.314411 -0.855989 0.000000 0.322384 -1.011177 0.000000 0.074796 -1.275084 0.000000 -0.383864 -1.064082 0.000000 0.387566 -0.022771 0.000000 0.228374 0.503251 0.000000 -0.239833 0.005045 0.000000 -0.243432 0.100545 0.000000 -0.084877 0.605477 0.000000 0.316427 0.931490 0.000000 0.000000 1.088899 0.000000 -0.316427 0.931490 0.000000 0.084877 0.605477 0.000000 0.243432 0.100545 0.000000 0.239833 0.005045 0.000000 -0.228374 0.503251 0.000000 -0.387566 -0.022771 0.000000 0.383864 -1.064082 0.000000 -0.074796 -1.275084 0.000000 -0.322384 -1.011177 0.000000 -0.314411 -0.855989 0.000000 -0.395403 -0.567427 0.000000 -0.327943 -0.169288 0.000000 -0.312213 0.204551 0.000000 -0.220591 0.643160 0.000000 -0.123542 0.902848 0.000000 
-0.000000 0.906650 0.000000 0.161949 0.774294 0.000000 0.287579 0.537943 0.000000 0.402315 0.145170 0.000000 0.425458 -0.204628 0.000000 0.487106 -0.562648 0.000000 0.412075 -0.824443 0.000000 0.428261 -1.008245 0.000000 0.318838 -1.114525 0.000000 0.182164 -1.030717 0.000000 0.206562 -0.367292 0.000000 0.949795 0.829319 0.000000 0.625309 0.955964 0.000000 0.256928 0.563228 0.000000 -0.401519 0.214072 0.000000 -0.324866 0.289600 0.000000 0.000000 0.699170 0.000000 0.324866 0.289600 0.000000 0.401519 0.214072 0.000000 -0.256928 0.563228 0.000000 -0.625309 0.955964 0.000000 -0.949795 0.829319 0.000000 -0.206562 -0.367292 0.000000 -0.182164 -1.030717 0.000000 -0.318838 -1.114525 0.000000 -0.428261 -1.008245 0.000000 -0.412075 -0.824443 0.000000 -0.487106 -0.562648 0.000000 -0.425458 -0.204628 0.000000 -0.402315 0.145170 0.000000 -0.287579 0.537943 0.000000 -0.161949 0.774294 0.000000 
-0.000000 0.726103 0.000000 0.178431 0.615269 0.000000 0.317018 0.402793 0.000000 0.439071 0.066672 0.000000 0.467783 -0.254079 0.000000 0.514997 -0.554044 0.000000 0.439382 -0.797144 0.000000 0.425628 -0.917940 0.000000 0.253944 -1.028987 0.000000 0.185334 -0.951806 0.000000 -0.078730 -0.790402 0.000000 0.376420 0.084504 0.000000 0.656814 0.697912 0.000000 1.069229 1.127374 0.000000 0.935735 1.187272 0.000000 0.342231 0.529971 0.000000 -0.000000 0.439167 0.000000 -0.342231 0.529971 0.000000 -0.935735 1.187272 0.000000 -1.069229 1.127374 0.000000 -0.656814 0.697912 0.000000 -0.376420 0.084504 0.000000 0.078730 -0.790402 0.000000 -0.185334 -0.951806 0.000000 -0.253944 -1.028987 0.000000 -0.425628 -0.917940 0.000000 -0.439382 -0.797144 0.000000 -0.514997 -0.554044 0.000000 -0.467783 -0.254079 0.000000 -0.439071 0.066672 0.000000 -0.317018 0.402793 0.000000 -0.178431 0.615269 0.000000 
-0.000000 0.549789 0.000000 0.177650 0.457275 0.000000 0.316534 0.277302 0.000000 0.434063 -0.005595 0.000000 0.467061 -0.280554 0.000000 0.500459 -0.534247 0.000000 0.444569 -0.735075 0.000000 0.412945 -0.822808 0.000000 0.311312 -0.874231 0.000000 0.207521 -0.698042 0.000000 0.049473 -0.558378 0.000000 -0.050023 0.093775 0.000000 0.219642 0.263155 0.000000 0.415681 0.284307 0.000000 0.832908 0.941069 0.000000 0.581701 1.225335 0.000000 -0.000000 1.383632 0.000000 -0.581701 1.225335 0.000000 -0.832908 0.941069 0.000000 -0.415681 0.284307 0.000000 -0.219642 0.263155 0.000000 0.050023 0.093775 0.000000 -0.049473 -0.558378 0.000000 -0.207521 -0.698042 0.000000 -0.311312 -0.874231 0.000000 -0.412945 -0.822808 0.000000 -0.444569 -0.735075 0.000000 -0.500459 -0.534247 0.000000 -0.467061 -0.280554 0.000000 -0.434063 -0.005595 0.000000 -0.316534 0.277302 0.000000 -0.177650 0.457275 0.000000 
-0.000000 0.370802 0.000000 0.159895 0.298735 0.000000 0.283586 0.146380 0.000000 0.384791 -0.083854 0.000000 0.408901 -0.320475 0.000000 0.427661 -0.531552 0.000000 0.370362 -0.709630 0.000000 0.335316 -0.784684 0.000000 0.246388 -0.823564 0.000000 0.181867 -0.689967 0.000000 0.134826 -0.532858 0.000000 0.070228 -0.085665 0.000000 0.352151 0.232209 0.000000 0.225870 0.514108 0.000000 0.267675 1.021251 0.000000 0.208894 1.362880 0.000000 -0.000000 1.602569 0.000000 -0.208894 1.362880 0.000000 -0.267675 1.021251 0.000000 -0.225870 0.514108 0.000000 -0.352151 0.232209 0.000000 -0.070228 -0.085665 0.000000 -0.134826 -0.532858 0.000000 -0.181867 -0.689967 0.000000 -0.246388 -0.823564 0.000000 -0.335316 -0.784684 0.000000 -0.370362 -0.709630 0.000000 -0.427661 -0.531552 0.000000 -0.408901 -0.320475 0.000000 -0.384791 -0.083854 0.000000 -0.283586 0.146380 0.000000 -0.159895 0.298735 0.000000 
-0.000000 0.229999 0.000000 0.129580 0.173690 0.000000 0.228202 0.052406 0.000000 0.301344 -0.130910 0.000000 0.311596 -0.323423 0.000000 0.304538 -0.495708 0.000000 0.244731 -0.642730 0.000000 0.183395 -0.698834 0.000000 0.100192 -0.720782 0.000000 0.012496 -0.586481 0.000000 -0.041142 -0.446739 0.000000 -0.112772 -0.123550 0.000000 0.015720 0.107512 0.000000 -0.008731 0.368783 0.000000 0.070898 0.958046 0.000000 0.059484 1.493010 0.000000 -0.000000 1.801420 0.000000 -0.059484 1.493010 0.000000 -0.070898 0.958046 0.000000 0.008731 0.368783 0.000000 -0.015720 0.107512 0.000000 0.112772 -0.123550 0.000000 0.041142 -0.446739 0.000000 -0.012496 -0.586481 0.000000 -0.100192 -0.720782 0.000000 -0.183395 -0.698834 0.000000 -0.244731 -0.642730 0.000000 -0.304538 -0.495708 0.000000 -0.311596 -0.323423 0.000000 -0.301344 -0.130910 0.000000 -0.228202 0.052406 0.000000 -0.129580 0.173690 0.000000 
-0.000000 0.111643 0.000000 0.093487 0.070533 0.000000 0.160111 -0.025384 0.000000 0.202273 -0.167248 0.000000 0.189915 -0.323668 0.000000 0.157624 -0.464686 0.000000 0.080634 -0.588487 0.000000 -0.002323 -0.640146 0.000000 -0.096261 -0.652664 0.000000 -0.191744 -0.548632 0.000000 -0.234319 -0.407590 0.000000 -0.301185 -0.142528 0.000000 -0.226653 0.128167 0.000000 -0.291836 0.458929 0.000000 -0.252858 0.953037 0.000000 -0.159914 1.433778 0.000000 0.000000 1.721536 0.000000 0.159914 1.433778 0.000000 0.252858 0.953037 0.000000 0.291836 0.458929 0.000000 0.226653 0.128167 0.000000 0.301185 -0.142528 0.000000 0.234319 -0.407590 0.000000 0.191744 -0.548632 0.000000 0.096261 -0.652664 0.000000 0.002323 -0.640146 0.000000 -0.080634 -0.588487 0.000000 -0.157624 -0.464686 0.000000 -0.189915 -0.323668 0.000000 -0.202273 -0.167248 0.000000 -0.160111 -0.025384 0.000000 -0.093487 0.070533 0.000000 
-0.000000 0.043026 0.000000 0.055000 0.013578 0.000000 0.087517 -0.056381 0.000000 0.093679 -0.160713 0.000000 0.053959 -0.278774 0.000000 -0.015028 -0.386427 0.000000 -0.120657 -0.482783 0.000000 -0.246166 -0.521939 0.000000 -0.373966 -0.531361 0.000000 -0.507772 -0.448423 0.000000 -0.588051 -0.337297 0.000000 -0.669196 -0.131215 0.000000 -0.638623 0.098163 0.000000 -0.637035 0.394987 0.000000 -0.514827 0.826125 0.000000 -0.319349 1.240152 0.000000 0.000000 1.481591 0.000000 0.319349 1.240152 0.000000 0.514827 0.826125 0.000000 0.637035 0.394987 0.000000 0.638623 0.098163 0.000000 0.669196 -0.131215 0.000000 0.588051 -0.337297 0.000000 0.507772 -0.448423 0.000000 0.373966 -0.531361 0.000000 0.246166 -0.521939 0.000000 0.120657 -0.482783 0.000000 0.015028 -0.386427 0.000000 -0.053959 -0.278774 0.000000 -0.093679 -0.160713 0.000000 -0.087517 -0.056381 0.000000 -0.055000 0.013578 0.000000 
-0.000000 0.001643 0.000000 0.024149 -0.016984 0.000000 0.028085 -0.064064 0.000000 0.005645 -0.133691 0.000000 -0.059874 -0.214961 0.000000 -0.159181 -0.290070 0.000000 -0.294150 -0.357349 0.000000 -0.455094 -0.386837 0.000000 -0.614180 -0.391059 0.000000 -0.781497 -0.334547 0.000000 -0.886457 -0.246166 0.000000 -0.987498 -0.091956 0.000000 -0.967033 0.096006 0.000000 -0.939796 0.335134 0.000000 -0.752077 0.635352 0.000000 -0.454729 0.918951 0.000000 0.000000 1.082838 0.000000 0.454729 0.918951 0.000000 0.752077 0.635352 0.000000 0.939796 0.335134 0.000000 0.967033 0.096006 0.000000 0.987498 -0.091956 0.000000 0.886457 -0.246166 0.000000 0.781497 -0.334547 0.000000 0.614180 -0.391059 0.000000 0.455094 -0.386837 0.000000 0.294150 -0.357349 0.000000 0.159181 -0.290070 0.000000 0.059874 -0.214961 0.000000 -0.005645 -0.133691 0.000000 -0.028085 -0.064064 0.000000 -0.024149 -0.016984 0.000000 
-0.000000 -0.005271 0.000000 0.000821 -0.014506 0.000000 -0.016984 -0.037877 0.000000 -0.063242 -0.072754 0.000000 -0.150675 -0.113948 0.000000 -0.278203 -0.152151 0.000000 -0.440745 -0.186871 0.000000 -0.635552 -0.201908 0.000000 -0.827582 -0.204958 0.000000 -1.026611 -0.176147 0.000000 -1.162129 -0.131296 0.000000 -1.272777 -0.050639 0.000000 -1.254085 0.050461 0.000000 -1.176771 0.180031 0.000000 -0.918951 0.341058 0.000000 -0.541419 0.488075 0.000000 0.000000 0.572133 0.000000 0.541419 0.488075 0.000000 0.918951 0.341058 0.000000 1.176771 0.180031 0.000000 1.254085 0.050461 0.000000 1.272777 -0.050639 0.000000 1.162129 -0.131296 0.000000 1.026611 -0.176147 0.000000 0.827582 -0.204958 0.000000 0.635552 -0.201908 0.000000 0.440745 -0.186871 0.000000 0.278203 -0.152151 0.000000 0.150675 -0.113948 0.000000 0.063242 -0.072754 0.000000 0.016984 -0.037877 0.000000 -0.000821 -0.014506 0.000000 
