# vtk DataFile Version 2.0
Comment goes here
ASCII

DATASET STRUCTURED_POINTS
FIELD FieldData 1
TIME 1 1 double
0.34000000
DIMENSIONS    32   32   1

ORIGIN    0.000   0.000   0.000
SPACING   0.03125 0.03125   1.000

POINT_DATA   1024
VECTORS u double

0.000000 -0.000000 0.000000 0.063245 -0.000000 0.000000 0.125758 -0.000000 0.000000 0.184024 -0.000000 0.000000 0.238679 -0.000000 0.000000 0.283299 -0.000000 0.000000 0.314448 -0.000000 0.000000 0.325298 -0.000000 0.000000 0.296557 -0.000000 0.000000 0.233369 -0.000000 0.000000 0.092126 0.000000 0.000000 -0.067692 -0.000000 0.000000 -0.289996 -0.000000 0.000000 -0.400302 -0.000000 0.000000 -0.462083 -0.000000 0.000000 -0.317938 -0.000000 0.000000 -0.000000 0.000000 0.000000 0.317938 0.000000 0.000000 0.462083 0.000000 0.000000 0.400302 0.000000 0.000000 0.289996 0.000000 0.000000 0.067692 0.000000 0.000000 -0.092126 0.000000 0.000000 -0.233369 0.000000 0.000000 -0.296557 0.000000 0.000000 -0.325298 0.000000 0.000000 -0.314448 0.000000 0.000000 -0.283299 0.000000 0.000000 -0.238679 0.000000 0.000000 -0.184024 0.000000 0.000000 -0.125758 -0.000000 0.000000 -0.063245 0.000000 0.000000 
0.000000 -0.063245 0.000000 0.064972 -0.062879 0.000000 0.128853 -0.060389 0.000000 0.189271 -0.056461 0.000000 0.245218 -0.049637 0.000000 0.292412 -0.037884 0.000000 0.325303 -0.021000 0.000000 0.338647 0.008945 0.000000 0.312466 0.045965 0.000000 0.248863 0.102216 0.000000 0.108426 0.150531 0.000000 -0.069063 0.191061 0.000000 -0.300813 0.166305 0.000000 -0.457879 0.086044 0.000000 -0.493565 -0.041182 0.000000 -0.277801 -0.231042 0.000000 -0.000000 -0.317938 0.000000 0.277801 -0.231042 0.000000 0.493565 -0.041182 0.000000 0.457879 0.086044 0.000000 0.300813 0.166305 0.000000 0.069063 0.191061 0.000000 -0.108426 0.150531 0.000000 -0.248863 0.102216 0.000000 -0.312466 0.045965 0.000000 -0.338647 0.008945 0.000000 -0.325303 -0.021000 0.000000 -0.292412 -0.037884 0.000000 -0.245218 -0.049637 0.000000 -0.189271 -0.056461 0.000000 -0.128853 -0.060389 0.000000 -0.064972 -0.062879 0.000000 
0.000000 -0.129945 0.000000 0.065980 -0.128853 0.000000 0.131807 -0.124299 0.000000 0.193914 -0.116365 0.000000 0.255657 -0.103141 0.000000 0.309754 -0.080085 0.000000 0.360106 -0.046235 0.000000 0.397680 0.012837 0.000000 0.416858 0.089784 0.000000 0.418846 0.204039 0.000000 0.370425 0.317926 0.000000 0.313063 0.409240 0.000000 0.192667 0.388816 0.000000 0.186965 0.192751 0.000000 0.054031 -0.180078 0.000000 -0.045863 -0.493565 0.000000 -0.000000 -0.555601 0.000000 0.045863 -0.493565 0.000000 -0.054031 -0.180078 0.000000 -0.186965 0.192751 0.000000 -0.192667 0.388816 0.000000 -0.313063 0.409240 0.000000 -0.370425 0.317926 0.000000 -0.418846 0.204039 0.000000 -0.416858 0.089784 0.000000 -0.397680 0.012837 0.000000 -0.360106 -0.046235 0.000000 -0.309754 -0.080085 0.000000 -0.255657 -0.103141 0.000000 -0.193914 -0.116365 0.000000 -0.131807 -0.124299 0.000000 -0.065980 -0.128853 0.000000 
0.000000 -0.195205 0.000000 0.070216 -0.194686 0.000000 0.140214 -0.188323 0.000000 0.207971 -0.180312 0.000000 0.277088 -0.165477 0.000000 0.343150 -0.142333 0.000000 0.413076 -0.108926 0.000000 0.480341 -0.047807 0.000000 0.545382 0.024799 0.000000 0.609383 0.148649 0.000000 0.629179 0.256314 0.000000 0.615610 0.368820 0.000000 0.489793 0.292403 0.000000 0.364709 0.224680 0.000000 0.301511 0.191645 0.000000 0.338636 -0.177011 0.000000 -0.000000 -0.409663 0.000000 -0.338636 -0.177011 0.000000 -0.301511 0.191645 0.000000 -0.364709 0.224680 0.000000 -0.489793 0.292403 0.000000 -0.615610 0.368820 0.000000 -0.629179 0.256314 0.000000 -0.609383 0.148649 0.000000 -0.545382 0.024799 0.000000 -0.480341 -0.047807 0.000000 -0.413076 -0.108926 0.000000 -0.343150 -0.142333 0.000000 -0.277088 -0.165477 0.000000 -0.207971 -0.180312 0.000000 -0.140214 -0.188323 0.000000 -0.070216 -0.194686 0.000000 
0.000000 -0.270376 0.000000 0.071877 -0.269067 0.000000 0.143628 -0.262054 0.000000 0.211508 -0.253239 0.000000 0.284570 -0.238321 0.000000 0.353426 -0.216073 0.000000 0.441015 -0.183426 0.000000 0.527596 -0.119470 0.000000 0.645435 -0.039258 0.000000 0.777502 0.120243 0.000000 0.924797 0.311700 0.000000 1.057954 0.548626 0.000000 1.349925 0.639716 0.000000 2.097333 0.381033 0.000000 2.221873 -0.154005 0.000000 1.361436 -0.192054 0.000000 -0.000000 0.121671 0.000000 -1.361436 -0.192054 0.000000 -2.221873 -0.154005 0.000000 -2.097333 0.381033 0.000000 -1.349925 0.639716 0.000000 -1.057954 0.548626 0.000000 -0.924797 0.311700 0.000000 -0.777502 0.120243 0.000000 -0.645435 -0.039258 0.000000 -0.527596 -0.119470 0.000000 -0.441015 -0.183426 0.000000 -0.353426 -0.216073 0.000000 -0.284570 -0.238321 0.000000 -0.211508 -0.253239 0.000000 -0.143628 -0.262054 0.000000 -0.071877 -0.269067 0.000000 
0.000000 -0.338960 0.000000 0.076277 -0.338314 0.000000 0.150566 -0.327954 0.000000 0.221119 -0.321253 0.000000 0.296696 -0.307396 0.000000 0.372825 -0.298778 0.000000 0.478699 -0.283096 0.000000 0.595812 -0.252226 0.000000 0.780734 -0.225107 0.000000 1.049723 -0.130713 0.000000 1.401995 -0.024138 0.000000 1.872134 -0.056308 0.000000 2.709569 -0.746977 0.000000 2.758460 -0.647268 0.000000 1.451885 0.927542 0.000000 0.392193 2.044861 0.000000 0.000000 2.313210 0.000000 -0.392193 2.044861 0.000000 -1.451885 0.927542 0.000000 -2.758460 -0.647268 0.000000 -2.709569 -0.746977 0.000000 -1.872134 -0.056308 0.000000 -1.401995 -0.024138 0.000000 -1.049723 -0.130713 0.000000 -0.780734 -0.225107 0.000000 -0.595812 -0.252226 0.000000 -0.478699 -0.283096 0.000000 -0.372825 -0.298778 0.000000 -0.296696 -0.307396 0.000000 -0.221119 -0.321253 0.000000 -0.150566 -0.327954 0.000000 -0.076277 -0.338314 0.000000 
0.000000 -0.422931 0.000000 0.078170 -0.419633 0.000000 0.150244 -0.406895 0.000000 0.213412 -0.399369 0.000000 0.277848 -0.390028 0.000000 0.336143 -0.398075 0.000000 0.433361 -0.406413 0.000000 0.528117 -0.421505 0.000000 0.750753 -0.493169 0.000000 1.125513 -0.501018 0.000000 1.503173 -0.510712 0.000000 1.418038 -0.758948 0.000000 0.786611 -0.246609 0.000000 -1.159382 1.638717 0.000000 -2.133794 2.212261 0.000000 -1.188103 1.259832 0.000000 0.000000 0.906057 0.000000 1.188103 1.259832 0.000000 2.133794 2.212261 0.000000 1.159382 1.638717 0.000000 -0.786611 -0.246609 0.000000 -1.418038 -0.758948 0.000000 -1.503173 -0.510712 0.000000 -1.125513 -0.501018 0.000000 -0.750753 -0.493169 0.000000 -0.528117 -0.421505 0.000000 -0.433361 -0.406413 0.000000 -0.336143 -0.398075 0.000000 -0.277848 -0.390028 0.000000 -0.213412 -0.399369 0.000000 -0.150244 -0.406895 0.000000 -0.078170 -0.419633 0.000000 
0.000000 -0.495299 0.000000 0.083091 -0.488558 0.000000 0.152300 -0.463196 0.000000 0.207824 -0.448858 0.000000 0.253055 -0.430127 0.000000 0.291591 -0.454291 0.000000 0.368895 -0.475070 0.000000 0.439922 -0.569619 0.000000 0.778220 -0.822502 0.000000 1.125710 -0.883133 0.000000 0.950256 -0.316662 0.000000 -0.016511 0.660254 0.000000 -1.116814 1.830443 0.000000 -1.386364 2.273137 0.000000 -0.410998 0.956263 0.000000 0.139474 -0.088933 0.000000 -0.000000 -0.062997 0.000000 -0.139474 -0.088933 0.000000 0.410998 0.956263 0.000000 1.386364 2.273137 0.000000 1.116814 1.830443 0.000000 0.016511 0.660254 0.000000 -0.950256 -0.316662 0.000000 -1.125710 -0.883133 0.000000 -0.778220 -0.822502 0.000000 -0.439922 -0.569619 0.000000 -0.368895 -0.475070 0.000000 -0.291591 -0.454291 0.000000 -0.253055 -0.430127 0.000000 -0.207824 -0.448858 0.000000 -0.152300 -0.463196 0.000000 -0.083091 -0.488558 0.000000 
-0.000000 -0.589114 0.000000 0.091577 -0.571933 0.000000 0.156902 -0.531628 0.000000 0.199071 -0.500125 0.000000 0.206417 -0.473795 0.000000 0.197836 -0.513914 0.000000 0.215390 -0.554744 0.000000 0.201715 -0.830830 0.000000 0.609501 -1.178956 0.000000 0.266133 -0.673054 0.000000 -0.401582 0.631508 0.000000 -1.063359 1.308122 0.000000 -1.174771 1.123244 0.000000 -0.045271 0.932901 0.000000 0.803561 0.686424 0.000000 0.534464 0.848833 0.000000 -0.000000 1.185005 0.000000 -0.534464 0.848833 0.000000 -0.803561 0.686424 0.000000 0.045271 0.932901 0.000000 1.174771 1.123244 0.000000 1.063359 1.308122 0.000000 0.401582 0.631508 0.000000 -0.266133 -0.673054 0.000000 -0.609501 -1.178956 0.000000 -0.201715 -0.830830 0.000000 -0.215390 -0.554744 0.000000 -0.197836 -0.513914 0.000000 -0.206417 -0.473795 0.000000 -0.199071 -0.500125 0.000000 -0.156902 -0.531628 0.000000 -0.091577 -0.571933 0.000000 
0.000000 -0.678453 0.000000 0.101993 -0.645460 0.000000 0.163683 -0.570690 0.000000 0.190523 -0.498372 0.000000 0.141767 -0.428892 0.000000 0.092203 -0.463265 0.000000 0.017338 -0.478949 0.000000 0.035481 -0.963730 0.000000 0.207786 -0.886920 0.000000 -0.631116 0.127950 0.000000 -0.819641 1.012830 0.000000 -0.871385 1.433443 0.000000 -0.889289 0.812355 0.000000 -0.115306 0.294804 0.000000 0.087103 0.376529 0.000000 0.055196 0.714629 0.000000 -0.000000 1.005931 0.000000 -0.055196 0.714629 0.000000 -0.087103 0.376529 0.000000 0.115306 0.294804 0.000000 0.889289 0.812355 0.000000 0.871385 1.433443 0.000000 0.819641 1.012830 0.000000 0.631116 0.127950 0.000000 -0.207786 -0.886920 0.000000 -0.035481 -0.963730 0.000000 -0.017338 -0.478949 0.000000 -0.092203 -0.463265 0.000000 -0.141767 -0.428892 0.000000 -0.190523 -0.498372 0.000000 -0.163683 -0.570690 0.000000 -0.101993 -0.645460 0.000000 
-0.000000 -0.793100 0.000000 0.116845 -0.735615 0.000000 0.183627 -0.620158 0.000000 0.214993 -0.478209 0.000000 0.118684 -0.375475 0.000000 0.078626 -0.389485 0.000000 -0.103315 -0.498022 0.000000 0.047723 -1.021278 0.000000 -0.465026 -0.512358 0.000000 -0.797941 0.354373 0.000000 -0.865020 0.871777 0.000000 -1.047307 1.377770 0.000000 -0.569133 0.367165 0.000000 -0.260480 -0.043491 0.000000 -0.137095 0.515922 0.000000 -0.085673 0.935936 0.000000 -0.000000 1.295397 0.000000 0.085673 0.935936 0.000000 0.137095 0.515922 0.000000 0.260480 -0.043491 0.000000 0.569133 0.367165 0.000000 1.047307 1.377770 0.000000 0.865020 0.871777 0.000000 0.797941 0.354373 0.000000 0.465026 -0.512358 0.000000 -0.047723 -1.021278 0.000000 0.103315 -0.498022 0.000000 -0.078626 -0.389485 0.000000 -0.118684 -0.375475 0.000000 -0.214993 -0.478209 0.000000 -0.183627 -0.620158 0.000000 -0.116845 -0.735615 0.000000 
0.000000 -0.912143 0.000000 0.113495 -0.829086 0.000000 0.185752 -0.668839 0.000000 0.217349 -0.433430 0.000000 0.094667 -0.292525 0.000000 0.002577 -0.241265 0.000000 -0.269752 -0.448047 0.000000 -0.228485 -0.602018 0.000000 -1.191929 -0.041256 0.000000 -0.816626 0.527944 0.000000 -0.896309 1.262195 0.000000 -1.228786 1.137556 0.000000 -0.540063 0.025528 0.000000 -0.807029 -0.137234 0.000000 -0.529566 0.201721 0.000000 -0.360836 0.577534 0.000000 0.000000 0.834586 0.000000 0.360836 0.577534 0.000000 0.529566 0.201721 0.000000 0.807029 -0.137234 0.000000 0.540063 0.025528 0.000000 1.228786 1.137556 0.000000 0.896309 1.262195 0.000000 0.816626 0.527944 0.000000 1.191929 -0.041256 0.000000 0.228485 -0.602018 0.000000 0.269752 -0.448047 0.000000 -0.002577 -0.241265 0.000000 -0.094667 -0.292525 0.000000 -0.217349 -0.433430 0.000000 -0.185752 -0.668839 0.000000 -0.113495 -0.829086 0.000000 
-0.000000 -1.020090 0.000000 0.085738 -0.921368 0.000000 0.151415 -0.724012 0.000000 0.180321 -0.387123 0.000000 0.076656 -0.160703 0.000000 -0.028627 -0.025066 0.000000 -0.275533 -0.266960 0.000000 -0.446068 -0.099101 0.000000 -1.087394 0.075783 0.000000 -0.663895 0.058752 0.000000 -0.634844 1.283937 0.000000 -0.811217 1.021524 0.000000 -0.391660 -0.054592 0.000000 -0.647469 -0.053989 0.000000 -0.446881 0.069729 0.000000 -0.322603 0.406370 0.000000 -0.000000 0.573724 0.000000 0.322603 0.406370 0.000000 0.446881 0.069729 0.000000 0.647469 -0.053989 0.000000 0.391660 -0.054592 0.000000 0.811217 1.021524 0.000000 0.634844 1.283937 0.000000 0.663895 0.058752 0.000000 1.087394 0.075783 0.000000 0.446068 -0.099101 0.000000 0.275533 -0.266960 0.000000 0.028627 -0.025066 0.000000 -0.076656 -0.160703 0.000000 -0.180321 -0.387123 0.000000 -0.151415 -0.724012 0.000000 -0.085738 -0.921368 0.000000 
0.000000 -1.083618 0.000000 -0.000342 -0.980501 0.000000 0.016194 -0.763422 0.000000 0.017541 -0.358671 0.000000 -0.020926 -0.083577 0.000000 -0.153734 0.110924 0.000000 -0.437136 -0.030606 0.000000 -0.806150 0.209842 0.000000 -0.835917 0.176571 0.000000 -0.754315 0.075394 0.000000 -0.826612 1.409518 0.000000 -0.595027 0.894372 0.000000 -0.417489 -0.138220 0.000000 -0.492019 -0.082013 0.000000 -0.380364 -0.123145 0.000000 -0.265462 0.130653 0.000000 0.000000 0.189380 0.000000 0.265462 0.130653 0.000000 0.380364 -0.123145 0.000000 0.492019 -0.082013 0.000000 0.417489 -0.138220 0.000000 0.595027 0.894372 0.000000 0.826612 1.409518 0.000000 0.754315 0.075394 0.000000 0.835917 0.176571 0.000000 0.806150 0.209842 0.000000 0.437136 -0.030606 0.000000 0.153734 0.110924 0.000000 0.020926 -0.083577 0.000000 -0.017541 -0.358671 0.000000 -0.016194 -0.763422 0.000000 0.000342 -0.980501 0.000000 
-0.000000 -1.019407 0.000000 -0.166436 -0.937562 0.000000 -0.296778 -0.741894 0.000000 -0.431080 -0.350003 0.000000 -0.496820 0.010571 0.000000 -0.660142 0.391144 0.000000 -0.786964 0.385457 0.000000 -0.959018 0.299680 0.000000 -0.603440 0.023948 0.000000 -0.793733 0.049448 0.000000 -0.747072 1.124649 0.000000 -0.073498 0.612401 0.000000 -0.163051 -0.157599 0.000000 -0.121855 -0.091113 0.000000 -0.171781 -0.156828 0.000000 -0.116266 0.026006 0.000000 -0.000000 0.042800 0.000000 0.116266 0.026006 0.000000 0.171781 -0.156828 0.000000 0.121855 -0.091113 0.000000 0.163051 -0.157599 0.000000 0.073498 0.612401 0.000000 0.747072 1.124649 0.000000 0.793733 0.049448 0.000000 0.603440 0.023948 0.000000 0.959018 0.299680 0.000000 0.786964 0.385457 0.000000 0.660142 0.391144 0.000000 0.496820 0.010571 0.000000 0.431080 -0.350003 0.000000 0.296778 -0.741894 0.000000 0.166436 -0.937562 0.000000 
0.000000 -0.750746 0.000000 -0.509703 -0.683723 0.000000 -0.937562 -0.498777 0.000000 -1.251597 -0.158629 0.000000 -1.287564 0.145485 0.000000 -1.241026 0.401067 0.000000 -0.896421 0.268270 0.000000 -0.855569 0.026319 0.000000 -0.596741 0.011286 0.000000 -0.831621 0.219025 0.000000 -0.547293 0.689283 0.000000 0.293028 0.310351 0.000000 0.065108 -0.089863 0.000000 0.135428 -0.073283 0.000000 -0.026006 -0.128734 0.000000 -0.021400 -0.041128 0.000000 0.000000 -0.043152 0.000000 0.021400 -0.041128 0.000000 0.026006 -0.128734 0.000000 -0.135428 -0.073283 0.000000 -0.065108 -0.089863 0.000000 -0.293028 0.310351 0.000000 0.547293 0.689283 0.000000 0.831621 0.219025 0.000000 0.596741 0.011286 0.000000 0.855569 0.026319 0.000000 0.896421 0.268270 0.000000 1.241026 0.401067 0.000000 1.287564 0.145485 0.000000 1.251597 -0.158629 0.000000 0.937562 -0.498777 0.000000 0.509703 -0.683723 0.000000 
-0.000000 -0.000000 0.000000 -0.750746 -0.000000 0.000000 -1.367446 -0.000000 0.000000 -1.748301 -0.000000 0.000000 -1.684704 -0.000000 0.000000 -1.457331 -0.000000 0.000000 -0.882569 -0.000000 0.000000 -0.920792 -0.000000 0.000000 -0.829932 0.000000 0.000000 -0.898220 0.000000 0.000000 -0.391881 -0.000000 0.000000 0.480346 0.000000 0.000000 0.228821 0.000000 0.000000 0.300620 -0.000000 0.000000 0.082256 -0.000000 0.000000 0.043152 -0.000000 0.000000 -0.000000 -0.000000 0.000000 -0.043152 -0.000000 0.000000 -0.082256 -0.000000 0.000000 -0.300620 -0.000000 0.000000 -0.228821 -0.000000 0.000000 -0.480346 -0.000000 0.000000 0.391881 0.000000 0.000000 0.898220 0.000000 0.000000 0.829932 0.000000 0.000000 0.920792 -0.000000 0.000000 0.882569 -0.000000 0.000000 1.457331 0.000000 0.000000 1.684704 0.000000 0.000000 1.748301 0.000000 0.000000 1.367446 0.000000 0.000000 0.750746 0.000000 0.000000 
-0.000000 0.750746 0.000000 -0.509703 0.683723 0.000000 -0.937562 0.498777 0.000000 -1.251597 0.158629 0.000000 -1.287564 -0.145485 0.000000 -1.241026 -0.401067 0.000000 -0.896421 -0.268270 0.000000 -0.855569 -0.026319 0.000000 -0.596741 -0.011286 0.000000 -0.831621 -0.219025 0.000000 -0.547293 -0.689283 0.000000 0.293028 -0.310351 0.000000 0.065108 0.089863 0.000000 0.135428 0.073283 0.000000 -0.026006 0.128734 0.000000 -0.021400 0.041128 0.000000 -0.000000 0.043152 0.000000 0.021400 0.041128 0.000000 0.026006 0.128734 0.000000 -0.135428 0.073283 0.000000 -0.065108 0.089863 0.000000 -0.293028 -0.310351 0.000000 0.547293 -0.689283 0.000000 0.831621 -0.219025 0.000000 0.596741 -0.011286 0.000000 0.855569 -0.026319 0.000000 0.896421 -0.268270 0.000000 1.241026 -0.401067 0.000000 1.287564 -0.145485 0.000000 1.251597 0.158629 0.000000 0.937562 0.498777 0.000000 0.509703 0.683723 0.000000 
0.000000 1.019407 0.000000 -0.166436 0.937562 0.000000 -0.296778 0.741894 0.000000 -0.431080 0.350003 0.000000 -0.496820 -0.010571 0.000000 -0.660142 -0.391144 0.000000 -0.786964 -0.385457 0.000000 -0.959018 -0.299680 0.000000 -0.603440 -0.023948 0.000000 -0.793733 -0.049448 0.000000 -0.747072 -1.124649 0.000000 -0.073498 -0.612401 0.000000 -0.163051 0.157599 0.000000 -0.121855 0.091113 0.000000 -0.171781 0.156828 0.000000 -0.116266 -0.026006 0.000000 0.000000 -0.042800 0.000000 0.116266 -0.026006 0.000000 0.171781 0.156828 0.000000 0.121855 0.091113 0.000000 0.163051 0.157599 0.000000 0.073498 -0.612401 0.000000 0.747072 -1.124649 0.000000 0.793733 -0.049448 0.000000 0.603440 -0.023948 0.000000 0.959018 -0.299680 0.000000 0.786964 -0.385457 0.000000 0.660142 -0.391144 0.000000 0.496820 -0.010571 0.000000 0.431080 0.350003 0.000000 0.296778 0.741894 0.000000 0.166436 0.937562 0.000000 
-0.000000 1.083618 0.000000 -0.000342 0.980501 0.000000 0.016194 0.763422 0.000000 0.017541 0.358671 0.000000 -0.020926 0.083577 0.000000 -0.153734 -0.110924 0.000000 -0.437136 0.030606 0.000000 -0.806150 -0.209842 0.000000 -0.835917 -0.176571 0.000000 -0.754315 -0.075394 0.000000 -0.826612 -1.409518 0.000000 -0.595027 -0.894372 0.000000 -0.417489 0.138220 0.000000 -0.492019 0.082013 0.000000 -0.380364 0.123145 0.000000 -0.265462 -0.130653 0.000000 0.000000 -0.189380 0.000000 0.265462 -0.130653 0.000000 0.380364 0.123145 0.000000 0.492019 0.082013 0.000000 0.417489 0.138220 0.000000 0.595027 -0.894372 0.000000 0.826612 -1.409518 0.000000 0.754315 -0.075394 0.000000 0.835917 -0.176571 0.000000 0.806150 -0.209842 0.000000 0.437136 0.030606 0.000000 0.153734 -0.110924 0.000000 0.020926 0.083577 0.000000 -0.017541 0.358671 0.000000 -0.016194 0.763422 0.000000 0.000342 0.980501 0.000000 
0.000000 1.020090 0.000000 0.085738 0.921368 0.000000 0.151415 0.724012 0.000000 0.180321 0.387123 0.000000 0.076656 0.160703 0.000000 -0.028627 0.025066 0.000000 -0.275533 0.266960 0.000000 -0.446068 0.099101 0.000000 -1.087394 -0.075783 0.000000 -0.663895 -0.058752 0.000000 -0.634844 -1.283937 0.000000 -0.811217 -1.021524 0.000000 -0.391660 0.054592 0.000000 -0.647469 0.053989 0.000000 -0.446881 -0.069729 0.000000 -0.322603 -0.406370 0.000000 0.000000 -0.573724 0.000000 0.322603 -0.406370 0.000000 0.446881 -0.069729 0.000000 0.647469 0.053989 0.000000 0.391660 0.054592 0.000000 0.811217 -1.021524 0.000000 0.634844 -1.283937 0.000000 0.663895 -0.058752 0.000000 1.087394 -0.075783 0.000000 0.446068 0.099101 0.000000 0.275533 0.266960 0.000000 0.028627 0.025066 0.000000 -0.076656 0.160703 0.000000 -0.180321 0.387123 0.000000 -0.151415 0.724012 0.000000 -0.085738 0.921368 0.000000 
-0.000000 0.912143 0.000000 0.113495 0.829086 0.000000 0.185752 0.668839 0.000000 0.217349 0.433430 0.000000 0.094667 0.292525 0.000000 0.002577 0.241265 0.000000 -0.269752 0.448047 0.000000 -0.228485 0.602018 0.000000 -1.191929 0.041256 0.000000 -0.816626 -0.527944 0.000000 -0.896309 -1.262195 0.000000 -1.228786 -1.137556 0.000000 -0.540063 -0.025528 0.000000 -0.807029 0.137234 0.000000 -0.529566 -0.201721 0.000000 -0.360836 -0.577534 0.000000 0.000000 -0.834586 0.000000 0.360836 -0.577534 0.000000 0.529566 -0.201721 0.000000 0.807029 0.137234 0.000000 0.540063 -0.025528 0.000000 1.228786 -1.137556 0.000000 0.896309 -1.262195 0.000000 0.816626 -0.527944 0.000000 1.191929 0.041256 0.000000 0.228485 0.602018 0.000000 0.269752 0.448047 0.000000 -0.002577 0.241265 0.000000 -0.094667 0.292525 0.000000 -0.217349 0.433430 0.000000 -0.185752 0.668839 0.000000 -0.113495 0.829086 0.000000 
0.000000 0.793100 0.000000 0.116845 0.735615 0.000000 0.183627 0.620158 0.000000 0.214993 0.478209 0.000000 0.118684 0.375475 0.000000 0.078626 0.389485 0.000000 -0.103315 0.498022 0.000000 0.047723 1.021278 0.000000 -0.465026 0.512358 0.000000 -0.797941 -0.354373 0.000000 -0.865020 -0.871777 0.000000 -1.047307 -1.377770 0.000000 -0.569133 -0.367165 0.000000 -0.260480 0.043491 0.000000 -0.137095 -0.515922 0.000000 -0.085673 -0.935936 0.000000 0.000000 -1.295397 0.000000 0.085673 -0.935936 0.000000 0.137095 -0.515922 0.000000 0.260480 0.043491 0.000000 0.569133 -0.367165 0.000000 1.047307 -1.377770 0.000000 0.865020 -0.871777 0.000000 0.797941 -0.354373 0.000000 0.465026 0.512358 0.000000 -0.047723 1.021278 0.000000 0.103315 0.498022 0.000000 -0.078626 0.389485 0.000000 -0.118684 0.375475 0.000000 -0.214993 0.478209 0.000000 -0.183627 0.620158 0.000000 -0.116845 0.735615 0.000000 
-0.000000 0.678453 0.000000 0.101993 0.645460 0.000000 0.163683 0.570690 0.000000 0.190523 0.498372 0.000000 0.141767 0.428892 0.000000 0.092203 0.463265 0.000000 0.017338 0.478949 0.000000 0.035481 0.963730 0.000000 0.207786 0.886920 0.000000 -0.631116 -0.127950 0.000000 -0.819641 -1.012830 0.000000 -0.871385 -1.433443 0.000000 -0.889289 -0.812355 0.000000 -0.115306 -0.294804 0.000000 0.087103 -0.376529 0.000000 0.055196 -0.714629 0.000000 0.000000 -1.005931 0.000000 -0.055196 -0.714629 0.000000 -0.087103 -0.376529 0.000000 0.115306 -0.294804 0.000000 0.889289 -0.812355 0.000000 0.871385 -1.433443 0.000000 0.819641 -1.012830 0.000000 0.631116 -0.127950 0.000000 -0.207786 0.886920 0.000000 -0.035481 0.963730 0.000000 -0.017338 0.478949 0.000000 -0.092203 0.463265 0.000000 -0.141767 0.428892 0.000000 -0.190523 0.498372 0.000000 -0.163683 0.570690 0.000000 -0.101993 0.645460 0.000000 
0.000000 0.589114 0.000000 0.091577 0.571933 0.000000 0.156902 0.531628 0.000000 0.199071 0.500125 0.000000 0.206417 0.473795 0.000000 0.197836 0.513914 0.000000 0.215390 0.554744 0.000000 0.201715 0.830830 0.000000 0.609501 1.178956 0.000000 0.266133 0.673054 0.000000 -0.401582 -0.631508 0.000000 -1.063359 -1.308122 0.000000 -1.174771 -1.123244 0.000000 -0.045271 -0.932901 0.000000 0.803561 -0.686424 0.000000 0.534464 -0.848833 0.000000 0.000000 -1.185005 0.000000 -0.534464 -0.848833 0.000000 -0.803561 -0.686424 0.000000 0.045271 -0.932901 0.000000 1.174771 -1.123244 0.000000 1.063359 -1.308122 0.000000 0.401582 -0.631508 0.000000 -0.266133 0.673054 0.000000 -0.609501 1.178956 0.000000 -0.201715 0.830830 0.000000 -0.215390 0.554744 0.000000 -0.197836 0.513914 0.000000 -0.206417 0.473795 0.000000 -0.199071 0.500125 0.000000 -0.156902 0.531628 0.000000 -0.091577 0.571933 0.000000 
-0.000000 0.495299 0.000000 0.083091 0.488558 0.000000 0.152300 0.463196 0.000000 0.207824 0.448858 0.000000 0.253055 0.430127 0.000000 0.291591 0.454291 0.000000 0.368895 0.475070 0.000000 0.439922 0.569619 0.000000 0.778220 0.822502 0.000000 1.125710 0.883133 0.000000 0.950256 0.316662 0.000000 -0.016511 -0.660254 0.000000 -1.116814 -1.830443 0.000000 -1.386364 -2.273137 0.000000 -0.410998 -0.956263 0.000000 0.139474 0.088933 0.000000 -0.000000 0.062997 0.000000 -0.139474 0.088933 0.000000 0.410998 -0.956263 0.000000 1.386364 -2.273137 0.000000 1.116814 -1.830443 0.000000 0.016511 -0.660254 0.000000 -0.950256 0.316662 0.000000 -1.125710 0.883133 0.000000 -0.778220 0.822502 0.000000 -0.439922 0.569619 0.000000 -0.368895 0.475070 0.000000 -0.291591 0.454291 0.000000 -0.253055 0.430127 0.000000 -0.207824 0.448858 0.000000 -0.152300 0.463196 0.000000 -0.083091 0.488558 0.000000 
-0.000000 0.422931 0.000000 0.078170 0.419633 0.000000 0.150244 0.406895 0.000000 0.213412 0.399369 0.000000 0.277848 0.390028 0.000000 0.336143 0.398075 0.000000 0.433361 0.406413 0.000000 0.528117 0.421505 0.000000 0.750753 0.493169 0.000000 1.125513 0.501018 0.000000 1.503173 0.510712 0.000000 1.418038 0.758948 0.000000 0.786611 0.246609 0.000000 -1.159382 -1.638717 0.000000 -2.133794 -2.212261 0.000000 -1.188103 -1.259832 0.000000 -0.000000 -0.906057 0.000000 1.188103 -1.259832 0.000000 2.133794 -2.212261 0.000000 1.159382 -1.638717 0.000000 -0.786611 0.246609 0.000000 -1.418038 0.758948 0.000000 -1.503173 0.510712 0.000000 -1.125513 0.501018 0.000000 -0.750753 0.493169 0.000000 -0.528117 0.421505 0.000000 -0.433361 0.406413 0.000000 -0.336143 0.398075 0.000000 -0.277848 0.390028 0.000000 -0.213412 0.399369 0.000000 -0.150244 0.406895 0.000000 -0.078170 0.419633 0.000000 
-0.000000 0.338960 0.000000 0.076277 0.338314 0.000000 0.150566 0.327954 0.000000 0.221119 0.321253 0.000000 0.296696 0.307396 0.000000 0.372825 0.298778 0.000000 0.478699 0.283096 0.000000 0.595812 0.252226 0.000000 0.780734 0.225107 0.000000 1.049723 0.130713 0.000000 1.401995 0.024138 0.000000 1.872134 0.056308 0.000000 2.709569 0.746977 0.000000 2.758460 0.647268 0.000000 1.451885 -0.927542 0.000000 0.392193 -2.044861 0.000000 0.000000 -2.313210 0.000000 -0.392193 -2.044861 0.000000 -1.451885 -0.927542 0.000000 -2.758460 0.647268 0.000000 -2.709569 0.746977 0.000000 -1.872134 0.056308 0.000000 -1.401995 0.024138 0.000000 -1.049723 0.130713 0.000000 -0.780734 0.225107 0.000000 -0.595812 0.252226 0.000000 -0.478699 0.283096 0.000000 -0.372825 0.298778 0.000000 -0.296696 0.307396 0.000000 -0.221119 0.321253 0.000000 -0.150566 0.327954 0.000000 -0.076277 0.338314 0.000000 
-0.000000 0.270376 0.000000 0.071877 0.269067 0.000000 0.143628 0.262054 0.000000 0.211508 0.253239 0.000000 0.284570 0.238321 0.000000 0.353426 0.216073 0.000000 0.441015 0.183426 0.000000 0.527596 0.119470 0.000000 0.645435 0.039258 0.000000 0.777502 -0.120243 0.000000 0.924797 -0.311700 0.000000 1.057954 -0.548626 0.000000 1.349925 -0.639716 0.000000 2.097333 -0.381033 0.000000 2.221873 0.154005 0.000000 1.361436 0.192054 0.000000 0.000000 -0.121671 0.000000 -1.361436 0.192054 0.000000 -2.221873 0.154005 0.000000 -2.097333 -0.381033 0.000000 -1.349925 -0.639716 0.000000 -1.057954 -0.548626 0.000000 -0.924797 -0.311700 0.000000 -0.777502 -0.120243 0.000000 -0.645435 0.039258 0.000000 -0.527596 0.119470 0.000000 -0.441015 0.183426 0.000000 -0.353426 0.216073 0.000000 -0.284570 0.238321 0.000000 -0.211508 0.253239 0.000000 -0.143628 0.262054 0.000000 -0.071877 0.269067 0.000000 
-0.000000 0.195205 0.000000 0.070216 0.194686 0.000000 0.140214 0.188323 0.000000 0.207971 0.180312 0.000000 0.277088 0.165477 0.000000 0.343150 0.142333 0.000000 0.413076 0.108926 0.000000 0.480341 0.047807 0.000000 0.545382 -0.024799 0.000000 0.609383 -0.148649 0.000000 0.629179 -0.256314 0.000000 0.615610 -0.368820 0.000000 0.489793 -0.292403 0.000000 0.364709 -0.224680 0.000000 0.301511 -0.191645 0.000000 0.338636 0.177011 0.000000 0.000000 0.409663 0.000000 -0.338636 0.177011 0.000000 -0.301511 -0.191645 0.000000 -0.364709 -0.224680 0.000000 -0.489793 -0.292403 0.000000 -0.615610 -0.368820 0.000000 -0.629179 -0.256314 0.000000 -0.609383 -0.148649 0.000000 -0.545382 -0.024799 0.000000 -0.480341 0.047807 0.000000 -0.413076 0.108926 0.000000 -0.343150 0.142333 0.000000 -0.277088 0.165477 0.000000 -0.207971 0.180312 0.000000 -0.140214 0.188323 0.000000 -0.070216 0.194686 0.000000 
-0.000000 0.129945 0.000000 0.065980 0.128853 0.000000 0.131807 0.124299 0.000000 0.193914 0.116365 0.000000 0.255657 0.103141 0.000000 0.309754 0.080085 0.000000 0.360106 0.046235 0.000000 0.397680 -0.012837 0.000000 0.416858 -0.089784 0.000000 0.418846 -0.204039 0.000000 0.370425 -0.317926 0.000000 0.313063 -0.409240 0.000000 0.192667 -0.388816 0.000000 0.186965 -0.192751 0.000000 0.054031 0.180078 0.000000 -0.045863 0.493565 0.000000 -0.000000 0.555601 0.000000 0.045863 0.493565 0.000000 -0.054031 0.180078 0.000000 -0.186965 -0.192751 0.000000 -0.192667 -0.388816 0.000000 -0.313063 -0.409240 0.000000 -0.370425 -0.317926 0.000000 -0.418846 -0.204039 0.000000 -0.416858 -0.089784 0.000000 -0.397680 -0.012837 0.000000 -0.360106 0.046235 0.000000 -0.309754 0.080085 0.000000 -0.255657 0.103141 0.000000 -0.193914 0.116365 0.000000 -0.131807 0.124299 0.000000 -0.065980 0.128853 0.000000 
0.000000 0.063245 0.000000 0.064972 0.062879 0.000000 0.128853 0.060389 0.000000 0.189271 0.056461 0.000000 0.245218 0.049637 0.000000 0.292412 0.037884 0.000000 0.325303 0.021000 0.000000 0.338647 -0.008945 0.000000 0.312466 -0.045965 0.000000 0.248863 -0.102216 0.000000 0.108426 -0.150531 0.000000 -0.069063 -0.191061 0.000000 -0.300813 -0.166305 0.000000 -0.457879 -0.086044 0.000000 -0.493565 0.041182 0.000000 -0.277801 0.231042 0.000000 -0.000000 0.317938 0.000000 0.277801 0.231042 0.000000 0.493565 0.041182 0.000000 0.457879 -0.086044 0.000000 0.300813 -0.166305 0.000000 0.069063 -0.191061 0.000000 -0.108426 -0.150531 0.000000 -0.248863 -0.102216 0.000000 -0.312466 -0.045965 0.000000 -0.338647 -0.008945 0.000000 -0.325303 0.021000 0.000000 -0.292412 0.037884 0.000000 -0.245218 0.049637 0.000000 -0.189271 0.056461 0.000000 -0.128853 0.060389 0.000000 -0.064972 0.062879 0.000000 
