# vtk DataFile Version 2.0
Comment goes here
ASCII

DATASET STRUCTURED_POINTS
FIELD FieldData 1
TIME 1 1 double
0.30000000
DIMENSIONS    32   32   1

ORIGIN    0.000   0.000   0.000
SPACING   0.03125 0.03125   1.000

POINT_DATA   1024
VECTORS u double

0.000000 -0.000000 0.000000 -0.108741 0.000000 0.000000 -0.221301 -0.000000 0.000000 -0.339463 0.000000 0.000000 -0.467703 -0.000000 0.000000 -0.604801 0.000000 0.000000 -0.754731 -0.000000 0.000000 -0.913302 0.000000 0.000000 -1.081639 0.000000 0.000000 -1.253563 0.000000 0.000000 -1.422066 0.000000 0.000000 -1.572868 0.000000 0.000000 -1.667282 -0.000000 0.000000 -1.643288 -0.000000 0.000000 -1.402233 -0.000000 0.000000 -0.856868 -0.000000 0.000000 -0.000000 0.000000 0.000000 0.856868 0.000000 0.000000 1.402233 0.000000 0.000000 1.643288 0.000000 0.000000 1.667282 0.000000 0.000000 1.572868 0.000000 0.000000 1.422066 0.000000 0.000000 1.253563 0.000000 0.000000 1.081639 0.000000 0.000000 0.913302 0.000000 0.000000 0.754731 0.000000 0.000000 0.604801 0.000000 0.000000 0.467703 -0.000000 0.000000 0.339463 0.000000 0.000000 0.221301 -0.000000 0.000000 0.108741 0.000000 0.000000 
-0.000000 0.108741 0.000000 -0.108180 0.110651 0.000000 -0.220272 0.115361 0.000000 -0.337915 0.123201 0.000000 -0.465713 0.132669 0.000000 -0.602394 0.143514 0.000000 -0.751336 0.154251 0.000000 -0.909085 0.163454 0.000000 -1.073471 0.170130 0.000000 -1.240116 0.170214 0.000000 -1.393969 0.159653 0.000000 -1.524179 0.122608 0.000000 -1.581506 0.035210 0.000000 -1.519891 -0.132525 0.000000 -1.268303 -0.393210 0.000000 -0.743194 -0.701116 0.000000 -0.000000 -0.856868 0.000000 0.743194 -0.701116 0.000000 1.268303 -0.393210 0.000000 1.519891 -0.132525 0.000000 1.581506 0.035210 0.000000 1.524179 0.122608 0.000000 1.393969 0.159653 0.000000 1.240116 0.170214 0.000000 1.073471 0.170130 0.000000 0.909085 0.163454 0.000000 0.751336 0.154251 0.000000 0.602394 0.143514 0.000000 0.465713 0.132669 0.000000 0.337915 0.123201 0.000000 0.220272 0.115361 0.000000 0.108180 0.110651 0.000000 
0.000000 0.216360 0.000000 -0.102134 0.220272 0.000000 -0.208868 0.229735 0.000000 -0.322589 0.245441 0.000000 -0.448460 0.264479 0.000000 -0.585218 0.285623 0.000000 -0.737591 0.306691 0.000000 -0.899232 0.322135 0.000000 -1.070069 0.331031 0.000000 -1.237632 0.320498 0.000000 -1.387349 0.284063 0.000000 -1.497061 0.187536 0.000000 -1.517749 -0.004289 0.000000 -1.393436 -0.313202 0.000000 -1.069400 -0.776697 0.000000 -0.550425 -1.268303 0.000000 -0.000000 -1.486388 0.000000 0.550425 -1.268303 0.000000 1.069400 -0.776697 0.000000 1.393436 -0.313202 0.000000 1.517749 -0.004289 0.000000 1.497061 0.187536 0.000000 1.387349 0.284063 0.000000 1.237632 0.320498 0.000000 1.070069 0.331031 0.000000 0.899232 0.322135 0.000000 0.737591 0.306691 0.000000 0.585218 0.285623 0.000000 0.448460 0.264479 0.000000 0.322589 0.245441 0.000000 0.208868 0.229735 0.000000 0.102134 0.220272 0.000000 
0.000000 0.313010 0.000000 -0.094944 0.319519 0.000000 -0.195661 0.335816 0.000000 -0.304723 0.362792 0.000000 -0.428933 0.395297 0.000000 -0.566142 0.432645 0.000000 -0.723056 0.468265 0.000000 -0.891625 0.495933 0.000000 -1.070357 0.508530 0.000000 -1.244626 0.487493 0.000000 -1.385773 0.419082 0.000000 -1.465403 0.253008 0.000000 -1.386348 -0.068415 0.000000 -1.158408 -0.580874 0.000000 -0.797963 -1.236221 0.000000 -0.355512 -1.770517 0.000000 0.000000 -1.957717 0.000000 0.355512 -1.770517 0.000000 0.797963 -1.236221 0.000000 1.158408 -0.580874 0.000000 1.386348 -0.068415 0.000000 1.465403 0.253008 0.000000 1.385773 0.419082 0.000000 1.244626 0.487493 0.000000 1.070357 0.508530 0.000000 0.891625 0.495933 0.000000 0.723056 0.468265 0.000000 0.566142 0.432645 0.000000 0.428933 0.395297 0.000000 0.304723 0.362792 0.000000 0.195661 0.335816 0.000000 0.094944 0.319519 0.000000 
0.000000 0.406248 0.000000 -0.079829 0.415933 0.000000 -0.167157 0.439514 0.000000 -0.266985 0.478713 0.000000 -0.386425 0.525899 0.000000 -0.525472 0.579747 0.000000 -0.692446 0.632173 0.000000 -0.877119 0.669436 0.000000 -1.085949 0.684033 0.000000 -1.298431 0.635914 0.000000 -1.490730 0.504840 0.000000 -1.631626 0.188111 0.000000 -1.594944 -0.311284 0.000000 -1.299397 -0.901588 0.000000 -0.774101 -1.579593 0.000000 -0.304999 -2.066266 0.000000 0.000000 -2.197411 0.000000 0.304999 -2.066266 0.000000 0.774101 -1.579593 0.000000 1.299397 -0.901588 0.000000 1.594944 -0.311284 0.000000 1.631626 0.188111 0.000000 1.490730 0.504840 0.000000 1.298431 0.635914 0.000000 1.085949 0.684033 0.000000 0.877119 0.669436 0.000000 0.692446 0.632173 0.000000 0.525472 0.579747 0.000000 0.386425 0.525899 0.000000 0.266985 0.478713 0.000000 0.167157 0.439514 0.000000 0.079829 0.415933 0.000000 
0.000000 0.472668 0.000000 -0.063160 0.486676 0.000000 -0.137003 0.522972 0.000000 -0.227454 0.582060 0.000000 -0.344865 0.653784 0.000000 -0.486716 0.738666 0.000000 -0.669259 0.819912 0.000000 -0.880954 0.889436 0.000000 -1.147599 0.929841 0.000000 -1.465438 0.892273 0.000000 -1.812067 0.752278 0.000000 -1.964521 0.357223 0.000000 -1.490817 -0.400645 0.000000 -0.727599 -1.401717 0.000000 -0.207742 -2.230619 0.000000 0.014640 -2.544617 0.000000 -0.000000 -2.567716 0.000000 -0.014640 -2.544617 0.000000 0.207742 -2.230619 0.000000 0.727599 -1.401717 0.000000 1.490817 -0.400645 0.000000 1.964521 0.357223 0.000000 1.812067 0.752278 0.000000 1.465438 0.892273 0.000000 1.147599 0.929841 0.000000 0.880954 0.889436 0.000000 0.669259 0.819912 0.000000 0.486716 0.738666 0.000000 0.344865 0.653784 0.000000 0.227454 0.582060 0.000000 0.137003 0.522972 0.000000 0.063160 0.486676 0.000000 
0.000000 0.532568 0.000000 -0.033164 0.552936 0.000000 -0.080631 0.603808 0.000000 -0.153778 0.686575 0.000000 -0.259639 0.785160 0.000000 -0.403867 0.904141 0.000000 -0.599746 1.026412 0.000000 -0.845237 1.147776 0.000000 -1.214183 1.268516 0.000000 -1.622753 1.300382 0.000000 -1.738899 1.003923 0.000000 -1.135451 -0.133139 0.000000 -0.102205 -1.548205 0.000000 0.615237 -2.184663 0.000000 0.570524 -2.321832 0.000000 0.316928 -2.274008 0.000000 -0.000000 -2.168132 0.000000 -0.316928 -2.274008 0.000000 -0.570524 -2.321832 0.000000 -0.615237 -2.184663 0.000000 0.102205 -1.548205 0.000000 1.135451 -0.133139 0.000000 1.738899 1.003923 0.000000 1.622753 1.300382 0.000000 1.214183 1.268516 0.000000 0.845237 1.147776 0.000000 0.599746 1.026412 0.000000 0.403867 0.904141 0.000000 0.259639 0.785160 0.000000 0.153778 0.686575 0.000000 0.080631 0.603808 0.000000 0.033164 0.552936 0.000000 
0.000000 0.538997 0.000000 0.000189 0.567308 0.000000 -0.020648 0.643586 0.000000 -0.076308 0.761068 0.000000 -0.173652 0.903873 0.000000 -0.312128 1.078773 0.000000 -0.528398 1.261282 0.000000 -0.823514 1.503872 0.000000 -1.192247 1.707357 0.000000 -1.214342 1.416990 0.000000 -0.509870 0.264977 0.000000 0.657567 -1.279471 0.000000 1.077820 -2.151333 0.000000 0.971904 -2.074447 0.000000 0.669093 -1.932310 0.000000 0.300337 -1.974093 0.000000 -0.000000 -1.933859 0.000000 -0.300337 -1.974093 0.000000 -0.669093 -1.932310 0.000000 -0.971904 -2.074447 0.000000 -1.077820 -2.151333 0.000000 -0.657567 -1.279471 0.000000 0.509870 0.264977 0.000000 1.214342 1.416990 0.000000 1.192247 1.707357 0.000000 0.823514 1.503872 0.000000 0.528398 1.261282 0.000000 0.312128 1.078773 0.000000 0.173652 0.903873 0.000000 0.076308 0.761068 0.000000 0.020648 0.643586 0.000000 -0.000189 0.567308 0.000000 
-0.000000 0.532189 0.000000 0.054366 0.573584 0.000000 0.081243 0.680306 0.000000 0.058919 0.839579 0.000000 -0.006542 1.020980 0.000000 -0.143741 1.258886 0.000000 -0.360752 1.537798 0.000000 -0.637828 1.811626 0.000000 -0.728708 1.659344 0.000000 -0.251872 0.618004 0.000000 0.796411 -0.867987 0.000000 1.476915 -1.720829 0.000000 1.510281 -1.862542 0.000000 1.451842 -1.775935 0.000000 1.235562 -1.650265 0.000000 0.680175 -1.604915 0.000000 -0.000000 -1.567458 0.000000 -0.680175 -1.604915 0.000000 -1.235562 -1.650265 0.000000 -1.451842 -1.775935 0.000000 -1.510281 -1.862542 0.000000 -1.476915 -1.720829 0.000000 -0.796411 -0.867987 0.000000 0.251872 0.618004 0.000000 0.728708 1.659344 0.000000 0.637828 1.811626 0.000000 0.360752 1.537798 0.000000 0.143741 1.258886 0.000000 0.006542 1.020980 0.000000 -0.058919 0.839579 0.000000 -0.081243 0.680306 0.000000 -0.054366 0.573584 0.000000 
-0.000000 0.430265 0.000000 0.112440 0.486064 0.000000 0.188149 0.639032 0.000000 0.193745 0.848853 0.000000 0.140527 1.106533 0.000000 0.001028 1.432984 0.000000 -0.199838 1.755369 0.000000 -0.167285 1.871828 0.000000 -0.143769 1.321402 0.000000 0.721951 -0.108129 0.000000 1.468249 -1.463811 0.000000 1.474939 -1.993341 0.000000 1.594698 -2.126259 0.000000 1.524732 -1.799728 0.000000 1.270996 -1.160644 0.000000 0.737611 -0.738531 0.000000 0.000000 -0.573509 0.000000 -0.737611 -0.738531 0.000000 -1.270996 -1.160644 0.000000 -1.524732 -1.799728 0.000000 -1.594698 -2.126259 0.000000 -1.474939 -1.993341 0.000000 -1.468249 -1.463811 0.000000 -0.721951 -0.108129 0.000000 0.143769 1.321402 0.000000 0.167285 1.871828 0.000000 0.199838 1.755369 0.000000 -0.001028 1.432984 0.000000 -0.140527 1.106533 0.000000 -0.193745 0.848853 0.000000 -0.188149 0.639032 0.000000 -0.112440 0.486064 0.000000 
-0.000000 0.307309 0.000000 0.183394 0.385435 0.000000 0.328996 0.599001 0.000000 0.400826 0.887200 0.000000 0.421361 1.213697 0.000000 0.350059 1.599252 0.000000 0.420161 1.706111 0.000000 0.500705 1.755556 0.000000 0.374976 0.770109 0.000000 1.493160 -0.994014 0.000000 1.762391 -1.620975 0.000000 1.329901 -1.847278 0.000000 1.117693 -1.912336 0.000000 0.703808 -1.452233 0.000000 0.525404 -0.863144 0.000000 0.298624 -0.333919 0.000000 -0.000000 -0.092236 0.000000 -0.298624 -0.333919 0.000000 -0.525404 -0.863144 0.000000 -0.703808 -1.452233 0.000000 -1.117693 -1.912336 0.000000 -1.329901 -1.847278 0.000000 -1.762391 -1.620975 0.000000 -1.493160 -0.994014 0.000000 -0.374976 0.770109 0.000000 -0.500705 1.755556 0.000000 -0.420161 1.706111 0.000000 -0.350059 1.599252 0.000000 -0.421361 1.213697 0.000000 -0.400826 0.887200 0.000000 -0.328996 0.599001 0.000000 -0.183394 0.385435 0.000000 
0.000000 0.063476 0.000000 0.237871 0.157068 0.000000 0.456308 0.421601 0.000000 0.612703 0.756487 0.000000 0.722121 1.157299 0.000000 0.635192 1.434184 0.000000 1.009367 1.604724 0.000000 0.507800 1.917014 0.000000 0.960954 0.328947 0.000000 1.754104 -1.495544 0.000000 1.226198 -1.300552 0.000000 0.734253 -1.348643 0.000000 0.276337 -1.500167 0.000000 -0.046003 -1.207440 0.000000 -0.120513 -0.755459 0.000000 -0.093295 -0.213126 0.000000 0.000000 0.023738 0.000000 0.093295 -0.213126 0.000000 0.120513 -0.755459 0.000000 0.046003 -1.207440 0.000000 -0.276337 -1.500167 0.000000 -0.734253 -1.348643 0.000000 -1.226198 -1.300552 0.000000 -1.754104 -1.495544 0.000000 -0.960954 0.328947 0.000000 -0.507800 1.917014 0.000000 -1.009367 1.604724 0.000000 -0.635192 1.434184 0.000000 -0.722121 1.157299 0.000000 -0.612703 0.756487 0.000000 -0.456308 0.421601 0.000000 -0.237871 0.157068 0.000000 
-0.000000 -0.168433 0.000000 0.245391 -0.070873 0.000000 0.493805 0.224169 0.000000 0.741649 0.621388 0.000000 0.905623 1.191208 0.000000 1.089744 1.312005 0.000000 1.047016 1.833503 0.000000 0.450462 1.803969 0.000000 1.662077 -0.476196 0.000000 1.674270 -1.259257 0.000000 0.747835 -0.601124 0.000000 0.433109 -0.897417 0.000000 0.015425 -1.132079 0.000000 -0.140155 -1.055383 0.000000 -0.231563 -0.815852 0.000000 -0.164384 -0.454432 0.000000 0.000000 -0.278826 0.000000 0.164384 -0.454432 0.000000 0.231563 -0.815852 0.000000 0.140155 -1.055383 0.000000 -0.015425 -1.132079 0.000000 -0.433109 -0.897417 0.000000 -0.747835 -0.601124 0.000000 -1.674270 -1.259257 0.000000 -1.662077 -0.476196 0.000000 -0.450462 1.803969 0.000000 -1.047016 1.833503 0.000000 -1.089744 1.312005 0.000000 -0.905623 1.191208 0.000000 -0.741649 0.621388 0.000000 -0.493805 0.224169 0.000000 -0.245391 -0.070873 0.000000 
0.000000 -0.427305 0.000000 0.187945 -0.336736 0.000000 0.424826 -0.074658 0.000000 0.795197 0.344669 0.000000 1.163318 0.809204 0.000000 1.420777 1.292791 0.000000 0.715980 2.244005 0.000000 1.076064 1.301953 0.000000 1.982398 -0.894861 0.000000 1.371962 -0.581302 0.000000 0.818653 -0.059391 0.000000 0.691035 -0.616234 0.000000 0.374132 -0.926903 0.000000 0.197062 -0.960451 0.000000 0.024296 -0.731230 0.000000 -0.032797 -0.444689 0.000000 0.000000 -0.305030 0.000000 0.032797 -0.444689 0.000000 -0.024296 -0.731230 0.000000 -0.197062 -0.960451 0.000000 -0.374132 -0.926903 0.000000 -0.691035 -0.616234 0.000000 -0.818653 -0.059391 0.000000 -1.371962 -0.581302 0.000000 -1.982398 -0.894861 0.000000 -1.076064 1.301953 0.000000 -0.715980 2.244005 0.000000 -1.420777 1.292791 0.000000 -1.163318 0.809204 0.000000 -0.795197 0.344669 0.000000 -0.424826 -0.074658 0.000000 -0.187945 -0.336736 0.000000 
0.000000 -0.544324 0.000000 0.045041 -0.495698 0.000000 0.185682 -0.383082 0.000000 0.434389 -0.117105 0.000000 0.692912 0.565628 0.000000 0.613742 1.759343 0.000000 0.529412 2.178216 0.000000 1.736207 0.537551 0.000000 1.829042 -0.772094 0.000000 1.151012 -0.095512 0.000000 1.131285 0.079803 0.000000 1.024947 -0.452896 0.000000 0.744947 -0.638106 0.000000 0.439849 -0.705547 0.000000 0.188461 -0.585994 0.000000 0.048220 -0.430136 0.000000 0.000000 -0.344419 0.000000 -0.048220 -0.430136 0.000000 -0.188461 -0.585994 0.000000 -0.439849 -0.705547 0.000000 -0.744947 -0.638106 0.000000 -1.024947 -0.452896 0.000000 -1.131285 0.079803 0.000000 -1.151012 -0.095512 0.000000 -1.829042 -0.772094 0.000000 -1.736207 0.537551 0.000000 -0.529412 2.178216 0.000000 -0.613742 1.759343 0.000000 -0.692912 0.565628 0.000000 -0.434389 -0.117105 0.000000 -0.185682 -0.383082 0.000000 -0.045041 -0.495698 0.000000 
0.000000 -0.517386 0.000000 -0.272162 -0.522418 0.000000 -0.495698 -0.464007 0.000000 -0.655244 -0.162562 0.000000 -0.612803 0.629852 0.000000 -0.089616 1.456291 0.000000 1.146540 1.121540 0.000000 2.088600 0.002323 0.000000 1.684091 -0.309666 0.000000 1.316506 0.116455 0.000000 1.588579 0.066675 0.000000 1.396309 -0.229896 0.000000 1.135683 -0.341805 0.000000 0.758203 -0.403965 0.000000 0.430136 -0.339601 0.000000 0.172209 -0.256228 0.000000 0.000000 -0.208590 0.000000 -0.172209 -0.256228 0.000000 -0.430136 -0.339601 0.000000 -0.758203 -0.403965 0.000000 -1.135683 -0.341805 0.000000 -1.396309 -0.229896 0.000000 -1.588579 0.066675 0.000000 -1.316506 0.116455 0.000000 -1.684091 -0.309666 0.000000 -2.088600 0.002323 0.000000 -1.146540 1.121540 0.000000 0.089616 1.456291 0.000000 0.612803 0.629852 0.000000 0.655244 -0.162562 0.000000 0.495698 -0.464007 0.000000 0.272162 -0.522418 0.000000 
-0.000000 0.000000 0.000000 -0.517386 -0.000000 0.000000 -1.044836 -0.000000 0.000000 -1.445399 -0.000000 0.000000 -1.369960 -0.000000 0.000000 -0.185695 0.000000 0.000000 1.542622 0.000000 0.000000 2.057385 0.000000 0.000000 1.547269 0.000000 0.000000 1.438053 -0.000000 0.000000 1.780179 -0.000000 0.000000 1.571402 -0.000000 0.000000 1.320386 -0.000000 0.000000 0.887792 -0.000000 0.000000 0.512457 0.000000 0.000000 0.208590 -0.000000 0.000000 0.000000 0.000000 0.000000 -0.208590 -0.000000 0.000000 -0.512457 -0.000000 0.000000 -0.887792 0.000000 0.000000 -1.320386 0.000000 0.000000 -1.571402 0.000000 0.000000 -1.780179 0.000000 0.000000 -1.438053 0.000000 0.000000 -1.547269 -0.000000 0.000000 -2.057385 -0.000000 0.000000 -1.542622 -0.000000 0.000000 0.185695 0.000000 0.000000 1.369960 0.000000 0.000000 1.445399 -0.000000 0.000000 1.044836 0.000000 0.000000 0.517386 0.000000 0.000000 
-0.000000 0.517386 0.000000 -0.272162 0.522418 0.000000 -0.495698 0.464007 0.000000 -0.655244 0.162562 0.000000 -0.612803 -0.629852 0.000000 -0.089616 -1.456291 0.000000 1.146540 -1.121540 0.000000 2.088600 -0.002323 0.000000 1.684091 0.309666 0.000000 1.316506 -0.116455 0.000000 1.588579 -0.066675 0.000000 1.396309 0.229896 0.000000 1.135683 0.341805 0.000000 0.758203 0.403965 0.000000 0.430136 0.339601 0.000000 0.172209 0.256228 0.000000 0.000000 0.208590 0.000000 -0.172209 0.256228 0.000000 -0.430136 0.339601 0.000000 -0.758203 0.403965 0.000000 -1.135683 0.341805 0.000000 -1.396309 0.229896 0.000000 -1.588579 -0.066675 0.000000 -1.316506 -0.116455 0.000000 -1.684091 0.309666 0.000000 -2.088600 -0.002323 0.000000 -1.146540 -1.121540 0.000000 0.089616 -1.456291 0.000000 0.612803 -0.629852 0.000000 0.655244 0.162562 0.000000 0.495698 0.464007 0.000000 0.272162 0.522418 0.000000 
0.000000 0.544324 0.000000 0.045041 0.495698 0.000000 0.185682 0.383082 0.000000 0.434389 0.117105 0.000000 0.692912 -0.565628 0.000000 0.613742 -1.759343 0.000000 0.529412 -2.178216 0.000000 1.736207 -0.537551 0.000000 1.829042 0.772094 0.000000 1.151012 0.095512 0.000000 1.131285 -0.079803 0.000000 1.024947 0.452896 0.000000 0.744947 0.638106 0.000000 0.439849 0.705547 0.000000 0.188461 0.585994 0.000000 0.048220 0.430136 0.000000 0.000000 0.344419 0.000000 -0.048220 0.430136 0.000000 -0.188461 0.585994 0.000000 -0.439849 0.705547 0.000000 -0.744947 0.638106 0.000000 -1.024947 0.452896 0.000000 -1.131285 -0.079803 0.000000 -1.151012 0.095512 0.000000 -1.829042 0.772094 0.000000 -1.736207 -0.537551 0.000000 -0.529412 -2.178216 0.000000 -0.613742 -1.759343 0.000000 -0.692912 -0.565628 0.000000 -0.434389 0.117105 0.000000 -0.185682 0.383082 0.000000 -0.045041 0.495698 0.000000 
-0.000000 0.427305 0.000000 0.187945 0.336736 0.000000 0.424826 0.074658 0.000000 0.795197 -0.344669 0.000000 1.163318 -0.809204 0.000000 1.420777 -1.292791 0.000000 0.715980 -2.244005 0.000000 1.076064 -1.301953 0.000000 1.982398 0.894861 0.000000 1.371962 0.581302 0.000000 0.818653 0.059391 0.000000 0.691035 0.616234 0.000000 0.374132 0.926903 0.000000 0.197062 0.960451 0.000000 0.024296 0.731230 0.000000 -0.032797 0.444689 0.000000 0.000000 0.305030 0.000000 0.032797 0.444689 0.000000 -0.024296 0.731230 0.000000 -0.197062 0.960451 0.000000 -0.374132 0.926903 0.000000 -0.691035 0.616234 0.000000 -0.818653 0.059391 0.000000 -1.371962 0.581302 0.000000 -1.982398 0.894861 0.000000 -1.076064 -1.301953 0.000000 -0.715980 -2.244005 0.000000 -1.420777 -1.292791 0.000000 -1.163318 -0.809204 0.000000 -0.795197 -0.344669 0.000000 -0.424826 0.074658 0.000000 -0.187945 0.336736 0.000000 
0.000000 0.168433 0.000000 0.245391 0.070873 0.000000 0.493805 -0.224169 0.000000 0.741649 -0.621388 0.000000 0.905623 -1.191208 0.000000 1.089744 -1.312005 0.000000 1.047016 -1.833503 0.000000 0.450462 -1.803969 0.000000 1.662077 0.476196 0.000000 1.674270 1.259257 0.000000 0.747835 0.601124 0.000000 0.433109 0.897417 0.000000 0.015425 1.132079 0.000000 -0.140155 1.055383 0.000000 -0.231563 0.815852 0.000000 -0.164384 0.454432 0.000000 0.000000 0.278826 0.000000 0.164384 0.454432 0.000000 0.231563 0.815852 0.000000 0.140155 1.055383 0.000000 -0.015425 1.132079 0.000000 -0.433109 0.897417 0.000000 -0.747835 0.601124 0.000000 -1.674270 1.259257 0.000000 -1.662077 0.476196 0.000000 -0.450462 -1.803969 0.000000 -1.047016 -1.833503 0.000000 -1.089744 -1.312005 0.000000 -0.905623 -1.191208 0.000000 -0.741649 -0.621388 0.000000 -0.493805 -0.224169 0.000000 -0.245391 0.070873 0.000000 
-0.000000 -0.063476 0.000000 0.237871 -0.157068 0.000000 0.456308 -0.421601 0.000000 0.612703 -0.756487 0.000000 0.722121 -1.157299 0.000000 0.635192 -1.434184 0.000000 1.009367 -1.604724 0.000000 0.507800 -1.917014 0.000000 0.960954 -0.328947 0.000000 1.754104 1.495544 0.000000 1.226198 1.300552 0.000000 0.734253 1.348643 0.000000 0.276337 1.500167 0.000000 -0.046003 1.207440 0.000000 -0.120513 0.755459 0.000000 -0.093295 0.213126 0.000000 0.000000 -0.023738 0.000000 0.093295 0.213126 0.000000 0.120513 0.755459 0.000000 0.046003 1.207440 0.000000 -0.276337 1.500167 0.000000 -0.734253 1.348643 0.000000 -1.226198 1.300552 0.000000 -1.754104 1.495544 0.000000 -0.960954 -0.328947 0.000000 -0.507800 -1.917014 0.000000 -1.009367 -1.604724 0.000000 -0.635192 -1.434184 0.000000 -0.722121 -1.157299 0.000000 -0.612703 -0.756487 0.000000 -0.456308 -0.421601 0.000000 -0.237871 -0.157068 0.000000 
0.000000 -0.307309 0.000000 0.183394 -0.385435 0.000000 0.328996 -0.599001 0.000000 0.400826 -0.887200 0.000000 0.421361 -1.213697 0.000000 0.350059 -1.599252 0.000000 0.420161 -1.706111 0.000000 0.500705 -1.755556 0.000000 0.374976 -0.770109 0.000000 1.493160 0.994014 0.000000 1.762391 1.620975 0.000000 1.329901 1.847278 0.000000 1.117693 1.912336 0.000000 0.703808 1.452233 0.000000 0.525404 0.863144 0.000000 0.298624 0.333919 0.000000 0.000000 0.092236 0.000000 -0.298624 0.333919 0.000000 -0.525404 0.863144 0.000000 -0.703808 1.452233 0.000000 -1.117693 1.912336 0.000000 -1.329901 1.847278 0.000000 -1.762391 1.620975 0.000000 -1.493160 0.994014 0.000000 -0.374976 -0.770109 0.000000 -0.500705 -1.755556 0.000000 -0.420161 -1.706111 0.000000 -0.350059 -1.599252 0.000000 -0.421361 -1.213697 0.000000 -0.400826 -0.887200 0.000000 -0.328996 -0.599001 0.000000 -0.183394 -0.385435 0.000000 
-0.000000 -0.430265 0.000000 0.112440 -0.486064 0.000000 0.188149 -0.639032 0.000000 0.193745 -0.848853 0.000000 0.140527 -1.106533 0.000000 0.001028 -1.432984 0.000000 -0.199838 -1.755369 0.000000 -0.167285 -1.871828 0.000000 -0.143769 -1.321402 0.000000 0.721951 0.108129 0.000000 1.468249 1.463811 0.000000 1.474939 1.993341 0.000000 1.594698 2.126259 0.000000 1.524732 1.799728 0.000000 1.270996 1.160644 0.000000 0.737611 0.738531 0.000000 0.000000 0.573509 0.000000 -0.737611 0.738531 0.000000 -1.270996 1.160644 0.000000 -1.524732 1.799728 0.000000 -1.594698 2.126259 0.000000 -1.474939 1.993341 0.000000 -1.468249 1.463811 0.000000 -0.721951 0.108129 0.000000 0.143769 -1.321402 0.000000 0.167285 -1.871828 0.000000 0.199838 -1.755369 0.000000 -0.001028 -1.432984 0.000000 -0.140527 -1.106533 0.000000 -0.193745 -0.848853 0.000000 -0.188149 -0.639032 0.000000 -0.112440 -0.486064 0.000000 
0.000000 -0.532189 0.000000 0.054366 -0.573584 0.000000 0.081243 -0.680306 0.000000 0.058919 -0.839579 0.000000 -0.006542 -1.020980 0.000000 -0.143741 -1.258886 0.000000 -0.360752 -1.537798 0.000000 -0.637828 -1.811626 0.000000 -0.728708 -1.659344 0.000000 -0.251872 -0.618004 0.000000 0.796411 0.867987 0.000000 1.476915 1.720829 0.000000 1.510281 1.862542 0.000000 1.451842 1.775935 0.000000 1.235562 1.650265 0.000000 0.680175 1.604915 0.000000 -0.000000 1.567458 0.000000 -0.680175 1.604915 0.000000 -1.235562 1.650265 0.000000 -1.451842 1.775935 0.000000 -1.510281 1.862542 0.000000 -1.476915 1.720829 0.000000 -0.796411 0.867987 0.000000 0.251872 -0.618004 0.000000 0.728708 -1.659344 0.000000 0.637828 -1.811626 0.000000 0.360752 -1.537798 0.000000 0.143741 -1.258886 0.000000 0.006542 -1.020980 0.000000 -0.058919 -0.839579 0.000000 -0.081243 -0.680306 0.000000 -0.054366 -0.573584 0.000000 
-0.000000 -0.538997 0.000000 0.000189 -0.567308 0.000000 -0.020648 -0.643586 0.000000 -0.076308 -0.761068 0.000000 -0.173652 -0.903873 0.000000 -0.312128 -1.078773 0.000000 -0.528398 -1.261282 0.000000 -0.823514 -1.503872 0.000000 -1.192247 -1.707357 0.000000 -1.214342 -1.416990 0.000000 -0.509870 -0.264977 0.000000 0.657567 1.279471 0.000000 1.077820 2.151333 0.000000 0.971904 2.074447 0.000000 0.669093 1.932310 0.000000 0.300337 1.974093 0.000000 -0.000000 1.933859 0.000000 -0.300337 1.974093 0.000000 -0.669093 1.932310 0.000000 -0.971904 2.074447 0.000000 -1.077820 2.151333 0.000000 -0.657567 1.279471 0.000000 0.509870 -0.264977 0.000000 1.214342 -1.416990 0.000000 1.192247 -1.707357 0.000000 0.823514 -1.503872 0.000000 0.528398 -1.261282 0.000000 0.312128 -1.078773 0.000000 0.173652 -0.903873 0.000000 0.076308 -0.761068 0.000000 0.020648 -0.643586 0.000000 -0.000189 -0.567308 0.000000 
-0.000000 -0.532568 0.000000 -0.033164 -0.552936 0.000000 -0.080631 -0.603808 0.000000 -0.153778 -0.686575 0.000000 -0.259639 -0.785160 0.000000 -0.403867 -0.904141 0.000000 -0.599746 -1.026412 0.000000 -0.845237 -1.147776 0.000000 -1.214183 -1.268516 0.000000 -1.622753 -1.300382 0.000000 -1.738899 -1.003923 0.000000 -1.135451 0.133139 0.000000 -0.102205 1.548205 0.000000 0.615237 2.184663 0.000000 0.570524 2.321832 0.000000 0.316928 2.274008 0.000000 0.000000 2.168132 0.000000 -0.316928 2.274008 0.000000 -0.570524 2.321832 0.000000 -0.615237 2.184663 0.000000 0.102205 1.548205 0.000000 1.135451 0.133139 0.000000 1.738899 -1.003923 0.000000 1.622753 -1.300382 0.000000 1.214183 -1.268516 0.000000 0.845237 -1.147776 0.000000 0.599746 -1.026412 0.000000 0.403867 -0.904141 0.000000 0.259639 -0.785160 0.000000 0.153778 -0.686575 0.000000 0.080631 -0.603808 0.000000 0.033164 -0.552936 0.000000 
-0.000000 -0.472668 0.000000 -0.063160 -0.486676 0.000000 -0.137003 -0.522972 0.000000 -0.227454 -0.582060 0.000000 -0.344865 -0.653784 0.000000 -0.486716 -0.738666 0.000000 -0.669259 -0.819912 0.000000 -0.880954 -0.889436 0.000000 -1.147599 -0.929841 0.000000 -1.465438 -0.892273 0.000000 -1.812067 -0.752278 0.000000 -1.964521 -0.357223 0.000000 -1.490817 0.400645 0.000000 -0.727599 1.401717 0.000000 -0.207742 2.230619 0.000000 0.014640 2.544617 0.000000 0.000000 2.567716 0.000000 -0.014640 2.544617 0.000000 0.207742 2.230619 0.000000 0.727599 1.401717 0.000000 1.490817 0.400645 0.000000 1.964521 -0.357223 0.000000 1.812067 -0.752278 0.000000 1.465438 -0.892273 0.000000 1.147599 -0.929841 0.000000 0.880954 -0.889436 0.000000 0.669259 -0.819912 0.000000 0.486716 -0.738666 0.000000 0.344865 -0.653784 0.000000 0.227454 -0.582060 0.000000 0.137003 -0.522972 0.000000 0.063160 -0.486676 0.000000 
-0.000000 -0.406248 0.000000 -0.079829 -0.415933 0.000000 -0.167157 -0.439514 0.000000 -0.266985 -0.478713 0.000000 -0.386425 -0.525899 0.000000 -0.525472 -0.579747 0.000000 -0.692446 -0.632173 0.000000 -0.877119 -0.669436 0.000000 -1.085949 -0.684033 0.000000 -1.298431 -0.635914 0.000000 -1.490730 -0.504840 0.000000 -1.631626 -0.188111 0.000000 -1.594944 0.311284 0.000000 -1.299397 0.901588 0.000000 -0.774101 1.579593 0.000000 -0.304999 2.066266 0.000000 0.000000 2.197411 0.000000 0.304999 2.066266 0.000000 0.774101 1.579593 0.000000 1.299397 0.901588 0.000000 1.594944 0.311284 0.000000 1.631626 -0.188111 0.000000 1.490730 -0.504840 0.000000 1.298431 -0.635914 0.000000 1.085949 -0.684033 0.000000 0.877119 -0.669436 0.000000 0.692446 -0.632173 0.000000 0.525472 -0.579747 0.000000 0.386425 -0.525899 0.000000 0.266985 -0.478713 0.000000 0.167157 -0.439514 0.000000 0.079829 -0.415933 0.000000 
-0.000000 -0.313010 0.000000 -0.094944 -0.319519 0.000000 -0.195661 -0.335816 0.000000 -0.304723 -0.362792 0.000000 -0.428933 -0.395297 0.000000 -0.566142 -0.432645 0.000000 -0.723056 -0.468265 0.000000 -0.891625 -0.495933 0.000000 -1.070357 -0.508530 0.000000 -1.244626 -0.487493 0.000000 -1.385773 -0.419082 0.000000 -1.465403 -0.253008 0.000000 -1.386348 0.068415 0.000000 -1.158408 0.580874 0.000000 -0.797963 1.236221 0.000000 -0.355512 1.770517 0.000000 0.000000 1.957717 0.000000 0.355512 1.770517 0.000000 0.797963 1.236221 0.000000 1.158408 0.580874 0.000000 1.386348 0.068415 0.000000 1.465403 -0.253008 0.000000 1.385773 -0.419082 0.000000 1.244626 -0.487493 0.000000 1.070357 -0.508530 0.000000 0.891625 -0.495933 0.000000 0.723056 -0.468265 0.000000 0.566142 -0.432645 0.000000 0.428933 -0.395297 0.000000 0.304723 -0.362792 0.000000 0.195661 -0.335816 0.000000 0.094944 -0.319519 0.000000 
-0.000000 -0.216360 0.000000 -0.102134 -0.220272 0.000000 -0.208868 -0.229735 0.000000 -0.322589 -0.245441 0.000000 -0.448460 -0.264479 0.000000 -0.585218 -0.285623 0.000000 -0.737591 -0.306691 0.000000 -0.899232 -0.322135 0.000000 -1.070069 -0.331031 0.000000 -1.237632 -0.320498 0.000000 -1.387349 -0.284063 0.000000 -1.497061 -0.187536 0.000000 -1.517749 0.004289 0.000000 -1.393436 0.313202 0.000000 -1.069400 0.776697 0.000000 -0.550425 1.268303 0.000000 0.000000 1.486388 0.000000 0.550425 1.268303 0.000000 1.069400 0.776697 0.000000 1.393436 0.313202 0.000000 1.517749 0.004289 0.000000 1.497061 -0.187536 0.000000 1.387349 -0.284063 0.000000 1.237632 -0.320498 0.000000 1.070069 -0.331031 0.000000 0.899232 -0.322135 0.000000 0.737591 -0.306691 0.000000 0.585218 -0.285623 0.000000 0.448460 -0.264479 0.000000 0.322589 -0.245441 0.000000 0.208868 -0.229735 0.000000 0.102134 -0.220272 0.000000 
-0.000000 -0.108741 0.000000 -0.108180 -0.110651 0.000000 -0.220272 -0.115361 0.000000 -0.337915 -0.123201 0.000000 -0.465713 -0.132669 0.000000 -0.602394 -0.143514 0.000000 -0.751336 -0.154251 0.000000 -0.909085 -0.163454 0.000000 -1.073471 -0.170130 0.000000 -1.240116 -0.170214 0.000000 -1.393969 -0.159653 0.000000 -1.524179 -0.122608 0.000000 -1.581506 -0.035210 0.000000 -1.519891 0.132525 0.000000 -1.268303 0.393210 0.000000 -0.743194 0.701116 0.000000 -0.000000 0.856868 0.000000 0.743194 0.701116 0.000000 1.268303 0.393210 0.000000 1.519891 0.132525 0.000000 1.581506 -0.035210 0.000000 1.524179 -0.122608 0.000000 1.393969 -0.159653 0.000000 1.240116 -0.170214 0.000000 1.073471 -0.170130 0.000000 0.909085 -0.163454 0.000000 0.751336 -0.154251 0.000000 0.602394 -0.143514 0.000000 0.465713 -0.132669 0.000000 0.337915 -0.123201 0.000000 0.220272 -0.115361 0.000000 0.108180 -0.110651 0.000000 
