# vtk DataFile Version 2.0
Comment goes here
ASCII

DATASET STRUCTURED_POINTS
FIELD FieldData 1
TIME 1 1 double
0.28000000
DIMENSIONS    32   32   1

ORIGIN    0.000   0.000   0.000
SPACING   0.03125 0.03125   1.000

POINT_DATA   1024
VECTORS u double

-0.000000 -0.000000 0.000000 -0.126107 0.000000 0.000000 -0.255250 -0.000000 0.000000 -0.382530 0.000000 0.000000 -0.515780 -0.000000 0.000000 -0.642260 0.000000 0.000000 -0.770546 -0.000000 0.000000 -0.884060 0.000000 0.000000 -0.989242 -0.000000 0.000000 -1.073530 0.000000 0.000000 -1.141646 -0.000000 0.000000 -1.198629 0.000000 0.000000 -1.231719 -0.000000 0.000000 -1.243921 -0.000000 0.000000 -1.124127 -0.000000 0.000000 -0.785497 -0.000000 0.000000 -0.000000 0.000000 0.000000 0.785497 0.000000 0.000000 1.124127 0.000000 0.000000 1.243921 0.000000 0.000000 1.231719 0.000000 0.000000 1.198629 -0.000000 0.000000 1.141646 0.000000 0.000000 1.073530 0.000000 0.000000 0.989242 0.000000 0.000000 0.884060 0.000000 0.000000 0.770546 0.000000 0.000000 0.642260 0.000000 0.000000 0.515780 0.000000 0.000000 0.382530 0.000000 0.000000 0.255250 -0.000000 0.000000 0.126107 0.000000 0.000000 
-0.000000 0.126107 0.000000 -0.125934 0.127625 0.000000 -0.254994 0.128211 0.000000 -0.382761 0.130265 0.000000 -0.516351 0.129865 0.000000 -0.644192 0.127383 0.000000 -0.772548 0.120900 0.000000 -0.886834 0.109348 0.000000 -0.989306 0.094735 0.000000 -1.068683 0.076202 0.000000 -1.126518 0.062550 0.000000 -1.170026 0.045036 0.000000 -1.192930 0.022646 0.000000 -1.191355 -0.053796 0.000000 -1.063849 -0.229212 0.000000 -0.715418 -0.562063 0.000000 -0.000000 -0.785497 0.000000 0.715418 -0.562063 0.000000 1.063849 -0.229212 0.000000 1.191355 -0.053796 0.000000 1.192930 0.022646 0.000000 1.170026 0.045036 0.000000 1.126518 0.062550 0.000000 1.068683 0.076202 0.000000 0.989306 0.094735 0.000000 0.886834 0.109348 0.000000 0.772548 0.120900 0.000000 0.644192 0.127383 0.000000 0.516351 0.129865 0.000000 0.382761 0.130265 0.000000 0.254994 0.128211 0.000000 0.125934 0.127625 0.000000 
0.000000 0.251868 0.000000 -0.123975 0.254994 0.000000 -0.252626 0.256827 0.000000 -0.381079 0.261357 0.000000 -0.519347 0.261431 0.000000 -0.652721 0.256197 0.000000 -0.791277 0.242641 0.000000 -0.913828 0.216757 0.000000 -1.025033 0.181849 0.000000 -1.102522 0.137213 0.000000 -1.148549 0.101343 0.000000 -1.157602 0.066412 0.000000 -1.123398 0.021330 0.000000 -1.055369 -0.129081 0.000000 -0.878471 -0.475937 0.000000 -0.512602 -1.063849 0.000000 -0.000000 -1.430836 0.000000 0.512602 -1.063849 0.000000 0.878471 -0.475937 0.000000 1.055369 -0.129081 0.000000 1.123398 0.021330 0.000000 1.157602 0.066412 0.000000 1.148549 0.101343 0.000000 1.102522 0.137213 0.000000 1.025033 0.181849 0.000000 0.913828 0.216757 0.000000 0.791277 0.242641 0.000000 0.652721 0.256197 0.000000 0.519347 0.261431 0.000000 0.381079 0.261357 0.000000 0.252626 0.256827 0.000000 0.123975 0.254994 0.000000 
-0.000000 0.374057 0.000000 -0.121016 0.380252 0.000000 -0.248925 0.385315 0.000000 -0.379164 0.396985 0.000000 -0.524048 0.401507 0.000000 -0.667991 0.399314 0.000000 -0.820378 0.382006 0.000000 -0.958504 0.343103 0.000000 -1.078028 0.283429 0.000000 -1.149022 0.199718 0.000000 -1.159671 0.117629 0.000000 -1.103905 0.019886 0.000000 -0.988627 -0.079587 0.000000 -0.837708 -0.298724 0.000000 -0.598692 -0.771979 0.000000 -0.253839 -1.440534 0.000000 0.000000 -1.810701 0.000000 0.253839 -1.440534 0.000000 0.598692 -0.771979 0.000000 0.837708 -0.298724 0.000000 0.988627 -0.079587 0.000000 1.103905 0.019886 0.000000 1.159671 0.117629 0.000000 1.149022 0.199718 0.000000 1.078028 0.283429 0.000000 0.958504 0.343103 0.000000 0.820378 0.382006 0.000000 0.667991 0.399314 0.000000 0.524048 0.401507 0.000000 0.379164 0.396985 0.000000 0.248925 0.385315 0.000000 0.121016 0.380252 0.000000 
0.000000 0.493899 0.000000 -0.113078 0.503919 0.000000 -0.237117 0.514975 0.000000 -0.368096 0.536480 0.000000 -0.524021 0.550258 0.000000 -0.684950 0.552527 0.000000 -0.867353 0.533154 0.000000 -1.036878 0.474407 0.000000 -1.190827 0.372368 0.000000 -1.285363 0.218856 0.000000 -1.311164 0.056225 0.000000 -1.221018 -0.104633 0.000000 -0.995003 -0.244867 0.000000 -0.734528 -0.519016 0.000000 -0.365302 -1.059806 0.000000 -0.071870 -1.662541 0.000000 0.000000 -1.938515 0.000000 0.071870 -1.662541 0.000000 0.365302 -1.059806 0.000000 0.734528 -0.519016 0.000000 0.995003 -0.244867 0.000000 1.221018 -0.104633 0.000000 1.311164 0.056225 0.000000 1.285363 0.218856 0.000000 1.190827 0.372368 0.000000 1.036878 0.474407 0.000000 0.867353 0.533154 0.000000 0.684950 0.552527 0.000000 0.524021 0.550258 0.000000 0.368096 0.536480 0.000000 0.237117 0.514975 0.000000 0.113078 0.503919 0.000000 
-0.000000 0.600213 0.000000 -0.101326 0.617368 0.000000 -0.220196 0.640333 0.000000 -0.352454 0.683890 0.000000 -0.524589 0.718362 0.000000 -0.712642 0.742645 0.000000 -0.937546 0.733934 0.000000 -1.165473 0.666578 0.000000 -1.382765 0.531914 0.000000 -1.531994 0.320055 0.000000 -1.564048 0.053284 0.000000 -1.457849 -0.296275 0.000000 -1.220304 -0.566077 0.000000 -0.896206 -0.928425 0.000000 -0.354221 -1.434636 0.000000 -0.102370 -1.805836 0.000000 0.000000 -1.954441 0.000000 0.102370 -1.805836 0.000000 0.354221 -1.434636 0.000000 0.896206 -0.928425 0.000000 1.220304 -0.566077 0.000000 1.457849 -0.296275 0.000000 1.564048 0.053284 0.000000 1.531994 0.320055 0.000000 1.382765 0.531914 0.000000 1.165473 0.666578 0.000000 0.937546 0.733934 0.000000 0.712642 0.742645 0.000000 0.524589 0.718362 0.000000 0.352454 0.683890 0.000000 0.220196 0.640333 0.000000 0.101326 0.617368 0.000000 
0.000000 0.696551 0.000000 -0.076851 0.724115 0.000000 -0.179977 0.766104 0.000000 -0.308565 0.840873 0.000000 -0.497406 0.910446 0.000000 -0.717853 0.965484 0.000000 -1.006236 0.985985 0.000000 -1.316159 0.919626 0.000000 -1.653906 0.738889 0.000000 -1.965930 0.400139 0.000000 -2.187270 -0.017919 0.000000 -2.088905 -0.448376 0.000000 -1.672662 -0.806510 0.000000 -1.114282 -1.385099 0.000000 -0.457578 -1.853642 0.000000 -0.259840 -2.016762 0.000000 0.000000 -2.143255 0.000000 0.259840 -2.016762 0.000000 0.457578 -1.853642 0.000000 1.114282 -1.385099 0.000000 1.672662 -0.806510 0.000000 2.088905 -0.448376 0.000000 2.187270 -0.017919 0.000000 1.965930 0.400139 0.000000 1.653906 0.738889 0.000000 1.316159 0.919626 0.000000 1.006236 0.985985 0.000000 0.717853 0.965484 0.000000 0.497406 0.910446 0.000000 0.308565 0.840873 0.000000 0.179977 0.766104 0.000000 0.076851 0.724115 0.000000 
-0.000000 0.753915 0.000000 -0.041559 0.797345 0.000000 -0.124049 0.872048 0.000000 -0.242655 1.001319 0.000000 -0.451426 1.127650 0.000000 -0.705067 1.251475 0.000000 -1.072525 1.332240 0.000000 -1.585868 1.314248 0.000000 -2.221720 1.181685 0.000000 -2.551989 0.853418 0.000000 -2.346074 0.176259 0.000000 -1.806499 -0.810882 0.000000 -1.324600 -1.540700 0.000000 -0.854999 -2.143509 0.000000 -0.475097 -2.289079 0.000000 -0.309267 -2.263414 0.000000 -0.000000 -2.474121 0.000000 0.309267 -2.263414 0.000000 0.475097 -2.289079 0.000000 0.854999 -2.143509 0.000000 1.324600 -1.540700 0.000000 1.806499 -0.810882 0.000000 2.346074 0.176259 0.000000 2.551989 0.853418 0.000000 2.221720 1.181685 0.000000 1.585868 1.314248 0.000000 1.072525 1.332240 0.000000 0.705067 1.251475 0.000000 0.451426 1.127650 0.000000 0.242655 1.001319 0.000000 0.124049 0.872048 0.000000 0.041559 0.797345 0.000000 
-0.000000 0.779669 0.000000 0.018346 0.848164 0.000000 -0.017147 0.967200 0.000000 -0.110013 1.168250 0.000000 -0.322123 1.372858 0.000000 -0.621548 1.586583 0.000000 -1.144426 1.866786 0.000000 -1.795632 2.068821 0.000000 -2.144364 1.705010 0.000000 -1.654892 0.524494 0.000000 -1.000799 -0.763409 0.000000 -0.494326 -1.469850 0.000000 -0.253136 -1.758010 0.000000 -0.122722 -2.234603 0.000000 -0.207542 -2.399374 0.000000 -0.073830 -2.491859 0.000000 -0.000000 -2.761790 0.000000 0.073830 -2.491859 0.000000 0.207542 -2.399374 0.000000 0.122722 -2.234603 0.000000 0.253136 -1.758010 0.000000 0.494326 -1.469850 0.000000 1.000799 -0.763409 0.000000 1.654892 0.524494 0.000000 2.144364 1.705010 0.000000 1.795632 2.068821 0.000000 1.144426 1.866786 0.000000 0.621548 1.586583 0.000000 0.322123 1.372858 0.000000 0.110013 1.168250 0.000000 0.017147 0.967200 0.000000 -0.018346 0.848164 0.000000 
-0.000000 0.717224 0.000000 0.093977 0.814492 0.000000 0.114889 1.000406 0.000000 0.071976 1.306295 0.000000 -0.143578 1.639185 0.000000 -0.424666 2.073778 0.000000 -0.891270 2.506324 0.000000 -1.290651 2.314187 0.000000 -0.858170 1.040945 0.000000 0.050352 -0.290147 0.000000 0.390202 -0.984307 0.000000 0.624328 -1.558545 0.000000 1.013023 -1.912304 0.000000 1.232028 -2.189103 0.000000 0.983198 -2.337971 0.000000 0.675198 -2.470957 0.000000 -0.000000 -2.621781 0.000000 -0.675198 -2.470957 0.000000 -0.983198 -2.337971 0.000000 -1.232028 -2.189103 0.000000 -1.013023 -1.912304 0.000000 -0.624328 -1.558545 0.000000 -0.390202 -0.984307 0.000000 -0.050352 -0.290147 0.000000 0.858170 1.040945 0.000000 1.290651 2.314187 0.000000 0.891270 2.506324 0.000000 0.424666 2.073778 0.000000 0.143578 1.639185 0.000000 -0.071976 1.306295 0.000000 -0.114889 1.000406 0.000000 -0.093977 0.814492 0.000000 
-0.000000 0.591716 0.000000 0.187773 0.733275 0.000000 0.310923 0.989201 0.000000 0.364986 1.426717 0.000000 0.265781 1.869500 0.000000 0.144904 2.334275 0.000000 -0.097940 2.732771 0.000000 -0.326856 2.035721 0.000000 0.578733 0.364007 0.000000 1.060066 -0.723878 0.000000 1.465345 -1.337386 0.000000 1.979048 -2.092671 0.000000 2.201802 -2.365710 0.000000 2.115122 -2.204777 0.000000 1.678628 -1.842544 0.000000 0.987772 -1.508661 0.000000 -0.000000 -1.411394 0.000000 -0.987772 -1.508661 0.000000 -1.678628 -1.842544 0.000000 -2.115122 -2.204777 0.000000 -2.201802 -2.365710 0.000000 -1.979048 -2.092671 0.000000 -1.465345 -1.337386 0.000000 -1.060066 -0.723878 0.000000 -0.578733 0.364007 0.000000 0.326856 2.035721 0.000000 0.097940 2.732771 0.000000 -0.144904 2.334275 0.000000 -0.265781 1.869500 0.000000 -0.364986 1.426717 0.000000 -0.310923 0.989201 0.000000 -0.187773 0.733275 0.000000 
-0.000000 0.341678 0.000000 0.267282 0.503569 0.000000 0.489368 0.823193 0.000000 0.684328 1.351437 0.000000 0.681193 1.859266 0.000000 0.849801 2.437499 0.000000 0.031637 2.978085 0.000000 0.580107 1.637514 0.000000 1.723923 -0.345977 0.000000 1.869930 -1.176759 0.000000 2.212220 -1.903289 0.000000 2.023085 -2.295002 0.000000 1.559823 -2.048378 0.000000 1.087224 -1.665929 0.000000 0.696746 -1.210621 0.000000 0.363482 -0.792328 0.000000 -0.000000 -0.646236 0.000000 -0.363482 -0.792328 0.000000 -0.696746 -1.210621 0.000000 -1.087224 -1.665929 0.000000 -1.559823 -2.048378 0.000000 -2.023085 -2.295002 0.000000 -2.212220 -1.903289 0.000000 -1.869930 -1.176759 0.000000 -1.723923 -0.345977 0.000000 -0.580107 1.637514 0.000000 -0.031637 2.978085 0.000000 -0.849801 2.437499 0.000000 -0.681193 1.859266 0.000000 -0.684328 1.351437 0.000000 -0.489368 0.823193 0.000000 -0.267282 0.503569 0.000000 
-0.000000 0.057153 0.000000 0.288344 0.243907 0.000000 0.596856 0.572155 0.000000 0.883738 1.234893 0.000000 1.257846 1.704026 0.000000 1.277966 2.983831 0.000000 0.076165 3.002466 0.000000 1.825753 0.343435 0.000000 2.548563 -0.925816 0.000000 2.165488 -1.212176 0.000000 1.700715 -1.490541 0.000000 0.998605 -1.440273 0.000000 0.578840 -1.429850 0.000000 0.316417 -1.341701 0.000000 0.143359 -1.118801 0.000000 0.060285 -0.811915 0.000000 0.000000 -0.684430 0.000000 -0.060285 -0.811915 0.000000 -0.143359 -1.118801 0.000000 -0.316417 -1.341701 0.000000 -0.578840 -1.429850 0.000000 -0.998605 -1.440273 0.000000 -1.700715 -1.490541 0.000000 -2.165488 -1.212176 0.000000 -2.548563 -0.925816 0.000000 -1.825753 0.343435 0.000000 -0.076165 3.002466 0.000000 -1.277966 2.983831 0.000000 -1.257846 1.704026 0.000000 -0.883738 1.234893 0.000000 -0.596856 0.572155 0.000000 -0.288344 0.243907 0.000000 
0.000000 -0.235010 0.000000 0.231989 -0.093287 0.000000 0.594659 0.227799 0.000000 0.990105 0.690447 0.000000 1.796228 1.465039 0.000000 0.905442 3.619180 0.000000 1.439690 2.430298 0.000000 2.926340 -0.834884 0.000000 2.440226 -0.685712 0.000000 1.879150 -0.328911 0.000000 1.333347 -0.736407 0.000000 0.965608 -1.173127 0.000000 0.727403 -1.366190 0.000000 0.493393 -1.230448 0.000000 0.264948 -0.954489 0.000000 0.105982 -0.648970 0.000000 0.000000 -0.525666 0.000000 -0.105982 -0.648970 0.000000 -0.264948 -0.954489 0.000000 -0.493393 -1.230448 0.000000 -0.727403 -1.366190 0.000000 -0.965608 -1.173127 0.000000 -1.333347 -0.736407 0.000000 -1.879150 -0.328911 0.000000 -2.440226 -0.685712 0.000000 -2.926340 -0.834884 0.000000 -1.439690 2.430298 0.000000 -0.905442 3.619180 0.000000 -1.796228 1.465039 0.000000 -0.990105 0.690447 0.000000 -0.594659 0.227799 0.000000 -0.231989 -0.093287 0.000000 
0.000000 -0.406825 0.000000 0.079223 -0.350753 0.000000 0.276702 -0.185961 0.000000 0.669059 0.033324 0.000000 0.952289 1.788689 0.000000 0.559266 3.340369 0.000000 2.629075 0.981568 0.000000 2.732969 -0.657101 0.000000 2.065016 0.121373 0.000000 1.939689 -0.105297 0.000000 1.770734 -0.576998 0.000000 1.480713 -0.834330 0.000000 1.056211 -0.957635 0.000000 0.665420 -0.879245 0.000000 0.338607 -0.731390 0.000000 0.129526 -0.546968 0.000000 0.000000 -0.472466 0.000000 -0.129526 -0.546968 0.000000 -0.338607 -0.731390 0.000000 -0.665420 -0.879245 0.000000 -1.056211 -0.957635 0.000000 -1.480713 -0.834330 0.000000 -1.770734 -0.576998 0.000000 -1.939689 -0.105297 0.000000 -2.065016 0.121373 0.000000 -2.732969 -0.657101 0.000000 -2.629075 0.981568 0.000000 -0.559266 3.340369 0.000000 -0.952289 1.788689 0.000000 -0.669059 0.033324 0.000000 -0.276702 -0.185961 0.000000 -0.079223 -0.350753 0.000000 
0.000000 -0.393456 0.000000 -0.203412 -0.369989 0.000000 -0.350753 -0.362036 0.000000 -0.389374 0.014860 0.000000 -0.317429 1.574831 0.000000 1.399315 1.942394 0.000000 3.022940 0.256595 0.000000 2.380883 -0.270824 0.000000 2.365839 0.107568 0.000000 2.502256 -0.034629 0.000000 2.260542 -0.277430 0.000000 1.925258 -0.458605 0.000000 1.426213 -0.550897 0.000000 0.967623 -0.512844 0.000000 0.546968 -0.418595 0.000000 0.236233 -0.310362 0.000000 0.000000 -0.266614 0.000000 -0.236233 -0.310362 0.000000 -0.546968 -0.418595 0.000000 -0.967623 -0.512844 0.000000 -1.426213 -0.550897 0.000000 -1.925258 -0.458605 0.000000 -2.260542 -0.277430 0.000000 -2.502256 -0.034629 0.000000 -2.365839 0.107568 0.000000 -2.380883 -0.270824 0.000000 -3.022940 0.256595 0.000000 -1.399315 1.942394 0.000000 0.317429 1.574831 0.000000 0.389374 0.014860 0.000000 0.350753 -0.362036 0.000000 0.203412 -0.369989 0.000000 
0.000000 0.000000 0.000000 -0.393456 -0.000000 0.000000 -0.739979 -0.000000 0.000000 -1.117529 -0.000000 0.000000 -0.710259 0.000000 0.000000 2.032134 0.000000 0.000000 3.174528 0.000000 0.000000 2.545323 0.000000 0.000000 2.632880 -0.000000 0.000000 2.760458 -0.000000 0.000000 2.563621 -0.000000 0.000000 2.205598 -0.000000 0.000000 1.646412 0.000000 0.000000 1.103805 -0.000000 0.000000 0.620725 0.000000 0.000000 0.266614 -0.000000 0.000000 0.000000 0.000000 0.000000 -0.266614 -0.000000 0.000000 -0.620725 0.000000 0.000000 -1.103805 -0.000000 0.000000 -1.646412 0.000000 0.000000 -2.205598 -0.000000 0.000000 -2.563621 -0.000000 0.000000 -2.760458 0.000000 0.000000 -2.632880 0.000000 0.000000 -2.545323 0.000000 0.000000 -3.174528 -0.000000 0.000000 -2.032134 -0.000000 0.000000 0.710259 -0.000000 0.000000 1.117529 -0.000000 0.000000 0.739979 0.000000 0.000000 0.393456 0.000000 0.000000 
-0.000000 0.393456 0.000000 -0.203412 0.369989 0.000000 -0.350753 0.362036 0.000000 -0.389374 -0.014860 0.000000 -0.317429 -1.574831 0.000000 1.399315 -1.942394 0.000000 3.022940 -0.256595 0.000000 2.380883 0.270824 0.000000 2.365839 -0.107568 0.000000 2.502256 0.034629 0.000000 2.260542 0.277430 0.000000 1.925258 0.458605 0.000000 1.426213 0.550897 0.000000 0.967623 0.512844 0.000000 0.546968 0.418595 0.000000 0.236233 0.310362 0.000000 0.000000 0.266614 0.000000 -0.236233 0.310362 0.000000 -0.546968 0.418595 0.000000 -0.967623 0.512844 0.000000 -1.426213 0.550897 0.000000 -1.925258 0.458605 0.000000 -2.260542 0.277430 0.000000 -2.502256 0.034629 0.000000 -2.365839 -0.107568 0.000000 -2.380883 0.270824 0.000000 -3.022940 -0.256595 0.000000 -1.399315 -1.942394 0.000000 0.317429 -1.574831 0.000000 0.389374 -0.014860 0.000000 0.350753 0.362036 0.000000 0.203412 0.369989 0.000000 
0.000000 0.406825 0.000000 0.079223 0.350753 0.000000 0.276702 0.185961 0.000000 0.669059 -0.033324 0.000000 0.952289 -1.788689 0.000000 0.559266 -3.340369 0.000000 2.629075 -0.981568 0.000000 2.732969 0.657101 0.000000 2.065016 -0.121373 0.000000 1.939689 0.105297 0.000000 1.770734 0.576998 0.000000 1.480713 0.834330 0.000000 1.056211 0.957635 0.000000 0.665420 0.879245 0.000000 0.338607 0.731390 0.000000 0.129526 0.546968 0.000000 0.000000 0.472466 0.000000 -0.129526 0.546968 0.000000 -0.338607 0.731390 0.000000 -0.665420 0.879245 0.000000 -1.056211 0.957635 0.000000 -1.480713 0.834330 0.000000 -1.770734 0.576998 0.000000 -1.939689 0.105297 0.000000 -2.065016 -0.121373 0.000000 -2.732969 0.657101 0.000000 -2.629075 -0.981568 0.000000 -0.559266 -3.340369 0.000000 -0.952289 -1.788689 0.000000 -0.669059 -0.033324 0.000000 -0.276702 0.185961 0.000000 -0.079223 0.350753 0.000000 
-0.000000 0.235010 0.000000 0.231989 0.093287 0.000000 0.594659 -0.227799 0.000000 0.990105 -0.690447 0.000000 1.796228 -1.465039 0.000000 0.905442 -3.619180 0.000000 1.439690 -2.430298 0.000000 2.926340 0.834884 0.000000 2.440226 0.685712 0.000000 1.879150 0.328911 0.000000 1.333347 0.736407 0.000000 0.965608 1.173127 0.000000 0.727403 1.366190 0.000000 0.493393 1.230448 0.000000 0.264948 0.954489 0.000000 0.105982 0.648970 0.000000 0.000000 0.525666 0.000000 -0.105982 0.648970 0.000000 -0.264948 0.954489 0.000000 -0.493393 1.230448 0.000000 -0.727403 1.366190 0.000000 -0.965608 1.173127 0.000000 -1.333347 0.736407 0.000000 -1.879150 0.328911 0.000000 -2.440226 0.685712 0.000000 -2.926340 0.834884 0.000000 -1.439690 -2.430298 0.000000 -0.905442 -3.619180 0.000000 -1.796228 -1.465039 0.000000 -0.990105 -0.690447 0.000000 -0.594659 -0.227799 0.000000 -0.231989 0.093287 0.000000 
0.000000 -0.057153 0.000000 0.288344 -0.243907 0.000000 0.596856 -0.572155 0.000000 0.883738 -1.234893 0.000000 1.257846 -1.704026 0.000000 1.277966 -2.983831 0.000000 0.076165 -3.002466 0.000000 1.825753 -0.343435 0.000000 2.548563 0.925816 0.000000 2.165488 1.212176 0.000000 1.700715 1.490541 0.000000 0.998605 1.440273 0.000000 0.578840 1.429850 0.000000 0.316417 1.341701 0.000000 0.143359 1.118801 0.000000 0.060285 0.811915 0.000000 0.000000 0.684430 0.000000 -0.060285 0.811915 0.000000 -0.143359 1.118801 0.000000 -0.316417 1.341701 0.000000 -0.578840 1.429850 0.000000 -0.998605 1.440273 0.000000 -1.700715 1.490541 0.000000 -2.165488 1.212176 0.000000 -2.548563 0.925816 0.000000 -1.825753 -0.343435 0.000000 -0.076165 -3.002466 0.000000 -1.277966 -2.983831 0.000000 -1.257846 -1.704026 0.000000 -0.883738 -1.234893 0.000000 -0.596856 -0.572155 0.000000 -0.288344 -0.243907 0.000000 
0.000000 -0.341678 0.000000 0.267282 -0.503569 0.000000 0.489368 -0.823193 0.000000 0.684328 -1.351437 0.000000 0.681193 -1.859266 0.000000 0.849801 -2.437499 0.000000 0.031637 -2.978085 0.000000 0.580107 -1.637514 0.000000 1.723923 0.345977 0.000000 1.869930 1.176759 0.000000 2.212220 1.903289 0.000000 2.023085 2.295002 0.000000 1.559823 2.048378 0.000000 1.087224 1.665929 0.000000 0.696746 1.210621 0.000000 0.363482 0.792328 0.000000 0.000000 0.646236 0.000000 -0.363482 0.792328 0.000000 -0.696746 1.210621 0.000000 -1.087224 1.665929 0.000000 -1.559823 2.048378 0.000000 -2.023085 2.295002 0.000000 -2.212220 1.903289 0.000000 -1.869930 1.176759 0.000000 -1.723923 0.345977 0.000000 -0.580107 -1.637514 0.000000 -0.031637 -2.978085 0.000000 -0.849801 -2.437499 0.000000 -0.681193 -1.859266 0.000000 -0.684328 -1.351437 0.000000 -0.489368 -0.823193 0.000000 -0.267282 -0.503569 0.000000 
-0.000000 -0.591716 0.000000 0.187773 -0.733275 0.000000 0.310923 -0.989201 0.000000 0.364986 -1.426717 0.000000 0.265781 -1.869500 0.000000 0.144904 -2.334275 0.000000 -0.097940 -2.732771 0.000000 -0.326856 -2.035721 0.000000 0.578733 -0.364007 0.000000 1.060066 0.723878 0.000000 1.465345 1.337386 0.000000 1.979048 2.092671 0.000000 2.201802 2.365710 0.000000 2.115122 2.204777 0.000000 1.678628 1.842544 0.000000 0.987772 1.508661 0.000000 -0.000000 1.411394 0.000000 -0.987772 1.508661 0.000000 -1.678628 1.842544 0.000000 -2.115122 2.204777 0.000000 -2.201802 2.365710 0.000000 -1.979048 2.092671 0.000000 -1.465345 1.337386 0.000000 -1.060066 0.723878 0.000000 -0.578733 -0.364007 0.000000 0.326856 -2.035721 0.000000 0.097940 -2.732771 0.000000 -0.144904 -2.334275 0.000000 -0.265781 -1.869500 0.000000 -0.364986 -1.426717 0.000000 -0.310923 -0.989201 0.000000 -0.187773 -0.733275 0.000000 
-0.000000 -0.717224 0.000000 0.093977 -0.814492 0.000000 0.114889 -1.000406 0.000000 0.071976 -1.306295 0.000000 -0.143578 -1.639185 0.000000 -0.424666 -2.073778 0.000000 -0.891270 -2.506324 0.000000 -1.290651 -2.314187 0.000000 -0.858170 -1.040945 0.000000 0.050352 0.290147 0.000000 0.390202 0.984307 0.000000 0.624328 1.558545 0.000000 1.013023 1.912304 0.000000 1.232028 2.189103 0.000000 0.983198 2.337971 0.000000 0.675198 2.470957 0.000000 -0.000000 2.621781 0.000000 -0.675198 2.470957 0.000000 -0.983198 2.337971 0.000000 -1.232028 2.189103 0.000000 -1.013023 1.912304 0.000000 -0.624328 1.558545 0.000000 -0.390202 0.984307 0.000000 -0.050352 0.290147 0.000000 0.858170 -1.040945 0.000000 1.290651 -2.314187 0.000000 0.891270 -2.506324 0.000000 0.424666 -2.073778 0.000000 0.143578 -1.639185 0.000000 -0.071976 -1.306295 0.000000 -0.114889 -1.000406 0.000000 -0.093977 -0.814492 0.000000 
-0.000000 -0.779669 0.000000 0.018346 -0.848164 0.000000 -0.017147 -0.967200 0.000000 -0.110013 -1.168250 0.000000 -0.322123 -1.372858 0.000000 -0.621548 -1.586583 0.000000 -1.144426 -1.866786 0.000000 -1.795632 -2.068821 0.000000 -2.144364 -1.705010 0.000000 -1.654892 -0.524494 0.000000 -1.000799 0.763409 0.000000 -0.494326 1.469850 0.000000 -0.253136 1.758010 0.000000 -0.122722 2.234603 0.000000 -0.207542 2.399374 0.000000 -0.073830 2.491859 0.000000 -0.000000 2.761790 0.000000 0.073830 2.491859 0.000000 0.207542 2.399374 0.000000 0.122722 2.234603 0.000000 0.253136 1.758010 0.000000 0.494326 1.469850 0.000000 1.000799 0.763409 0.000000 1.654892 -0.524494 0.000000 2.144364 -1.705010 0.000000 1.795632 -2.068821 0.000000 1.144426 -1.866786 0.000000 0.621548 -1.586583 0.000000 0.322123 -1.372858 0.000000 0.110013 -1.168250 0.000000 0.017147 -0.967200 0.000000 -0.018346 -0.848164 0.000000 
-0.000000 -0.753915 0.000000 -0.041559 -0.797345 0.000000 -0.124049 -0.872048 0.000000 -0.242655 -1.001319 0.000000 -0.451426 -1.127650 0.000000 -0.705067 -1.251475 0.000000 -1.072525 -1.332240 0.000000 -1.585868 -1.314248 0.000000 -2.221720 -1.181685 0.000000 -2.551989 -0.853418 0.000000 -2.346074 -0.176259 0.000000 -1.806499 0.810882 0.000000 -1.324600 1.540700 0.000000 -0.854999 2.143509 0.000000 -0.475097 2.289079 0.000000 -0.309267 2.263414 0.000000 0.000000 2.474121 0.000000 0.309267 2.263414 0.000000 0.475097 2.289079 0.000000 0.854999 2.143509 0.000000 1.324600 1.540700 0.000000 1.806499 0.810882 0.000000 2.346074 -0.176259 0.000000 2.551989 -0.853418 0.000000 2.221720 -1.181685 0.000000 1.585868 -1.314248 0.000000 1.072525 -1.332240 0.000000 0.705067 -1.251475 0.000000 0.451426 -1.127650 0.000000 0.242655 -1.001319 0.000000 0.124049 -0.872048 0.000000 0.041559 -0.797345 0.000000 
-0.000000 -0.696551 0.000000 -0.076851 -0.724115 0.000000 -0.179977 -0.766104 0.000000 -0.308565 -0.840873 0.000000 -0.497406 -0.910446 0.000000 -0.717853 -0.965484 0.000000 -1.006236 -0.985985 0.000000 -1.316159 -0.919626 0.000000 -1.653906 -0.738889 0.000000 -1.965930 -0.400139 0.000000 -2.187270 0.017919 0.000000 -2.088905 0.448376 0.000000 -1.672662 0.806510 0.000000 -1.114282 1.385099 0.000000 -0.457578 1.853642 0.000000 -0.259840 2.016762 0.000000 0.000000 2.143255 0.000000 0.259840 2.016762 0.000000 0.457578 1.853642 0.000000 1.114282 1.385099 0.000000 1.672662 0.806510 0.000000 2.088905 0.448376 0.000000 2.187270 0.017919 0.000000 1.965930 -0.400139 0.000000 1.653906 -0.738889 0.000000 1.316159 -0.919626 0.000000 1.006236 -0.985985 0.000000 0.717853 -0.965484 0.000000 0.497406 -0.910446 0.000000 0.308565 -0.840873 0.000000 0.179977 -0.766104 0.000000 0.076851 -0.724115 0.000000 
-0.000000 -0.600213 0.000000 -0.101326 -0.617368 0.000000 -0.220196 -0.640333 0.000000 -0.352454 -0.683890 0.000000 -0.524589 -0.718362 0.000000 -0.712642 -0.742645 0.000000 -0.937546 -0.733934 0.000000 -1.165473 -0.666578 0.000000 -1.382765 -0.531914 0.000000 -1.531994 -0.320055 0.000000 -1.564048 -0.053284 0.000000 -1.457849 0.296275 0.000000 -1.220304 0.566077 0.000000 -0.896206 0.928425 0.000000 -0.354221 1.434636 0.000000 -0.102370 1.805836 0.000000 0.000000 1.954441 0.000000 0.102370 1.805836 0.000000 0.354221 1.434636 0.000000 0.896206 0.928425 0.000000 1.220304 0.566077 0.000000 1.457849 0.296275 0.000000 1.564048 -0.053284 0.000000 1.531994 -0.320055 0.000000 1.382765 -0.531914 0.000000 1.165473 -0.666578 0.000000 0.937546 -0.733934 0.000000 0.712642 -0.742645 0.000000 0.524589 -0.718362 0.000000 0.352454 -0.683890 0.000000 0.220196 -0.640333 0.000000 0.101326 -0.617368 0.000000 
-0.000000 -0.493899 0.000000 -0.113078 -0.503919 0.000000 -0.237117 -0.514975 0.000000 -0.368096 -0.536480 0.000000 -0.524021 -0.550258 0.000000 -0.684950 -0.552527 0.000000 -0.867353 -0.533154 0.000000 -1.036878 -0.474407 0.000000 -1.190827 -0.372368 0.000000 -1.285363 -0.218856 0.000000 -1.311164 -0.056225 0.000000 -1.221018 0.104633 0.000000 -0.995003 0.244867 0.000000 -0.734528 0.519016 0.000000 -0.365302 1.059806 0.000000 -0.071870 1.662541 0.000000 0.000000 1.938515 0.000000 0.071870 1.662541 0.000000 0.365302 1.059806 0.000000 0.734528 0.519016 0.000000 0.995003 0.244867 0.000000 1.221018 0.104633 0.000000 1.311164 -0.056225 0.000000 1.285363 -0.218856 0.000000 1.190827 -0.372368 0.000000 1.036878 -0.474407 0.000000 0.867353 -0.533154 0.000000 0.684950 -0.552527 0.000000 0.524021 -0.550258 0.000000 0.368096 -0.536480 0.000000 0.237117 -0.514975 0.000000 0.113078 -0.503919 0.000000 
-0.000000 -0.374057 0.000000 -0.121016 -0.380252 0.000000 -0.248925 -0.385315 0.000000 -0.379164 -0.396985 0.000000 -0.524048 -0.401507 0.000000 -0.667991 -0.399314 0.000000 -0.820378 -0.382006 0.000000 -0.958504 -0.343103 0.000000 -1.078028 -0.283429 0.000000 -1.149022 -0.199718 0.000000 -1.159671 -0.117629 0.000000 -1.103905 -0.019886 0.000000 -0.988627 0.079587 0.000000 -0.837708 0.298724 0.000000 -0.598692 0.771979 0.000000 -0.253839 1.440534 0.000000 0.000000 1.810701 0.000000 0.253839 1.440534 0.000000 0.598692 0.771979 0.000000 0.837708 0.298724 0.000000 0.988627 0.079587 0.000000 1.103905 -0.019886 0.000000 1.159671 -0.117629 0.000000 1.149022 -0.199718 0.000000 1.078028 -0.283429 0.000000 0.958504 -0.343103 0.000000 0.820378 -0.382006 0.000000 0.667991 -0.399314 0.000000 0.524048 -0.401507 0.000000 0.379164 -0.396985 0.000000 0.248925 -0.385315 0.000000 0.121016 -0.380252 0.000000 
-0.000000 -0.251868 0.000000 -0.123975 -0.254994 0.000000 -0.252626 -0.256827 0.000000 -0.381079 -0.261357 0.000000 -0.519347 -0.261431 0.000000 -0.652721 -0.256197 0.000000 -0.791277 -0.242641 0.000000 -0.913828 -0.216757 0.000000 -1.025033 -0.181849 0.000000 -1.102522 -0.137213 0.000000 -1.148549 -0.101343 0.000000 -1.157602 -0.066412 0.000000 -1.123398 -0.021330 0.000000 -1.055369 0.129081 0.000000 -0.878471 0.475937 0.000000 -0.512602 1.063849 0.000000 0.000000 1.430836 0.000000 0.512602 1.063849 0.000000 0.878471 0.475937 0.000000 1.055369 0.129081 0.000000 1.123398 -0.021330 0.000000 1.157602 -0.066412 0.000000 1.148549 -0.101343 0.000000 1.102522 -0.137213 0.000000 1.025033 -0.181849 0.000000 0.913828 -0.216757 0.000000 0.791277 -0.242641 0.000000 0.652721 -0.256197 0.000000 0.519347 -0.261431 0.000000 0.381079 -0.261357 0.000000 0.252626 -0.256827 0.000000 0.123975 -0.254994 0.000000 
-0.000000 -0.126107 0.000000 -0.125934 -0.127625 0.000000 -0.254994 -0.128211 0.000000 -0.382761 -0.130265 0.000000 -0.516351 -0.129865 0.000000 -0.644192 -0.127383 0.000000 -0.772548 -0.120900 0.000000 -0.886834 -0.109348 0.000000 -0.989306 -0.094735 0.000000 -1.068683 -0.076202 0.000000 -1.126518 -0.062550 0.000000 -1.170026 -0.045036 0.000000 -1.192930 -0.022646 0.000000 -1.191355 0.053796 0.000000 -1.063849 0.229212 0.000000 -0.715418 0.562063 0.000000 -0.000000 0.785497 0.000000 0.715418 0.562063 0.000000 1.063849 0.229212 0.000000 1.191355 0.053796 0.000000 1.192930 -0.022646 0.000000 1.170026 -0.045036 0.000000 1.126518 -0.062550 0.000000 1.068683 -0.076202 0.000000 0.989306 -0.094735 0.000000 0.886834 -0.109348 0.000000 0.772548 -0.120900 0.000000 0.644192 -0.127383 0.000000 0.516351 -0.129865 0.000000 0.382761 -0.130265 0.000000 0.254994 -0.128211 0.000000 0.125934 -0.127625 0.000000 
