# vtk DataFile Version 2.0
Comment goes here
ASCII

DATASET STRUCTURED_POINTS
FIELD FieldData 1
TIME 1 1 double
0.60000000
DIMENSIONS    32   32   1

ORIGIN    0.000   0.000   0.000
SPACING   0.03125 0.03125   1.000

POINT_DATA   1024
VECTORS u double

-0.000000 -0.000000 0.000000 -0.066102 -0.000000 0.000000 -0.132674 -0.000000 0.000000 -0.226273 -0.000000 0.000000 -0.317228 -0.000000 0.000000 -0.458069 0.000000 0.000000 -0.587771 0.000000 0.000000 -0.787135 0.000000 0.000000 -0.956886 0.000000 0.000000 -1.199334 0.000000 0.000000 -1.358632 0.000000 0.000000 -1.554815 0.000000 0.000000 -1.581249 -0.000000 0.000000 -1.567970 -0.000000 0.000000 -1.287913 -0.000000 0.000000 -0.819174 -0.000000 0.000000 0.000000 0.000000 0.000000 0.819174 0.000000 0.000000 1.287913 0.000000 0.000000 1.567970 0.000000 0.000000 1.581249 0.000000 0.000000 1.554815 -0.000000 0.000000 1.358632 0.000000 0.000000 1.199334 -0.000000 0.000000 0.956886 -0.000000 0.000000 0.787135 -0.000000 0.000000 0.587771 -0.000000 0.000000 0.458069 -0.000000 0.000000 0.317228 -0.000000 0.000000 0.226273 -0.000000 0.000000 0.132674 -0.000000 0.000000 0.066102 -0.000000 0.000000 
-0.000000 0.066102 0.000000 -0.061410 0.066337 0.000000 -0.123583 0.080086 0.000000 -0.212641 0.092277 0.000000 -0.299099 0.115898 0.000000 -0.433387 0.135272 0.000000 -0.555263 0.164533 0.000000 -0.741374 0.184557 0.000000 -0.895803 0.206100 0.000000 -1.117171 0.200873 0.000000 -1.257283 0.177741 0.000000 -1.436221 0.111308 0.000000 -1.456085 0.006578 0.000000 -1.450231 -0.146668 0.000000 -1.185119 -0.374398 0.000000 -0.742790 -0.643957 0.000000 0.000000 -0.819174 0.000000 0.742790 -0.643957 0.000000 1.185119 -0.374398 0.000000 1.450231 -0.146668 0.000000 1.456085 0.006578 0.000000 1.436221 0.111308 0.000000 1.257283 0.177741 0.000000 1.117171 0.200873 0.000000 0.895803 0.206100 0.000000 0.741374 0.184557 0.000000 0.555263 0.164533 0.000000 0.433387 0.135272 0.000000 0.299099 0.115898 0.000000 0.212641 0.092277 0.000000 0.123583 0.080086 0.000000 0.061410 0.066337 0.000000 
-0.000000 0.122819 0.000000 -0.053257 0.123583 0.000000 -0.108844 0.151231 0.000000 -0.192549 0.175515 0.000000 -0.275053 0.220746 0.000000 -0.403863 0.256164 0.000000 -0.516777 0.307987 0.000000 -0.686789 0.340540 0.000000 -0.814993 0.375797 0.000000 -1.002913 0.361480 0.000000 -1.098566 0.319050 0.000000 -1.242924 0.198802 0.000000 -1.212212 0.014010 0.000000 -1.178426 -0.270966 0.000000 -0.919985 -0.707441 0.000000 -0.537485 -1.185119 0.000000 0.000000 -1.485580 0.000000 0.537485 -1.185119 0.000000 0.919985 -0.707441 0.000000 1.178426 -0.270966 0.000000 1.212212 0.014010 0.000000 1.242924 0.198802 0.000000 1.098566 0.319050 0.000000 1.002913 0.361480 0.000000 0.814993 0.375797 0.000000 0.686789 0.340540 0.000000 0.516777 0.307987 0.000000 0.403863 0.256164 0.000000 0.275053 0.220746 0.000000 0.192549 0.175515 0.000000 0.108844 0.151231 0.000000 0.053257 0.123583 0.000000 
-0.000000 0.172616 0.000000 -0.036025 0.175180 0.000000 -0.077151 0.219378 0.000000 -0.148967 0.258486 0.000000 -0.222783 0.327212 0.000000 -0.340926 0.376996 0.000000 -0.441814 0.447458 0.000000 -0.587960 0.482773 0.000000 -0.684050 0.522224 0.000000 -0.819827 0.484447 0.000000 -0.845826 0.417752 0.000000 -0.918848 0.224954 0.000000 -0.819146 -0.057920 0.000000 -0.776927 -0.438894 0.000000 -0.532243 -1.015339 0.000000 -0.263944 -1.563942 0.000000 0.000000 -1.894144 0.000000 0.263944 -1.563942 0.000000 0.532243 -1.015339 0.000000 0.776927 -0.438894 0.000000 0.819146 -0.057920 0.000000 0.918848 0.224954 0.000000 0.845826 0.417752 0.000000 0.819827 0.484447 0.000000 0.684050 0.522224 0.000000 0.587960 0.482773 0.000000 0.441814 0.447458 0.000000 0.340926 0.376996 0.000000 0.222783 0.327212 0.000000 0.148967 0.258486 0.000000 0.077151 0.219378 0.000000 0.036025 0.175180 0.000000 
-0.000000 0.194869 0.000000 -0.013379 0.200734 0.000000 -0.037482 0.264174 0.000000 -0.097659 0.321147 0.000000 -0.168099 0.412705 0.000000 -0.284983 0.475196 0.000000 -0.388139 0.555021 0.000000 -0.531300 0.582776 0.000000 -0.620940 0.607664 0.000000 -0.737269 0.523256 0.000000 -0.732502 0.418071 0.000000 -0.798084 0.172122 0.000000 -0.598914 -0.127911 0.000000 -0.475673 -0.557868 0.000000 -0.166231 -1.220423 0.000000 -0.021018 -1.717363 0.000000 0.000000 -2.013469 0.000000 0.021018 -1.717363 0.000000 0.166231 -1.220423 0.000000 0.475673 -0.557868 0.000000 0.598914 -0.127911 0.000000 0.798084 0.172122 0.000000 0.732502 0.418071 0.000000 0.737269 0.523256 0.000000 0.620940 0.607664 0.000000 0.531300 0.582776 0.000000 0.388139 0.555021 0.000000 0.284983 0.475196 0.000000 0.168099 0.412705 0.000000 0.097659 0.321147 0.000000 0.037482 0.264174 0.000000 0.013379 0.200734 0.000000 
-0.000000 0.199374 0.000000 0.017972 0.212663 0.000000 0.017904 0.303658 0.000000 -0.027536 0.389103 0.000000 -0.094083 0.514536 0.000000 -0.213696 0.597036 0.000000 -0.329612 0.693775 0.000000 -0.483857 0.715574 0.000000 -0.600127 0.728192 0.000000 -0.721877 0.596009 0.000000 -0.685707 0.478567 0.000000 -0.691433 0.091366 0.000000 -0.412888 -0.380331 0.000000 -0.296165 -0.871578 0.000000 0.056976 -1.469994 0.000000 0.073948 -1.730173 0.000000 0.000000 -1.936181 0.000000 -0.073948 -1.730173 0.000000 -0.056976 -1.469994 0.000000 0.296165 -0.871578 0.000000 0.412888 -0.380331 0.000000 0.691433 0.091366 0.000000 0.685707 0.478567 0.000000 0.721877 0.596009 0.000000 0.600127 0.728192 0.000000 0.483857 0.715574 0.000000 0.329612 0.693775 0.000000 0.213696 0.597036 0.000000 0.094083 0.514536 0.000000 0.027536 0.389103 0.000000 -0.017904 0.303658 0.000000 -0.017972 0.212663 0.000000 
-0.000000 0.158924 0.000000 0.057429 0.182831 0.000000 0.085661 0.309682 0.000000 0.057817 0.433134 0.000000 -0.010088 0.598865 0.000000 -0.141654 0.710724 0.000000 -0.287745 0.825182 0.000000 -0.477620 0.853292 0.000000 -0.649526 0.845684 0.000000 -0.814608 0.608836 0.000000 -0.888766 0.387626 0.000000 -1.028039 -0.100698 0.000000 -0.554572 -0.523179 0.000000 -0.131979 -1.027731 0.000000 0.262181 -1.590535 0.000000 0.131225 -1.660387 0.000000 -0.000000 -1.865574 0.000000 -0.131225 -1.660387 0.000000 -0.262181 -1.590535 0.000000 0.131979 -1.027731 0.000000 0.554572 -0.523179 0.000000 1.028039 -0.100698 0.000000 0.888766 0.387626 0.000000 0.814608 0.608836 0.000000 0.649526 0.845684 0.000000 0.477620 0.853292 0.000000 0.287745 0.825182 0.000000 0.141654 0.710724 0.000000 0.010088 0.598865 0.000000 -0.057817 0.433134 0.000000 -0.085661 0.309682 0.000000 -0.057429 0.182831 0.000000 
-0.000000 0.084515 0.000000 0.100544 0.127002 0.000000 0.162233 0.303271 0.000000 0.153455 0.484851 0.000000 0.090173 0.714007 0.000000 -0.055427 0.874693 0.000000 -0.233623 1.029741 0.000000 -0.478804 1.077355 0.000000 -0.820783 1.065180 0.000000 -1.116620 0.835249 0.000000 -1.005958 0.691998 0.000000 -0.464508 -0.242828 0.000000 0.186339 -1.276391 0.000000 0.531552 -1.688331 0.000000 0.444778 -1.733198 0.000000 0.148980 -1.467992 0.000000 -0.000000 -1.673731 0.000000 -0.148980 -1.467992 0.000000 -0.444778 -1.733198 0.000000 -0.531552 -1.688331 0.000000 -0.186339 -1.276391 0.000000 0.464508 -0.242828 0.000000 1.005958 0.691998 0.000000 1.116620 0.835249 0.000000 0.820783 1.065180 0.000000 0.478804 1.077355 0.000000 0.233623 1.029741 0.000000 0.055427 0.874693 0.000000 -0.090173 0.714007 0.000000 -0.153455 0.484851 0.000000 -0.162233 0.303271 0.000000 -0.100544 0.127002 0.000000 
0.000000 -0.042165 0.000000 0.147653 0.020598 0.000000 0.245701 0.256771 0.000000 0.267771 0.505194 0.000000 0.213038 0.807747 0.000000 0.056097 1.034520 0.000000 -0.172625 1.248560 0.000000 -0.515837 1.440451 0.000000 -0.931285 1.483500 0.000000 -0.829627 0.794012 0.000000 -0.257698 -0.264486 0.000000 0.598428 -1.292995 0.000000 0.438933 -1.519238 0.000000 0.134101 -1.286171 0.000000 -0.182435 -1.207964 0.000000 -0.088298 -1.215609 0.000000 0.000000 -1.567613 0.000000 0.088298 -1.215609 0.000000 0.182435 -1.207964 0.000000 -0.134101 -1.286171 0.000000 -0.438933 -1.519238 0.000000 -0.598428 -1.292995 0.000000 0.257698 -0.264486 0.000000 0.829627 0.794012 0.000000 0.931285 1.483500 0.000000 0.515837 1.440451 0.000000 0.172625 1.248560 0.000000 -0.056097 1.034520 0.000000 -0.213038 0.807747 0.000000 -0.267771 0.505194 0.000000 -0.245701 0.256771 0.000000 -0.147653 0.020598 0.000000 
0.000000 -0.210790 0.000000 0.181508 -0.118699 0.000000 0.312229 0.183153 0.000000 0.362039 0.517515 0.000000 0.338808 0.925681 0.000000 0.184125 1.260357 0.000000 -0.016231 1.601675 0.000000 -0.337182 1.836015 0.000000 -0.817864 1.378970 0.000000 -0.175977 0.161662 0.000000 0.213373 -0.736057 0.000000 0.144867 -0.939459 0.000000 -0.094088 -0.812064 0.000000 0.088555 -1.066963 0.000000 0.184820 -1.510798 0.000000 0.295650 -1.650426 0.000000 0.000000 -1.850328 0.000000 -0.295650 -1.650426 0.000000 -0.184820 -1.510798 0.000000 -0.088555 -1.066963 0.000000 0.094088 -0.812064 0.000000 -0.144867 -0.939459 0.000000 -0.213373 -0.736057 0.000000 0.175977 0.161662 0.000000 0.817864 1.378970 0.000000 0.337182 1.836015 0.000000 0.016231 1.601675 0.000000 -0.184125 1.260357 0.000000 -0.338808 0.925681 0.000000 -0.362039 0.517515 0.000000 -0.312229 0.183153 0.000000 -0.181508 -0.118699 0.000000 
0.000000 -0.405180 0.000000 0.203622 -0.291631 0.000000 0.361005 0.076239 0.000000 0.468756 0.478616 0.000000 0.509394 0.985661 0.000000 0.451406 1.389558 0.000000 0.418325 1.769866 0.000000 -0.005109 2.242085 0.000000 -0.352999 1.322295 0.000000 0.634724 -0.237225 0.000000 0.784495 -0.585330 0.000000 0.958146 -0.985534 0.000000 1.330642 -1.462927 0.000000 1.578112 -1.565079 0.000000 1.324122 -1.415058 0.000000 0.774771 -1.030789 0.000000 -0.000000 -0.976313 0.000000 -0.774771 -1.030789 0.000000 -1.324122 -1.415058 0.000000 -1.578112 -1.565079 0.000000 -1.330642 -1.462927 0.000000 -0.958146 -0.985534 0.000000 -0.784495 -0.585330 0.000000 -0.634724 -0.237225 0.000000 0.352999 1.322295 0.000000 0.005109 2.242085 0.000000 -0.418325 1.769866 0.000000 -0.451406 1.389558 0.000000 -0.509394 0.985661 0.000000 -0.468756 0.478616 0.000000 -0.361005 0.076239 0.000000 -0.203622 -0.291631 0.000000 
0.000000 -0.618034 0.000000 0.183624 -0.479704 0.000000 0.339984 -0.081982 0.000000 0.480030 0.369126 0.000000 0.583710 0.943032 0.000000 0.526106 1.351425 0.000000 0.709420 2.058190 0.000000 -0.448160 2.607339 0.000000 0.510553 0.739137 0.000000 1.410919 -0.975832 0.000000 1.393571 -1.059479 0.000000 1.576370 -1.485606 0.000000 1.209900 -1.432031 0.000000 0.911591 -1.060443 0.000000 0.507045 -0.707457 0.000000 0.259739 -0.326305 0.000000 -0.000000 -0.300785 0.000000 -0.259739 -0.326305 0.000000 -0.507045 -0.707457 0.000000 -0.911591 -1.060443 0.000000 -1.209900 -1.432031 0.000000 -1.576370 -1.485606 0.000000 -1.393571 -1.059479 0.000000 -1.410919 -0.975832 0.000000 -0.510553 0.739137 0.000000 0.448160 2.607339 0.000000 -0.709420 2.058190 0.000000 -0.526106 1.351425 0.000000 -0.583710 0.943032 0.000000 -0.480030 0.369126 0.000000 -0.339984 -0.081982 0.000000 -0.183624 -0.479704 0.000000 
0.000000 -0.772429 0.000000 0.116951 -0.631616 0.000000 0.229755 -0.220166 0.000000 0.420728 0.234890 0.000000 0.504635 0.939584 0.000000 0.786453 1.263848 0.000000 0.511963 2.744133 0.000000 -0.473598 2.440952 0.000000 1.693619 -0.536784 0.000000 1.493310 -1.120243 0.000000 1.146398 -0.750781 0.000000 0.781129 -0.801862 0.000000 0.322159 -0.798148 0.000000 0.156849 -0.862224 0.000000 -0.001594 -0.763206 0.000000 0.011550 -0.523743 0.000000 -0.000000 -0.456836 0.000000 -0.011550 -0.523743 0.000000 0.001594 -0.763206 0.000000 -0.156849 -0.862224 0.000000 -0.322159 -0.798148 0.000000 -0.781129 -0.801862 0.000000 -1.146398 -0.750781 0.000000 -1.493310 -1.120243 0.000000 -1.693619 -0.536784 0.000000 0.473598 2.440952 0.000000 -0.511963 2.744133 0.000000 -0.786453 1.263848 0.000000 -0.504635 0.939584 0.000000 -0.420728 0.234890 0.000000 -0.229755 -0.220166 0.000000 -0.116951 -0.631616 0.000000 
0.000000 -0.851936 0.000000 -0.001550 -0.709459 0.000000 0.006793 -0.385759 0.000000 0.251011 0.094246 0.000000 0.270836 0.577307 0.000000 1.048061 1.344097 0.000000 -0.200733 3.318241 0.000000 0.791870 1.425683 0.000000 2.050693 -1.227772 0.000000 1.136587 -0.428611 0.000000 0.925869 -0.347298 0.000000 0.622815 -0.661367 0.000000 0.505424 -0.807751 0.000000 0.369721 -0.736689 0.000000 0.182747 -0.562158 0.000000 0.074185 -0.327899 0.000000 -0.000000 -0.277685 0.000000 -0.074185 -0.327899 0.000000 -0.182747 -0.562158 0.000000 -0.369721 -0.736689 0.000000 -0.505424 -0.807751 0.000000 -0.622815 -0.661367 0.000000 -0.925869 -0.347298 0.000000 -1.136587 -0.428611 0.000000 -2.050693 -1.227772 0.000000 -0.791870 1.425683 0.000000 0.200733 3.318241 0.000000 -1.048061 1.344097 0.000000 -0.270836 0.577307 0.000000 -0.251011 0.094246 0.000000 -0.006793 -0.385759 0.000000 0.001550 -0.709459 0.000000 
0.000000 -0.769329 0.000000 -0.191109 -0.638409 0.000000 -0.304538 -0.472727 0.000000 -0.236261 -0.029153 0.000000 -0.099929 0.142534 0.000000 0.299478 1.735417 0.000000 -0.078276 3.000324 0.000000 2.025124 0.189526 0.000000 1.624536 -0.881501 0.000000 1.090831 0.004581 0.000000 1.025226 -0.237010 0.000000 0.839193 -0.381418 0.000000 0.579707 -0.545053 0.000000 0.369710 -0.539548 0.000000 0.157401 -0.467670 0.000000 0.062885 -0.340996 0.000000 -0.000000 -0.308466 0.000000 -0.062885 -0.340996 0.000000 -0.157401 -0.467670 0.000000 -0.369710 -0.539548 0.000000 -0.579707 -0.545053 0.000000 -0.839193 -0.381418 0.000000 -1.025226 -0.237010 0.000000 -1.090831 0.004581 0.000000 -1.624536 -0.881501 0.000000 -2.025124 0.189526 0.000000 0.078276 3.000324 0.000000 -0.299478 1.735417 0.000000 0.099929 0.142534 0.000000 0.236261 -0.029153 0.000000 0.304538 -0.472727 0.000000 0.191109 -0.638409 0.000000 
0.000000 -0.469717 0.000000 -0.384664 -0.404921 0.000000 -0.638409 -0.340608 0.000000 -0.857391 -0.110364 0.000000 -0.667562 0.041568 0.000000 -0.714857 1.322444 0.000000 1.067855 1.592596 0.000000 2.285467 -0.277129 0.000000 1.257381 -0.293479 0.000000 1.403966 0.170699 0.000000 1.261961 -0.095659 0.000000 1.166956 -0.215848 0.000000 0.880544 -0.338268 0.000000 0.621903 -0.314383 0.000000 0.340996 -0.255333 0.000000 0.154233 -0.170498 0.000000 -0.000000 -0.151915 0.000000 -0.154233 -0.170498 0.000000 -0.340996 -0.255333 0.000000 -0.621903 -0.314383 0.000000 -0.880544 -0.338268 0.000000 -1.166956 -0.215848 0.000000 -1.261961 -0.095659 0.000000 -1.403966 0.170699 0.000000 -1.257381 -0.293479 0.000000 -2.285467 -0.277129 0.000000 -1.067855 1.592596 0.000000 0.714857 1.322444 0.000000 0.667562 0.041568 0.000000 0.857391 -0.110364 0.000000 0.638409 -0.340608 0.000000 0.384664 -0.404921 0.000000 
-0.000000 0.000000 0.000000 -0.469717 0.000000 0.000000 -0.809842 0.000000 0.000000 -1.150932 0.000000 0.000000 -1.030570 -0.000000 0.000000 -1.067797 0.000000 0.000000 1.614319 -0.000000 0.000000 2.117394 -0.000000 0.000000 1.060061 0.000000 0.000000 1.530436 0.000000 0.000000 1.401459 0.000000 0.000000 1.339117 0.000000 0.000000 0.969763 0.000000 0.000000 0.662582 0.000000 0.000000 0.340997 -0.000000 0.000000 0.151915 0.000000 0.000000 -0.000000 -0.000000 0.000000 -0.151915 -0.000000 0.000000 -0.340997 -0.000000 0.000000 -0.662582 -0.000000 0.000000 -0.969763 -0.000000 0.000000 -1.339117 -0.000000 0.000000 -1.401459 -0.000000 0.000000 -1.530436 0.000000 0.000000 -1.060061 0.000000 0.000000 -2.117394 0.000000 0.000000 -1.614319 -0.000000 0.000000 1.067797 -0.000000 0.000000 1.030570 -0.000000 0.000000 1.150932 0.000000 0.000000 0.809842 0.000000 0.000000 0.469717 0.000000 0.000000 
-0.000000 0.469717 0.000000 -0.384664 0.404921 0.000000 -0.638409 0.340608 0.000000 -0.857391 0.110364 0.000000 -0.667562 -0.041568 0.000000 -0.714857 -1.322444 0.000000 1.067855 -1.592596 0.000000 2.285467 0.277129 0.000000 1.257381 0.293479 0.000000 1.403966 -0.170699 0.000000 1.261961 0.095659 0.000000 1.166956 0.215848 0.000000 0.880544 0.338268 0.000000 0.621903 0.314383 0.000000 0.340996 0.255333 0.000000 0.154233 0.170498 0.000000 -0.000000 0.151915 0.000000 -0.154233 0.170498 0.000000 -0.340996 0.255333 0.000000 -0.621903 0.314383 0.000000 -0.880544 0.338268 0.000000 -1.166956 0.215848 0.000000 -1.261961 0.095659 0.000000 -1.403966 -0.170699 0.000000 -1.257381 0.293479 0.000000 -2.285467 0.277129 0.000000 -1.067855 -1.592596 0.000000 0.714857 -1.322444 0.000000 0.667562 -0.041568 0.000000 0.857391 0.110364 0.000000 0.638409 0.340608 0.000000 0.384664 0.404921 0.000000 
-0.000000 0.769329 0.000000 -0.191109 0.638409 0.000000 -0.304538 0.472727 0.000000 -0.236261 0.029153 0.000000 -0.099929 -0.142534 0.000000 0.299478 -1.735417 0.000000 -0.078276 -3.000324 0.000000 2.025124 -0.189526 0.000000 1.624536 0.881501 0.000000 1.090831 -0.004581 0.000000 1.025226 0.237010 0.000000 0.839193 0.381418 0.000000 0.579707 0.545053 0.000000 0.369710 0.539548 0.000000 0.157401 0.467670 0.000000 0.062885 0.340996 0.000000 -0.000000 0.308466 0.000000 -0.062885 0.340996 0.000000 -0.157401 0.467670 0.000000 -0.369710 0.539548 0.000000 -0.579707 0.545053 0.000000 -0.839193 0.381418 0.000000 -1.025226 0.237010 0.000000 -1.090831 -0.004581 0.000000 -1.624536 0.881501 0.000000 -2.025124 -0.189526 0.000000 0.078276 -3.000324 0.000000 -0.299478 -1.735417 0.000000 0.099929 -0.142534 0.000000 0.236261 0.029153 0.000000 0.304538 0.472727 0.000000 0.191109 0.638409 0.000000 
-0.000000 0.851936 0.000000 -0.001550 0.709459 0.000000 0.006793 0.385759 0.000000 0.251011 -0.094246 0.000000 0.270836 -0.577307 0.000000 1.048061 -1.344097 0.000000 -0.200733 -3.318241 0.000000 0.791870 -1.425683 0.000000 2.050693 1.227772 0.000000 1.136587 0.428611 0.000000 0.925869 0.347298 0.000000 0.622815 0.661367 0.000000 0.505424 0.807751 0.000000 0.369721 0.736689 0.000000 0.182747 0.562158 0.000000 0.074185 0.327899 0.000000 -0.000000 0.277685 0.000000 -0.074185 0.327899 0.000000 -0.182747 0.562158 0.000000 -0.369721 0.736689 0.000000 -0.505424 0.807751 0.000000 -0.622815 0.661367 0.000000 -0.925869 0.347298 0.000000 -1.136587 0.428611 0.000000 -2.050693 1.227772 0.000000 -0.791870 -1.425683 0.000000 0.200733 -3.318241 0.000000 -1.048061 -1.344097 0.000000 -0.270836 -0.577307 0.000000 -0.251011 -0.094246 0.000000 -0.006793 0.385759 0.000000 0.001550 0.709459 0.000000 
-0.000000 0.772429 0.000000 0.116951 0.631616 0.000000 0.229755 0.220166 0.000000 0.420728 -0.234890 0.000000 0.504635 -0.939584 0.000000 0.786453 -1.263848 0.000000 0.511963 -2.744133 0.000000 -0.473598 -2.440952 0.000000 1.693619 0.536784 0.000000 1.493310 1.120243 0.000000 1.146398 0.750781 0.000000 0.781129 0.801862 0.000000 0.322159 0.798148 0.000000 0.156849 0.862224 0.000000 -0.001594 0.763206 0.000000 0.011550 0.523743 0.000000 -0.000000 0.456836 0.000000 -0.011550 0.523743 0.000000 0.001594 0.763206 0.000000 -0.156849 0.862224 0.000000 -0.322159 0.798148 0.000000 -0.781129 0.801862 0.000000 -1.146398 0.750781 0.000000 -1.493310 1.120243 0.000000 -1.693619 0.536784 0.000000 0.473598 -2.440952 0.000000 -0.511963 -2.744133 0.000000 -0.786453 -1.263848 0.000000 -0.504635 -0.939584 0.000000 -0.420728 -0.234890 0.000000 -0.229755 0.220166 0.000000 -0.116951 0.631616 0.000000 
-0.000000 0.618034 0.000000 0.183624 0.479704 0.000000 0.339984 0.081982 0.000000 0.480030 -0.369126 0.000000 0.583710 -0.943032 0.000000 0.526106 -1.351425 0.000000 0.709420 -2.058190 0.000000 -0.448160 -2.607339 0.000000 0.510553 -0.739137 0.000000 1.410919 0.975832 0.000000 1.393571 1.059479 0.000000 1.576370 1.485606 0.000000 1.209900 1.432031 0.000000 0.911591 1.060443 0.000000 0.507045 0.707457 0.000000 0.259739 0.326305 0.000000 -0.000000 0.300785 0.000000 -0.259739 0.326305 0.000000 -0.507045 0.707457 0.000000 -0.911591 1.060443 0.000000 -1.209900 1.432031 0.000000 -1.576370 1.485606 0.000000 -1.393571 1.059479 0.000000 -1.410919 0.975832 0.000000 -0.510553 -0.739137 0.000000 0.448160 -2.607339 0.000000 -0.709420 -2.058190 0.000000 -0.526106 -1.351425 0.000000 -0.583710 -0.943032 0.000000 -0.480030 -0.369126 0.000000 -0.339984 0.081982 0.000000 -0.183624 0.479704 0.000000 
0.000000 0.405180 0.000000 0.203622 0.291631 0.000000 0.361005 -0.076239 0.000000 0.468756 -0.478616 0.000000 0.509394 -0.985661 0.000000 0.451406 -1.389558 0.000000 0.418325 -1.769866 0.000000 -0.005109 -2.242085 0.000000 -0.352999 -1.322295 0.000000 0.634724 0.237225 0.000000 0.784495 0.585330 0.000000 0.958146 0.985534 0.000000 1.330642 1.462927 0.000000 1.578112 1.565079 0.000000 1.324122 1.415058 0.000000 0.774771 1.030789 0.000000 -0.000000 0.976313 0.000000 -0.774771 1.030789 0.000000 -1.324122 1.415058 0.000000 -1.578112 1.565079 0.000000 -1.330642 1.462927 0.000000 -0.958146 0.985534 0.000000 -0.784495 0.585330 0.000000 -0.634724 0.237225 0.000000 0.352999 -1.322295 0.000000 0.005109 -2.242085 0.000000 -0.418325 -1.769866 0.000000 -0.451406 -1.389558 0.000000 -0.509394 -0.985661 0.000000 -0.468756 -0.478616 0.000000 -0.361005 -0.076239 0.000000 -0.203622 0.291631 0.000000 
-0.000000 0.210790 0.000000 0.181508 0.118699 0.000000 0.312229 -0.183153 0.000000 0.362039 -0.517515 0.000000 0.338808 -0.925681 0.000000 0.184125 -1.260357 0.000000 -0.016231 -1.601675 0.000000 -0.337182 -1.836015 0.000000 -0.817864 -1.378970 0.000000 -0.175977 -0.161662 0.000000 0.213373 0.736057 0.000000 0.144867 0.939459 0.000000 -0.094088 0.812064 0.000000 0.088555 1.066963 0.000000 0.184820 1.510798 0.000000 0.295650 1.650426 0.000000 0.000000 1.850328 0.000000 -0.295650 1.650426 0.000000 -0.184820 1.510798 0.000000 -0.088555 1.066963 0.000000 0.094088 0.812064 0.000000 -0.144867 0.939459 0.000000 -0.213373 0.736057 0.000000 0.175977 -0.161662 0.000000 0.817864 -1.378970 0.000000 0.337182 -1.836015 0.000000 0.016231 -1.601675 0.000000 -0.184125 -1.260357 0.000000 -0.338808 -0.925681 0.000000 -0.362039 -0.517515 0.000000 -0.312229 -0.183153 0.000000 -0.181508 0.118699 0.000000 
0.000000 0.042165 0.000000 0.147653 -0.020598 0.000000 0.245701 -0.256771 0.000000 0.267771 -0.505194 0.000000 0.213038 -0.807747 0.000000 0.056097 -1.034520 0.000000 -0.172625 -1.248560 0.000000 -0.515837 -1.440451 0.000000 -0.931285 -1.483500 0.000000 -0.829627 -0.794012 0.000000 -0.257698 0.264486 0.000000 0.598428 1.292995 0.000000 0.438933 1.519238 0.000000 0.134101 1.286171 0.000000 -0.182435 1.207964 0.000000 -0.088298 1.215609 0.000000 0.000000 1.567613 0.000000 0.088298 1.215609 0.000000 0.182435 1.207964 0.000000 -0.134101 1.286171 0.000000 -0.438933 1.519238 0.000000 -0.598428 1.292995 0.000000 0.257698 0.264486 0.000000 0.829627 -0.794012 0.000000 0.931285 -1.483500 0.000000 0.515837 -1.440451 0.000000 0.172625 -1.248560 0.000000 -0.056097 -1.034520 0.000000 -0.213038 -0.807747 0.000000 -0.267771 -0.505194 0.000000 -0.245701 -0.256771 0.000000 -0.147653 -0.020598 0.000000 
-0.000000 -0.084515 0.000000 0.100544 -0.127002 0.000000 0.162233 -0.303271 0.000000 0.153455 -0.484851 0.000000 0.090173 -0.714007 0.000000 -0.055427 -0.874693 0.000000 -0.233623 -1.029741 0.000000 -0.478804 -1.077355 0.000000 -0.820783 -1.065180 0.000000 -1.116620 -0.835249 0.000000 -1.005958 -0.691998 0.000000 -0.464508 0.242828 0.000000 0.186339 1.276391 0.000000 0.531552 1.688331 0.000000 0.444778 1.733198 0.000000 0.148980 1.467992 0.000000 -0.000000 1.673731 0.000000 -0.148980 1.467992 0.000000 -0.444778 1.733198 0.000000 -0.531552 1.688331 0.000000 -0.186339 1.276391 0.000000 0.464508 0.242828 0.000000 1.005958 -0.691998 0.000000 1.116620 -0.835249 0.000000 0.820783 -1.065180 0.000000 0.478804 -1.077355 0.000000 0.233623 -1.029741 0.000000 0.055427 -0.874693 0.000000 -0.090173 -0.714007 0.000000 -0.153455 -0.484851 0.000000 -0.162233 -0.303271 0.000000 -0.100544 -0.127002 0.000000 
-0.000000 -0.158924 0.000000 0.057429 -0.182831 0.000000 0.085661 -0.309682 0.000000 0.057817 -0.433134 0.000000 -0.010088 -0.598865 0.000000 -0.141654 -0.710724 0.000000 -0.287745 -0.825182 0.000000 -0.477620 -0.853292 0.000000 -0.649526 -0.845684 0.000000 -0.814608 -0.608836 0.000000 -0.888766 -0.387626 0.000000 -1.028039 0.100698 0.000000 -0.554572 0.523179 0.000000 -0.131979 1.027731 0.000000 0.262181 1.590535 0.000000 0.131225 1.660387 0.000000 -0.000000 1.865574 0.000000 -0.131225 1.660387 0.000000 -0.262181 1.590535 0.000000 0.131979 1.027731 0.000000 0.554572 0.523179 0.000000 1.028039 0.100698 0.000000 0.888766 -0.387626 0.000000 0.814608 -0.608836 0.000000 0.649526 -0.845684 0.000000 0.477620 -0.853292 0.000000 0.287745 -0.825182 0.000000 0.141654 -0.710724 0.000000 0.010088 -0.598865 0.000000 -0.057817 -0.433134 0.000000 -0.085661 -0.309682 0.000000 -0.057429 -0.182831 0.000000 
-0.000000 -0.199374 0.000000 0.017972 -0.212663 0.000000 0.017904 -0.303658 0.000000 -0.027536 -0.389103 0.000000 -0.094083 -0.514536 0.000000 -0.213696 -0.597036 0.000000 -0.329612 -0.693775 0.000000 -0.483857 -0.715574 0.000000 -0.600127 -0.728192 0.000000 -0.721877 -0.596009 0.000000 -0.685707 -0.478567 0.000000 -0.691433 -0.091366 0.000000 -0.412888 0.380331 0.000000 -0.296165 0.871578 0.000000 0.056976 1.469994 0.000000 0.073948 1.730173 0.000000 -0.000000 1.936181 0.000000 -0.073948 1.730173 0.000000 -0.056976 1.469994 0.000000 0.296165 0.871578 0.000000 0.412888 0.380331 0.000000 0.691433 -0.091366 0.000000 0.685707 -0.478567 0.000000 0.721877 -0.596009 0.000000 0.600127 -0.728192 0.000000 0.483857 -0.715574 0.000000 0.329612 -0.693775 0.000000 0.213696 -0.597036 0.000000 0.094083 -0.514536 0.000000 0.027536 -0.389103 0.000000 -0.017904 -0.303658 0.000000 -0.017972 -0.212663 0.000000 
-0.000000 -0.194869 0.000000 -0.013379 -0.200734 0.000000 -0.037482 -0.264174 0.000000 -0.097659 -0.321147 0.000000 -0.168099 -0.412705 0.000000 -0.284983 -0.475196 0.000000 -0.388139 -0.555021 0.000000 -0.531300 -0.582776 0.000000 -0.620940 -0.607664 0.000000 -0.737269 -0.523256 0.000000 -0.732502 -0.418071 0.000000 -0.798084 -0.172122 0.000000 -0.598914 0.127911 0.000000 -0.475673 0.557868 0.000000 -0.166231 1.220423 0.000000 -0.021018 1.717363 0.000000 0.000000 2.013469 0.000000 0.021018 1.717363 0.000000 0.166231 1.220423 0.000000 0.475673 0.557868 0.000000 0.598914 0.127911 0.000000 0.798084 -0.172122 0.000000 0.732502 -0.418071 0.000000 0.737269 -0.523256 0.000000 0.620940 -0.607664 0.000000 0.531300 -0.582776 0.000000 0.388139 -0.555021 0.000000 0.284983 -0.475196 0.000000 0.168099 -0.412705 0.000000 0.097659 -0.321147 0.000000 0.037482 -0.264174 0.000000 0.013379 -0.200734 0.000000 
-0.000000 -0.172616 0.000000 -0.036025 -0.175180 0.000000 -0.077151 -0.219378 0.000000 -0.148967 -0.258486 0.000000 -0.222783 -0.327212 0.000000 -0.340926 -0.376996 0.000000 -0.441814 -0.447458 0.000000 -0.587960 -0.482773 0.000000 -0.684050 -0.522224 0.000000 -0.819827 -0.484447 0.000000 -0.845826 -0.417752 0.000000 -0.918848 -0.224954 0.000000 -0.819146 0.057920 0.000000 -0.776927 0.438894 0.000000 -0.532243 1.015339 0.000000 -0.263944 1.563942 0.000000 0.000000 1.894144 0.000000 0.263944 1.563942 0.000000 0.532243 1.015339 0.000000 0.776927 0.438894 0.000000 0.819146 0.057920 0.000000 0.918848 -0.224954 0.000000 0.845826 -0.417752 0.000000 0.819827 -0.484447 0.000000 0.684050 -0.522224 0.000000 0.587960 -0.482773 0.000000 0.441814 -0.447458 0.000000 0.340926 -0.376996 0.000000 0.222783 -0.327212 0.000000 0.148967 -0.258486 0.000000 0.077151 -0.219378 0.000000 0.036025 -0.175180 0.000000 
-0.000000 -0.122819 0.000000 -0.053257 -0.123583 0.000000 -0.108844 -0.151231 0.000000 -0.192549 -0.175515 0.000000 -0.275053 -0.220746 0.000000 -0.403863 -0.256164 0.000000 -0.516777 -0.307987 0.000000 -0.686789 -0.340540 0.000000 -0.814993 -0.375797 0.000000 -1.002913 -0.361480 0.000000 -1.098566 -0.319050 0.000000 -1.242924 -0.198802 0.000000 -1.212212 -0.014010 0.000000 -1.178426 0.270966 0.000000 -0.919985 0.707441 0.000000 -0.537485 1.185119 0.000000 0.000000 1.485580 0.000000 0.537485 1.185119 0.000000 0.919985 0.707441 0.000000 1.178426 0.270966 0.000000 1.212212 -0.014010 0.000000 1.242924 -0.198802 0.000000 1.098566 -0.319050 0.000000 1.002913 -0.361480 0.000000 0.814993 -0.375797 0.000000 0.686789 -0.340540 0.000000 0.516777 -0.307987 0.000000 0.403863 -0.256164 0.000000 0.275053 -0.220746 0.000000 0.192549 -0.175515 0.000000 0.108844 -0.151231 0.000000 0.053257 -0.123583 0.000000 
-0.000000 -0.066102 0.000000 -0.061410 -0.066337 0.000000 -0.123583 -0.080086 0.000000 -0.212641 -0.092277 0.000000 -0.299099 -0.115898 0.000000 -0.433387 -0.135272 0.000000 -0.555263 -0.164533 0.000000 -0.741374 -0.184557 0.000000 -0.895803 -0.206100 0.000000 -1.117171 -0.200873 0.000000 -1.257283 -0.177741 0.000000 -1.436221 -0.111308 0.000000 -1.456085 -0.006578 0.000000 -1.450231 0.146668 0.000000 -1.185119 0.374398 0.000000 -0.742790 0.643957 0.000000 0.000000 0.819174 0.000000 0.742790 0.643957 0.000000 1.185119 0.374398 0.000000 1.450231 0.146668 0.000000 1.456085 -0.006578 0.000000 1.436221 -0.111308 0.000000 1.257283 -0.177741 0.000000 1.117171 -0.200873 0.000000 0.895803 -0.206100 0.000000 0.741374 -0.184557 0.000000 0.555263 -0.164533 0.000000 0.433387 -0.135272 0.000000 0.299099 -0.115898 0.000000 0.212641 -0.092277 0.000000 0.123583 -0.080086 0.000000 0.061410 -0.066337 0.000000 
