# vtk DataFile Version 2.0
Comment goes here
ASCII

DATASET STRUCTURED_POINTS
FIELD FieldData 1
TIME 1 1 double
0.92000000
DIMENSIONS    32   32   1

ORIGIN    0.000   0.000   0.000
SPACING   0.03125 0.03125   1.000

POINT_DATA   1024
VECTORS u double

0.000000 -0.000000 0.000000 -0.031720 -0.000000 0.000000 -0.079548 -0.000000 0.000000 -0.150562 -0.000000 0.000000 -0.260906 -0.000000 0.000000 -0.407066 -0.000000 0.000000 -0.596619 -0.000000 0.000000 -0.817639 0.000000 0.000000 -1.053470 -0.000000 0.000000 -1.287614 0.000000 0.000000 -1.475146 -0.000000 0.000000 -1.606250 0.000000 0.000000 -1.622855 -0.000000 0.000000 -1.513321 0.000000 0.000000 -1.220102 0.000000 0.000000 -0.712681 0.000000 0.000000 0.000000 0.000000 0.000000 0.712681 0.000000 0.000000 1.220102 0.000000 0.000000 1.513321 -0.000000 0.000000 1.622855 -0.000000 0.000000 1.606250 -0.000000 0.000000 1.475146 -0.000000 0.000000 1.287614 -0.000000 0.000000 1.053470 0.000000 0.000000 0.817639 -0.000000 0.000000 0.596619 -0.000000 0.000000 0.407066 -0.000000 0.000000 0.260906 -0.000000 0.000000 0.150562 -0.000000 0.000000 0.079548 -0.000000 0.000000 0.031720 -0.000000 0.000000 
-0.000000 0.031720 0.000000 -0.023996 0.039774 0.000000 -0.064277 0.059421 0.000000 -0.127168 0.090679 0.000000 -0.228549 0.128252 0.000000 -0.362949 0.167857 0.000000 -0.538454 0.205286 0.000000 -0.741802 0.228425 0.000000 -0.959124 0.234987 0.000000 -1.174015 0.210838 0.000000 -1.346303 0.159318 0.000000 -1.468288 0.073855 0.000000 -1.484736 -0.046464 0.000000 -1.391634 -0.201377 0.000000 -1.129017 -0.400320 0.000000 -0.656104 -0.610051 0.000000 0.000000 -0.712681 0.000000 0.656104 -0.610051 0.000000 1.129017 -0.400320 0.000000 1.391634 -0.201377 0.000000 1.484736 -0.046464 0.000000 1.468288 0.073855 0.000000 1.346303 0.159318 0.000000 1.174015 0.210838 0.000000 0.959124 0.234987 0.000000 0.741802 0.228425 0.000000 0.538454 0.205286 0.000000 0.362949 0.167857 0.000000 0.228549 0.128252 0.000000 0.127168 0.090679 0.000000 0.064277 0.059421 0.000000 0.023996 0.039774 0.000000 
0.000000 0.047991 0.000000 -0.006287 0.064277 0.000000 -0.030347 0.103173 0.000000 -0.076747 0.164272 0.000000 -0.162084 0.235780 0.000000 -0.275231 0.309905 0.000000 -0.426421 0.378853 0.000000 -0.599023 0.420670 0.000000 -0.783063 0.432213 0.000000 -0.965944 0.387179 0.000000 -1.106932 0.294273 0.000000 -1.211706 0.138433 0.000000 -1.218357 -0.076654 0.000000 -1.133000 -0.355719 0.000000 -0.909524 -0.735530 0.000000 -0.510156 -1.129017 0.000000 0.000000 -1.312209 0.000000 0.510156 -1.129017 0.000000 0.909524 -0.735530 0.000000 1.133000 -0.355719 0.000000 1.218357 -0.076654 0.000000 1.211706 0.138433 0.000000 1.106932 0.294273 0.000000 0.965944 0.387179 0.000000 0.783063 0.432213 0.000000 0.599023 0.420670 0.000000 0.426421 0.378853 0.000000 0.275231 0.309905 0.000000 0.162084 0.235780 0.000000 0.076747 0.164272 0.000000 0.030347 0.103173 0.000000 0.006287 0.064277 0.000000 
-0.000000 0.044295 0.000000 0.023629 0.070121 0.000000 0.026678 0.129881 0.000000 0.006622 0.222417 0.000000 -0.054404 0.326735 0.000000 -0.136568 0.432193 0.000000 -0.252958 0.529078 0.000000 -0.379676 0.585068 0.000000 -0.514005 0.601909 0.000000 -0.642755 0.534707 0.000000 -0.731674 0.405080 0.000000 -0.796035 0.185279 0.000000 -0.771449 -0.125171 0.000000 -0.711540 -0.510210 0.000000 -0.569785 -1.023164 0.000000 -0.294214 -1.519575 0.000000 0.000000 -1.732992 0.000000 0.294214 -1.519575 0.000000 0.569785 -1.023164 0.000000 0.711540 -0.510210 0.000000 0.771449 -0.125171 0.000000 0.796035 0.185279 0.000000 0.731674 0.405080 0.000000 0.642755 0.534707 0.000000 0.514005 0.601909 0.000000 0.379676 0.585068 0.000000 0.252958 0.529078 0.000000 0.136568 0.432193 0.000000 0.054404 0.326735 0.000000 -0.006622 0.222417 0.000000 -0.026678 0.129881 0.000000 -0.023629 0.070121 0.000000 
0.000000 0.000734 0.000000 0.059825 0.037599 0.000000 0.094110 0.120180 0.000000 0.102221 0.245355 0.000000 0.061658 0.378970 0.000000 0.004601 0.508458 0.000000 -0.090106 0.621961 0.000000 -0.185048 0.681717 0.000000 -0.289533 0.695292 0.000000 -0.390747 0.604848 0.000000 -0.448575 0.447553 0.000000 -0.514975 0.178209 0.000000 -0.471192 -0.161149 0.000000 -0.377173 -0.557384 0.000000 -0.233119 -1.152857 0.000000 -0.070003 -1.698801 0.000000 -0.000000 -1.900636 0.000000 0.070003 -1.698801 0.000000 0.233119 -1.152857 0.000000 0.377173 -0.557384 0.000000 0.471192 -0.161149 0.000000 0.514975 0.178209 0.000000 0.448575 0.447553 0.000000 0.390747 0.604848 0.000000 0.289533 0.695292 0.000000 0.185048 0.681717 0.000000 0.090106 0.621961 0.000000 -0.004601 0.508458 0.000000 -0.061658 0.378970 0.000000 -0.102221 0.245355 0.000000 -0.094110 0.120180 0.000000 -0.059825 0.037599 0.000000 
-0.000000 -0.075355 0.000000 0.100240 -0.023989 0.000000 0.168817 0.087485 0.000000 0.206190 0.254868 0.000000 0.183415 0.424355 0.000000 0.145597 0.583958 0.000000 0.062489 0.718728 0.000000 -0.012011 0.784494 0.000000 -0.099576 0.807608 0.000000 -0.179400 0.693749 0.000000 -0.219246 0.529308 0.000000 -0.254280 0.207897 0.000000 -0.118008 -0.262972 0.000000 -0.016875 -0.748283 0.000000 0.049929 -1.330334 0.000000 0.091349 -1.752694 0.000000 -0.000000 -1.872998 0.000000 -0.091349 -1.752694 0.000000 -0.049929 -1.330334 0.000000 0.016875 -0.748283 0.000000 0.118008 -0.262972 0.000000 0.254280 0.207897 0.000000 0.219246 0.529308 0.000000 0.179400 0.693749 0.000000 0.099576 0.807608 0.000000 0.012011 0.784494 0.000000 -0.062489 0.718728 0.000000 -0.145597 0.583958 0.000000 -0.183415 0.424355 0.000000 -0.206190 0.254868 0.000000 -0.168817 0.087485 0.000000 -0.100240 -0.023989 0.000000 
0.000000 -0.199746 0.000000 0.139490 -0.131218 0.000000 0.241160 0.014229 0.000000 0.306601 0.230756 0.000000 0.296658 0.439563 0.000000 0.273176 0.629385 0.000000 0.182500 0.779570 0.000000 0.112491 0.843782 0.000000 0.002120 0.862681 0.000000 -0.097345 0.724517 0.000000 -0.154261 0.522434 0.000000 -0.319190 0.076971 0.000000 -0.165883 -0.398553 0.000000 0.168274 -0.725320 0.000000 0.421246 -1.261081 0.000000 0.369774 -1.648873 0.000000 -0.000000 -1.717939 0.000000 -0.369774 -1.648873 0.000000 -0.421246 -1.261081 0.000000 -0.168274 -0.725320 0.000000 0.165883 -0.398553 0.000000 0.319190 0.076971 0.000000 0.154261 0.522434 0.000000 0.097345 0.724517 0.000000 -0.002120 0.862681 0.000000 -0.112491 0.843782 0.000000 -0.182500 0.779570 0.000000 -0.273176 0.629385 0.000000 -0.296658 0.439563 0.000000 -0.306601 0.230756 0.000000 -0.241160 0.014229 0.000000 -0.139490 -0.131218 0.000000 
0.000000 -0.354334 0.000000 0.170669 -0.265149 0.000000 0.298187 -0.079626 0.000000 0.385695 0.199370 0.000000 0.383092 0.457779 0.000000 0.366643 0.698115 0.000000 0.258740 0.879413 0.000000 0.175627 0.964875 0.000000 0.033655 1.017444 0.000000 -0.121394 0.850130 0.000000 -0.250121 0.751153 0.000000 -0.069291 0.219519 0.000000 0.601332 -0.750436 0.000000 1.062855 -1.335412 0.000000 0.934963 -1.531835 0.000000 0.548017 -1.331447 0.000000 -0.000000 -1.133450 0.000000 -0.548017 -1.331447 0.000000 -0.934963 -1.531835 0.000000 -1.062855 -1.335412 0.000000 -0.601332 -0.750436 0.000000 0.069291 0.219519 0.000000 0.250121 0.751153 0.000000 0.121394 0.850130 0.000000 -0.033655 1.017444 0.000000 -0.175627 0.964875 0.000000 -0.258740 0.879413 0.000000 -0.366643 0.698115 0.000000 -0.383092 0.457779 0.000000 -0.385695 0.199370 0.000000 -0.298187 -0.079626 0.000000 -0.170669 -0.265149 0.000000 
0.000000 -0.541084 0.000000 0.190724 -0.429405 0.000000 0.336867 -0.200797 0.000000 0.441976 0.145851 0.000000 0.450752 0.458615 0.000000 0.452317 0.753738 0.000000 0.326243 0.970586 0.000000 0.255564 1.068866 0.000000 0.013071 1.159702 0.000000 -0.093261 1.008293 0.000000 0.107114 0.470331 0.000000 0.860926 -0.774482 0.000000 1.051016 -1.530700 0.000000 0.581834 -1.058952 0.000000 -0.119735 -0.746243 0.000000 -0.202621 -0.713909 0.000000 -0.000000 -0.621904 0.000000 0.202621 -0.713909 0.000000 0.119735 -0.746243 0.000000 -0.581834 -1.058952 0.000000 -1.051016 -1.530700 0.000000 -0.860926 -0.774482 0.000000 -0.107114 0.470331 0.000000 0.093261 1.008293 0.000000 -0.013071 1.159702 0.000000 -0.255564 1.068866 0.000000 -0.326243 0.970586 0.000000 -0.452317 0.753738 0.000000 -0.450752 0.458615 0.000000 -0.441976 0.145851 0.000000 -0.336867 -0.200797 0.000000 -0.190724 -0.429405 0.000000 
0.000000 -0.735782 0.000000 0.192157 -0.602016 0.000000 0.340514 -0.330878 0.000000 0.452763 0.085485 0.000000 0.466441 0.447439 0.000000 0.481624 0.822624 0.000000 0.324671 1.076166 0.000000 0.240517 1.278047 0.000000 0.013546 1.366269 0.000000 -0.221179 0.756087 0.000000 0.234474 -0.203034 0.000000 0.444153 -0.724383 0.000000 -0.284086 -0.471344 0.000000 -0.575419 -0.164662 0.000000 -0.420701 -0.747379 0.000000 -0.164283 -1.451182 0.000000 0.000000 -1.538693 0.000000 0.164283 -1.451182 0.000000 0.420701 -0.747379 0.000000 0.575419 -0.164662 0.000000 0.284086 -0.471344 0.000000 -0.444153 -0.724383 0.000000 -0.234474 -0.203034 0.000000 0.221179 0.756087 0.000000 -0.013546 1.366269 0.000000 -0.240517 1.278047 0.000000 -0.324671 1.076166 0.000000 -0.481624 0.822624 0.000000 -0.466441 0.447439 0.000000 -0.452763 0.085485 0.000000 -0.340514 -0.330878 0.000000 -0.192157 -0.602016 0.000000 
0.000000 -0.925399 0.000000 0.170181 -0.769920 0.000000 0.309476 -0.461403 0.000000 0.419020 0.019924 0.000000 0.465687 0.429755 0.000000 0.513343 0.895507 0.000000 0.405864 1.211693 0.000000 0.440144 1.379991 0.000000 0.057037 1.621398 0.000000 -0.266366 0.787366 0.000000 0.405502 -0.195001 0.000000 0.276864 -0.255922 0.000000 0.491407 -0.511128 0.000000 0.944920 -0.922337 0.000000 1.150259 -1.157378 0.000000 0.736052 -1.134610 0.000000 0.000000 -0.950471 0.000000 -0.736052 -1.134610 0.000000 -1.150259 -1.157378 0.000000 -0.944920 -0.922337 0.000000 -0.491407 -0.511128 0.000000 -0.276864 -0.255922 0.000000 -0.405502 -0.195001 0.000000 0.266366 0.787366 0.000000 -0.057037 1.621398 0.000000 -0.440144 1.379991 0.000000 -0.405864 1.211693 0.000000 -0.513343 0.895507 0.000000 -0.465687 0.429755 0.000000 -0.419020 0.019924 0.000000 -0.309476 -0.461403 0.000000 -0.170181 -0.769920 0.000000 
0.000000 -1.076143 0.000000 0.116764 -0.911492 0.000000 0.223938 -0.579717 0.000000 0.326178 -0.070726 0.000000 0.404707 0.353116 0.000000 0.519994 0.882447 0.000000 0.412311 1.149364 0.000000 0.675162 1.626874 0.000000 -0.492101 2.072778 0.000000 0.284419 0.407621 0.000000 1.025553 -0.746264 0.000000 0.816240 -0.810287 0.000000 1.088868 -1.139400 0.000000 0.904189 -0.823514 0.000000 0.691000 -0.538511 0.000000 0.302973 -0.300923 0.000000 0.000000 -0.066589 0.000000 -0.302973 -0.300923 0.000000 -0.691000 -0.538511 0.000000 -0.904189 -0.823514 0.000000 -1.088868 -1.139400 0.000000 -0.816240 -0.810287 0.000000 -1.025553 -0.746264 0.000000 -0.284419 0.407621 0.000000 0.492101 2.072778 0.000000 -0.675162 1.626874 0.000000 -0.412311 1.149364 0.000000 -0.519994 0.882447 0.000000 -0.404707 0.353116 0.000000 -0.326178 -0.070726 0.000000 -0.223938 -0.579717 0.000000 -0.116764 -0.911492 0.000000 
0.000000 -1.158927 0.000000 0.017998 -0.993857 0.000000 0.063086 -0.670817 0.000000 0.123599 -0.160844 0.000000 0.255119 0.235939 0.000000 0.328785 0.887903 0.000000 0.458869 1.056525 0.000000 0.351104 2.284403 0.000000 -0.573629 2.012140 0.000000 1.282454 -0.730288 0.000000 0.998361 -0.726822 0.000000 0.699077 -0.319237 0.000000 0.415151 -0.599076 0.000000 0.090052 -0.524469 0.000000 0.049049 -0.556163 0.000000 -0.048577 -0.443610 0.000000 0.000000 -0.344524 0.000000 0.048577 -0.443610 0.000000 -0.049049 -0.556163 0.000000 -0.090052 -0.524469 0.000000 -0.415151 -0.599076 0.000000 -0.699077 -0.319237 0.000000 -0.998361 -0.726822 0.000000 -1.282454 -0.730288 0.000000 0.573629 2.012140 0.000000 -0.351104 2.284403 0.000000 -0.458869 1.056525 0.000000 -0.328785 0.887903 0.000000 -0.255119 0.235939 0.000000 -0.123599 -0.160844 0.000000 -0.063086 -0.670817 0.000000 -0.017998 -0.993857 0.000000 
-0.000000 -1.112139 0.000000 -0.123289 -0.974577 0.000000 -0.168723 -0.685319 0.000000 -0.185337 -0.262759 0.000000 0.024417 0.147929 0.000000 0.017610 0.678696 0.000000 0.618626 1.127046 0.000000 -0.350145 2.659372 0.000000 0.438792 1.141428 0.000000 1.362420 -1.164369 0.000000 0.463276 -0.162887 0.000000 0.577426 -0.227077 0.000000 0.352913 -0.530374 0.000000 0.287534 -0.457412 0.000000 0.178198 -0.399882 0.000000 0.059962 -0.251874 0.000000 0.000000 -0.163744 0.000000 -0.059962 -0.251874 0.000000 -0.178198 -0.399882 0.000000 -0.287534 -0.457412 0.000000 -0.352913 -0.530374 0.000000 -0.577426 -0.227077 0.000000 -0.463276 -0.162887 0.000000 -1.362420 -1.164369 0.000000 -0.438792 1.141428 0.000000 0.350145 2.659372 0.000000 -0.618626 1.127046 0.000000 -0.017610 0.678696 0.000000 -0.024417 0.147929 0.000000 0.185337 -0.262759 0.000000 0.168723 -0.685319 0.000000 0.123289 -0.974577 0.000000 
-0.000000 -0.912349 0.000000 -0.295356 -0.825135 0.000000 -0.492139 -0.608769 0.000000 -0.603903 -0.353984 0.000000 -0.488124 0.032992 0.000000 -0.429913 0.293694 0.000000 0.035216 1.424280 0.000000 -0.447643 2.464236 0.000000 1.329079 0.299576 0.000000 0.901621 -0.754772 0.000000 0.438367 0.058171 0.000000 0.571886 -0.208874 0.000000 0.356633 -0.309184 0.000000 0.247596 -0.349754 0.000000 0.120538 -0.328591 0.000000 0.030007 -0.265412 0.000000 0.000000 -0.224601 0.000000 -0.030007 -0.265412 0.000000 -0.120538 -0.328591 0.000000 -0.247596 -0.349754 0.000000 -0.356633 -0.309184 0.000000 -0.571886 -0.208874 0.000000 -0.438367 0.058171 0.000000 -0.901621 -0.754772 0.000000 -1.329079 0.299576 0.000000 0.447643 2.464236 0.000000 -0.035216 1.424280 0.000000 0.429913 0.293694 0.000000 0.488124 0.032992 0.000000 0.603903 -0.353984 0.000000 0.492139 -0.608769 0.000000 0.295356 -0.825135 0.000000 
-0.000000 -0.521428 0.000000 -0.456175 -0.482438 0.000000 -0.825135 -0.376771 0.000000 -1.064944 -0.266774 0.000000 -1.179118 -0.026061 0.000000 -1.031952 0.155356 0.000000 -0.885424 1.144775 0.000000 0.392328 1.365509 0.000000 1.578812 -0.207836 0.000000 0.691904 -0.273657 0.000000 0.824040 0.166848 0.000000 0.750075 -0.145343 0.000000 0.615166 -0.206084 0.000000 0.440891 -0.221318 0.000000 0.265412 -0.182293 0.000000 0.112300 -0.131336 0.000000 0.000000 -0.103730 0.000000 -0.112300 -0.131336 0.000000 -0.265412 -0.182293 0.000000 -0.440891 -0.221318 0.000000 -0.615166 -0.206084 0.000000 -0.750075 -0.145343 0.000000 -0.824040 0.166848 0.000000 -0.691904 -0.273657 0.000000 -1.578812 -0.207836 0.000000 -0.392328 1.365509 0.000000 0.885424 1.144775 0.000000 1.031952 0.155356 0.000000 1.179118 -0.026061 0.000000 1.064944 -0.266774 0.000000 0.825135 -0.376771 0.000000 0.456175 -0.482438 0.000000 
-0.000000 -0.000000 0.000000 -0.521428 -0.000000 0.000000 -0.964876 -0.000000 0.000000 -1.274970 -0.000000 0.000000 -1.498425 -0.000000 0.000000 -1.327092 -0.000000 0.000000 -1.187713 -0.000000 0.000000 0.962459 0.000000 0.000000 1.543306 0.000000 0.000000 0.546788 0.000000 0.000000 0.995992 0.000000 0.000000 0.880483 -0.000000 0.000000 0.705306 0.000000 0.000000 0.468316 0.000000 0.000000 0.262671 0.000000 0.000000 0.103730 0.000000 0.000000 -0.000000 0.000000 0.000000 -0.103730 -0.000000 0.000000 -0.262671 0.000000 0.000000 -0.468316 -0.000000 0.000000 -0.705306 0.000000 0.000000 -0.880483 0.000000 0.000000 -0.995992 0.000000 0.000000 -0.546788 0.000000 0.000000 -1.543306 0.000000 0.000000 -0.962459 -0.000000 0.000000 1.187713 -0.000000 0.000000 1.327092 0.000000 0.000000 1.498425 0.000000 0.000000 1.274970 0.000000 0.000000 0.964876 0.000000 0.000000 0.521428 -0.000000 0.000000 
0.000000 0.521428 0.000000 -0.456175 0.482438 0.000000 -0.825135 0.376771 0.000000 -1.064944 0.266774 0.000000 -1.179118 0.026061 0.000000 -1.031952 -0.155356 0.000000 -0.885424 -1.144775 0.000000 0.392328 -1.365509 0.000000 1.578812 0.207836 0.000000 0.691904 0.273657 0.000000 0.824040 -0.166848 0.000000 0.750075 0.145343 0.000000 0.615166 0.206084 0.000000 0.440891 0.221318 0.000000 0.265412 0.182293 0.000000 0.112300 0.131336 0.000000 -0.000000 0.103730 0.000000 -0.112300 0.131336 0.000000 -0.265412 0.182293 0.000000 -0.440891 0.221318 0.000000 -0.615166 0.206084 0.000000 -0.750075 0.145343 0.000000 -0.824040 -0.166848 0.000000 -0.691904 0.273657 0.000000 -1.578812 0.207836 0.000000 -0.392328 -1.365509 0.000000 0.885424 -1.144775 0.000000 1.031952 -0.155356 0.000000 1.179118 0.026061 0.000000 1.064944 0.266774 0.000000 0.825135 0.376771 0.000000 0.456175 0.482438 0.000000 
0.000000 0.912349 0.000000 -0.295356 0.825135 0.000000 -0.492139 0.608769 0.000000 -0.603903 0.353984 0.000000 -0.488124 -0.032992 0.000000 -0.429913 -0.293694 0.000000 0.035216 -1.424280 0.000000 -0.447643 -2.464236 0.000000 1.329079 -0.299576 0.000000 0.901621 0.754772 0.000000 0.438367 -0.058171 0.000000 0.571886 0.208874 0.000000 0.356633 0.309184 0.000000 0.247596 0.349754 0.000000 0.120538 0.328591 0.000000 0.030007 0.265412 0.000000 -0.000000 0.224601 0.000000 -0.030007 0.265412 0.000000 -0.120538 0.328591 0.000000 -0.247596 0.349754 0.000000 -0.356633 0.309184 0.000000 -0.571886 0.208874 0.000000 -0.438367 -0.058171 0.000000 -0.901621 0.754772 0.000000 -1.329079 -0.299576 0.000000 0.447643 -2.464236 0.000000 -0.035216 -1.424280 0.000000 0.429913 -0.293694 0.000000 0.488124 -0.032992 0.000000 0.603903 0.353984 0.000000 0.492139 0.608769 0.000000 0.295356 0.825135 0.000000 
0.000000 1.112139 0.000000 -0.123289 0.974577 0.000000 -0.168723 0.685319 0.000000 -0.185337 0.262759 0.000000 0.024417 -0.147929 0.000000 0.017610 -0.678696 0.000000 0.618626 -1.127046 0.000000 -0.350145 -2.659372 0.000000 0.438792 -1.141428 0.000000 1.362420 1.164369 0.000000 0.463276 0.162887 0.000000 0.577426 0.227077 0.000000 0.352913 0.530374 0.000000 0.287534 0.457412 0.000000 0.178198 0.399882 0.000000 0.059962 0.251874 0.000000 -0.000000 0.163744 0.000000 -0.059962 0.251874 0.000000 -0.178198 0.399882 0.000000 -0.287534 0.457412 0.000000 -0.352913 0.530374 0.000000 -0.577426 0.227077 0.000000 -0.463276 0.162887 0.000000 -1.362420 1.164369 0.000000 -0.438792 -1.141428 0.000000 0.350145 -2.659372 0.000000 -0.618626 -1.127046 0.000000 -0.017610 -0.678696 0.000000 -0.024417 -0.147929 0.000000 0.185337 0.262759 0.000000 0.168723 0.685319 0.000000 0.123289 0.974577 0.000000 
-0.000000 1.158927 0.000000 0.017998 0.993857 0.000000 0.063086 0.670817 0.000000 0.123599 0.160844 0.000000 0.255119 -0.235939 0.000000 0.328785 -0.887903 0.000000 0.458869 -1.056525 0.000000 0.351104 -2.284403 0.000000 -0.573629 -2.012140 0.000000 1.282454 0.730288 0.000000 0.998361 0.726822 0.000000 0.699077 0.319237 0.000000 0.415151 0.599076 0.000000 0.090052 0.524469 0.000000 0.049049 0.556163 0.000000 -0.048577 0.443610 0.000000 -0.000000 0.344524 0.000000 0.048577 0.443610 0.000000 -0.049049 0.556163 0.000000 -0.090052 0.524469 0.000000 -0.415151 0.599076 0.000000 -0.699077 0.319237 0.000000 -0.998361 0.726822 0.000000 -1.282454 0.730288 0.000000 0.573629 -2.012140 0.000000 -0.351104 -2.284403 0.000000 -0.458869 -1.056525 0.000000 -0.328785 -0.887903 0.000000 -0.255119 -0.235939 0.000000 -0.123599 0.160844 0.000000 -0.063086 0.670817 0.000000 -0.017998 0.993857 0.000000 
-0.000000 1.076143 0.000000 0.116764 0.911492 0.000000 0.223938 0.579717 0.000000 0.326178 0.070726 0.000000 0.404707 -0.353116 0.000000 0.519994 -0.882447 0.000000 0.412311 -1.149364 0.000000 0.675162 -1.626874 0.000000 -0.492101 -2.072778 0.000000 0.284419 -0.407621 0.000000 1.025553 0.746264 0.000000 0.816240 0.810287 0.000000 1.088868 1.139400 0.000000 0.904189 0.823514 0.000000 0.691000 0.538511 0.000000 0.302973 0.300923 0.000000 -0.000000 0.066589 0.000000 -0.302973 0.300923 0.000000 -0.691000 0.538511 0.000000 -0.904189 0.823514 0.000000 -1.088868 1.139400 0.000000 -0.816240 0.810287 0.000000 -1.025553 0.746264 0.000000 -0.284419 -0.407621 0.000000 0.492101 -2.072778 0.000000 -0.675162 -1.626874 0.000000 -0.412311 -1.149364 0.000000 -0.519994 -0.882447 0.000000 -0.404707 -0.353116 0.000000 -0.326178 0.070726 0.000000 -0.223938 0.579717 0.000000 -0.116764 0.911492 0.000000 
-0.000000 0.925399 0.000000 0.170181 0.769920 0.000000 0.309476 0.461403 0.000000 0.419020 -0.019924 0.000000 0.465687 -0.429755 0.000000 0.513343 -0.895507 0.000000 0.405864 -1.211693 0.000000 0.440144 -1.379991 0.000000 0.057037 -1.621398 0.000000 -0.266366 -0.787366 0.000000 0.405502 0.195001 0.000000 0.276864 0.255922 0.000000 0.491407 0.511128 0.000000 0.944920 0.922337 0.000000 1.150259 1.157378 0.000000 0.736052 1.134610 0.000000 -0.000000 0.950471 0.000000 -0.736052 1.134610 0.000000 -1.150259 1.157378 0.000000 -0.944920 0.922337 0.000000 -0.491407 0.511128 0.000000 -0.276864 0.255922 0.000000 -0.405502 0.195001 0.000000 0.266366 -0.787366 0.000000 -0.057037 -1.621398 0.000000 -0.440144 -1.379991 0.000000 -0.405864 -1.211693 0.000000 -0.513343 -0.895507 0.000000 -0.465687 -0.429755 0.000000 -0.419020 -0.019924 0.000000 -0.309476 0.461403 0.000000 -0.170181 0.769920 0.000000 
-0.000000 0.735782 0.000000 0.192157 0.602016 0.000000 0.340514 0.330878 0.000000 0.452763 -0.085485 0.000000 0.466441 -0.447439 0.000000 0.481624 -0.822624 0.000000 0.324671 -1.076166 0.000000 0.240517 -1.278047 0.000000 0.013546 -1.366269 0.000000 -0.221179 -0.756087 0.000000 0.234474 0.203034 0.000000 0.444153 0.724383 0.000000 -0.284086 0.471344 0.000000 -0.575419 0.164662 0.000000 -0.420701 0.747379 0.000000 -0.164283 1.451182 0.000000 0.000000 1.538693 0.000000 0.164283 1.451182 0.000000 0.420701 0.747379 0.000000 0.575419 0.164662 0.000000 0.284086 0.471344 0.000000 -0.444153 0.724383 0.000000 -0.234474 0.203034 0.000000 0.221179 -0.756087 0.000000 -0.013546 -1.366269 0.000000 -0.240517 -1.278047 0.000000 -0.324671 -1.076166 0.000000 -0.481624 -0.822624 0.000000 -0.466441 -0.447439 0.000000 -0.452763 -0.085485 0.000000 -0.340514 0.330878 0.000000 -0.192157 0.602016 0.000000 
-0.000000 0.541084 0.000000 0.190724 0.429405 0.000000 0.336867 0.200797 0.000000 0.441976 -0.145851 0.000000 0.450752 -0.458615 0.000000 0.452317 -0.753738 0.000000 0.326243 -0.970586 0.000000 0.255564 -1.068866 0.000000 0.013071 -1.159702 0.000000 -0.093261 -1.008293 0.000000 0.107114 -0.470331 0.000000 0.860926 0.774482 0.000000 1.051016 1.530700 0.000000 0.581834 1.058952 0.000000 -0.119735 0.746243 0.000000 -0.202621 0.713909 0.000000 0.000000 0.621904 0.000000 0.202621 0.713909 0.000000 0.119735 0.746243 0.000000 -0.581834 1.058952 0.000000 -1.051016 1.530700 0.000000 -0.860926 0.774482 0.000000 -0.107114 -0.470331 0.000000 0.093261 -1.008293 0.000000 -0.013071 -1.159702 0.000000 -0.255564 -1.068866 0.000000 -0.326243 -0.970586 0.000000 -0.452317 -0.753738 0.000000 -0.450752 -0.458615 0.000000 -0.441976 -0.145851 0.000000 -0.336867 0.200797 0.000000 -0.190724 0.429405 0.000000 
-0.000000 0.354334 0.000000 0.170669 0.265149 0.000000 0.298187 0.079626 0.000000 0.385695 -0.199370 0.000000 0.383092 -0.457779 0.000000 0.366643 -0.698115 0.000000 0.258740 -0.879413 0.000000 0.175627 -0.964875 0.000000 0.033655 -1.017444 0.000000 -0.121394 -0.850130 0.000000 -0.250121 -0.751153 0.000000 -0.069291 -0.219519 0.000000 0.601332 0.750436 0.000000 1.062855 1.335412 0.000000 0.934963 1.531835 0.000000 0.548017 1.331447 0.000000 -0.000000 1.133450 0.000000 -0.548017 1.331447 0.000000 -0.934963 1.531835 0.000000 -1.062855 1.335412 0.000000 -0.601332 0.750436 0.000000 0.069291 -0.219519 0.000000 0.250121 -0.751153 0.000000 0.121394 -0.850130 0.000000 -0.033655 -1.017444 0.000000 -0.175627 -0.964875 0.000000 -0.258740 -0.879413 0.000000 -0.366643 -0.698115 0.000000 -0.383092 -0.457779 0.000000 -0.385695 -0.199370 0.000000 -0.298187 0.079626 0.000000 -0.170669 0.265149 0.000000 
-0.000000 0.199746 0.000000 0.139490 0.131218 0.000000 0.241160 -0.014229 0.000000 0.306601 -0.230756 0.000000 0.296658 -0.439563 0.000000 0.273176 -0.629385 0.000000 0.182500 -0.779570 0.000000 0.112491 -0.843782 0.000000 0.002120 -0.862681 0.000000 -0.097345 -0.724517 0.000000 -0.154261 -0.522434 0.000000 -0.319190 -0.076971 0.000000 -0.165883 0.398553 0.000000 0.168274 0.725320 0.000000 0.421246 1.261081 0.000000 0.369774 1.648873 0.000000 -0.000000 1.717939 0.000000 -0.369774 1.648873 0.000000 -0.421246 1.261081 0.000000 -0.168274 0.725320 0.000000 0.165883 0.398553 0.000000 0.319190 -0.076971 0.000000 0.154261 -0.522434 0.000000 0.097345 -0.724517 0.000000 -0.002120 -0.862681 0.000000 -0.112491 -0.843782 0.000000 -0.182500 -0.779570 0.000000 -0.273176 -0.629385 0.000000 -0.296658 -0.439563 0.000000 -0.306601 -0.230756 0.000000 -0.241160 -0.014229 0.000000 -0.139490 0.131218 0.000000 
-0.000000 0.075355 0.000000 0.100240 0.023989 0.000000 0.168817 -0.087485 0.000000 0.206190 -0.254868 0.000000 0.183415 -0.424355 0.000000 0.145597 -0.583958 0.000000 0.062489 -0.718728 0.000000 -0.012011 -0.784494 0.000000 -0.099576 -0.807608 0.000000 -0.179400 -0.693749 0.000000 -0.219246 -0.529308 0.000000 -0.254280 -0.207897 0.000000 -0.118008 0.262972 0.000000 -0.016875 0.748283 0.000000 0.049929 1.330334 0.000000 0.091349 1.752694 0.000000 0.000000 1.872998 0.000000 -0.091349 1.752694 0.000000 -0.049929 1.330334 0.000000 0.016875 0.748283 0.000000 0.118008 0.262972 0.000000 0.254280 -0.207897 0.000000 0.219246 -0.529308 0.000000 0.179400 -0.693749 0.000000 0.099576 -0.807608 0.000000 0.012011 -0.784494 0.000000 -0.062489 -0.718728 0.000000 -0.145597 -0.583958 0.000000 -0.183415 -0.424355 0.000000 -0.206190 -0.254868 0.000000 -0.168817 -0.087485 0.000000 -0.100240 0.023989 0.000000 
0.000000 -0.000734 0.000000 0.059825 -0.037599 0.000000 0.094110 -0.120180 0.000000 0.102221 -0.245355 0.000000 0.061658 -0.378970 0.000000 0.004601 -0.508458 0.000000 -0.090106 -0.621961 0.000000 -0.185048 -0.681717 0.000000 -0.289533 -0.695292 0.000000 -0.390747 -0.604848 0.000000 -0.448575 -0.447553 0.000000 -0.514975 -0.178209 0.000000 -0.471192 0.161149 0.000000 -0.377173 0.557384 0.000000 -0.233119 1.152857 0.000000 -0.070003 1.698801 0.000000 0.000000 1.900636 0.000000 0.070003 1.698801 0.000000 0.233119 1.152857 0.000000 0.377173 0.557384 0.000000 0.471192 0.161149 0.000000 0.514975 -0.178209 0.000000 0.448575 -0.447553 0.000000 0.390747 -0.604848 0.000000 0.289533 -0.695292 0.000000 0.185048 -0.681717 0.000000 0.090106 -0.621961 0.000000 -0.004601 -0.508458 0.000000 -0.061658 -0.378970 0.000000 -0.102221 -0.245355 0.000000 -0.094110 -0.120180 0.000000 -0.059825 -0.037599 0.000000 
-0.000000 -0.044295 0.000000 0.023629 -0.070121 0.000000 0.026678 -0.129881 0.000000 0.006622 -0.222417 0.000000 -0.054404 -0.326735 0.000000 -0.136568 -0.432193 0.000000 -0.252958 -0.529078 0.000000 -0.379676 -0.585068 0.000000 -0.514005 -0.601909 0.000000 -0.642755 -0.534707 0.000000 -0.731674 -0.405080 0.000000 -0.796035 -0.185279 0.000000 -0.771449 0.125171 0.000000 -0.711540 0.510210 0.000000 -0.569785 1.023164 0.000000 -0.294214 1.519575 0.000000 0.000000 1.732992 0.000000 0.294214 1.519575 0.000000 0.569785 1.023164 0.000000 0.711540 0.510210 0.000000 0.771449 0.125171 0.000000 0.796035 -0.185279 0.000000 0.731674 -0.405080 0.000000 0.642755 -0.534707 0.000000 0.514005 -0.601909 0.000000 0.379676 -0.585068 0.000000 0.252958 -0.529078 0.000000 0.136568 -0.432193 0.000000 0.054404 -0.326735 0.000000 -0.006622 -0.222417 0.000000 -0.026678 -0.129881 0.000000 -0.023629 -0.070121 0.000000 
-0.000000 -0.047991 0.000000 -0.006287 -0.064277 0.000000 -0.030347 -0.103173 0.000000 -0.076747 -0.164272 0.000000 -0.162084 -0.235780 0.000000 -0.275231 -0.309905 0.000000 -0.426421 -0.378853 0.000000 -0.599023 -0.420670 0.000000 -0.783063 -0.432213 0.000000 -0.965944 -0.387179 0.000000 -1.106932 -0.294273 0.000000 -1.211706 -0.138433 0.000000 -1.218357 0.076654 0.000000 -1.133000 0.355719 0.000000 -0.909524 0.735530 0.000000 -0.510156 1.129017 0.000000 0.000000 1.312209 0.000000 0.510156 1.129017 0.000000 0.909524 0.735530 0.000000 1.133000 0.355719 0.000000 1.218357 0.076654 0.000000 1.211706 -0.138433 0.000000 1.106932 -0.294273 0.000000 0.965944 -0.387179 0.000000 0.783063 -0.432213 0.000000 0.599023 -0.420670 0.000000 0.426421 -0.378853 0.000000 0.275231 -0.309905 0.000000 0.162084 -0.235780 0.000000 0.076747 -0.164272 0.000000 0.030347 -0.103173 0.000000 0.006287 -0.064277 0.000000 
-0.000000 -0.031720 0.000000 -0.023996 -0.039774 0.000000 -0.064277 -0.059421 0.000000 -0.127168 -0.090679 0.000000 -0.228549 -0.128252 0.000000 -0.362949 -0.167857 0.000000 -0.538454 -0.205286 0.000000 -0.741802 -0.228425 0.000000 -0.959124 -0.234987 0.000000 -1.174015 -0.210838 0.000000 -1.346303 -0.159318 0.000000 -1.468288 -0.073855 0.000000 -1.484736 0.046464 0.000000 -1.391634 0.201377 0.000000 -1.129017 0.400320 0.000000 -0.656104 0.610051 0.000000 0.000000 0.712681 0.000000 0.656104 0.610051 0.000000 1.129017 0.400320 0.000000 1.391634 0.201377 0.000000 1.484736 0.046464 0.000000 1.468288 -0.073855 0.000000 1.346303 -0.159318 0.000000 1.174015 -0.210838 0.000000 0.959124 -0.234987 0.000000 0.741802 -0.228425 0.000000 0.538454 -0.205286 0.000000 0.362949 -0.167857 0.000000 0.228549 -0.128252 0.000000 0.127168 -0.090679 0.000000 0.064277 -0.059421 0.000000 0.023996 -0.039774 0.000000 
