# vtk DataFile Version 2.0
Comment goes here
ASCII

DATASET STRUCTURED_POINTS
FIELD FieldData 1
TIME 1 1 double
1.30000000
DIMENSIONS    32   32   1

ORIGIN    0.000   0.000   0.000
SPACING   0.03125 0.03125   1.000

POINT_DATA   1024
VECTORS u double

-0.000000 -0.000000 0.000000 0.031967 -0.000000 0.000000 0.048534 -0.000000 0.000000 0.031725 -0.000000 0.000000 -0.020212 -0.000000 0.000000 -0.118642 -0.000000 0.000000 -0.250113 -0.000000 0.000000 -0.416269 -0.000000 0.000000 -0.591033 -0.000000 0.000000 -0.766520 0.000000 0.000000 -0.912490 0.000000 0.000000 -1.012964 0.000000 0.000000 -1.043083 0.000000 0.000000 -0.969977 0.000000 0.000000 -0.783347 0.000000 0.000000 -0.433417 0.000000 0.000000 0.000000 0.000000 0.000000 0.433417 -0.000000 0.000000 0.783347 -0.000000 0.000000 0.969977 -0.000000 0.000000 1.043083 -0.000000 0.000000 1.012964 -0.000000 0.000000 0.912490 -0.000000 0.000000 0.766520 -0.000000 0.000000 0.591033 -0.000000 0.000000 0.416269 -0.000000 0.000000 0.250113 0.000000 0.000000 0.118642 0.000000 0.000000 0.020212 0.000000 0.000000 -0.031725 0.000000 0.000000 -0.048534 -0.000000 0.000000 -0.031967 -0.000000 0.000000 
-0.000000 -0.031967 0.000000 0.038468 -0.024267 0.000000 0.061546 0.000121 0.000000 0.051719 0.034373 0.000000 0.007164 0.075183 0.000000 -0.081803 0.114951 0.000000 -0.203836 0.148813 0.000000 -0.356803 0.170460 0.000000 -0.521537 0.175126 0.000000 -0.682431 0.160729 0.000000 -0.822136 0.123222 0.000000 -0.913482 0.065297 0.000000 -0.945781 -0.021493 0.000000 -0.881815 -0.129868 0.000000 -0.712025 -0.268280 0.000000 -0.394740 -0.391674 0.000000 0.000000 -0.433417 0.000000 0.394740 -0.391674 0.000000 0.712025 -0.268280 0.000000 0.881815 -0.129868 0.000000 0.945781 -0.021493 0.000000 0.913482 0.065297 0.000000 0.822136 0.123222 0.000000 0.682431 0.160729 0.000000 0.521537 0.175126 0.000000 0.356803 0.170460 0.000000 0.203836 0.148813 0.000000 0.081803 0.114951 0.000000 -0.007164 0.075183 0.000000 -0.051719 0.034373 0.000000 -0.061546 0.000121 0.000000 -0.038468 -0.024267 0.000000 
-0.000000 -0.076936 0.000000 0.060974 -0.061546 0.000000 0.106456 -0.013250 0.000000 0.118771 0.054382 0.000000 0.098195 0.133522 0.000000 0.033947 0.211000 0.000000 -0.058417 0.275001 0.000000 -0.183407 0.317701 0.000000 -0.314524 0.325627 0.000000 -0.451261 0.300599 0.000000 -0.564777 0.231051 0.000000 -0.651184 0.123645 0.000000 -0.690639 -0.031667 0.000000 -0.667662 -0.233757 0.000000 -0.570339 -0.487075 0.000000 -0.317915 -0.712025 0.000000 -0.000000 -0.789480 0.000000 0.317915 -0.712025 0.000000 0.570339 -0.487075 0.000000 0.667662 -0.233757 0.000000 0.690639 -0.031667 0.000000 0.651184 0.123645 0.000000 0.564777 0.231051 0.000000 0.451261 0.300599 0.000000 0.314524 0.325627 0.000000 0.183407 0.317701 0.000000 0.058417 0.275001 0.000000 -0.033947 0.211000 0.000000 -0.098195 0.133522 0.000000 -0.118771 0.054382 0.000000 -0.106456 -0.013250 0.000000 -0.060974 -0.061546 0.000000 
-0.000000 -0.153915 0.000000 0.090534 -0.130722 0.000000 0.165219 -0.057676 0.000000 0.205943 0.042633 0.000000 0.215385 0.160008 0.000000 0.183213 0.271563 0.000000 0.126916 0.366168 0.000000 0.041814 0.426566 0.000000 -0.050490 0.442979 0.000000 -0.145503 0.410982 0.000000 -0.232588 0.323145 0.000000 -0.294143 0.191158 0.000000 -0.339721 -0.005016 0.000000 -0.355987 -0.250168 0.000000 -0.330128 -0.618027 0.000000 -0.187433 -0.962012 0.000000 -0.000000 -1.069246 0.000000 0.187433 -0.962012 0.000000 0.330128 -0.618027 0.000000 0.355987 -0.250168 0.000000 0.339721 -0.005016 0.000000 0.294143 0.191158 0.000000 0.232588 0.323145 0.000000 0.145503 0.410982 0.000000 0.050490 0.442979 0.000000 -0.041814 0.426566 0.000000 -0.126916 0.366168 0.000000 -0.183213 0.271563 0.000000 -0.215385 0.160008 0.000000 -0.205943 0.042633 0.000000 -0.165219 -0.057676 0.000000 -0.090534 -0.130722 0.000000 
-0.000000 -0.258005 0.000000 0.126847 -0.226765 0.000000 0.236502 -0.128659 0.000000 0.311141 0.004215 0.000000 0.354351 0.156251 0.000000 0.356972 0.299469 0.000000 0.340573 0.416400 0.000000 0.294503 0.495107 0.000000 0.248755 0.512944 0.000000 0.186519 0.482697 0.000000 0.136831 0.379691 0.000000 0.078410 0.230778 0.000000 0.029603 0.030177 0.000000 -0.063593 -0.243350 0.000000 -0.166673 -0.655629 0.000000 -0.094520 -1.042152 0.000000 -0.000000 -1.164346 0.000000 0.094520 -1.042152 0.000000 0.166673 -0.655629 0.000000 0.063593 -0.243350 0.000000 -0.029603 0.030177 0.000000 -0.078410 0.230778 0.000000 -0.136831 0.379691 0.000000 -0.186519 0.482697 0.000000 -0.248755 0.512944 0.000000 -0.294503 0.495107 0.000000 -0.340573 0.416400 0.000000 -0.356972 0.299469 0.000000 -0.354351 0.156251 0.000000 -0.311141 0.004215 0.000000 -0.236502 -0.128659 0.000000 -0.126847 -0.226765 0.000000 
-0.000000 -0.407608 0.000000 0.157769 -0.367225 0.000000 0.297384 -0.241971 0.000000 0.399174 -0.075216 0.000000 0.470603 0.114177 0.000000 0.499243 0.285342 0.000000 0.515236 0.428636 0.000000 0.500555 0.518384 0.000000 0.489133 0.550963 0.000000 0.462966 0.522906 0.000000 0.423266 0.431255 0.000000 0.400045 0.298387 0.000000 0.358926 0.136987 0.000000 0.284431 -0.053892 0.000000 0.201430 -0.587100 0.000000 0.132620 -1.128685 0.000000 0.000000 -1.258287 0.000000 -0.132620 -1.128685 0.000000 -0.201430 -0.587100 0.000000 -0.284431 -0.053892 0.000000 -0.358926 0.136987 0.000000 -0.400045 0.298387 0.000000 -0.423266 0.431255 0.000000 -0.462966 0.522906 0.000000 -0.489133 0.550963 0.000000 -0.500555 0.518384 0.000000 -0.515236 0.428636 0.000000 -0.499243 0.285342 0.000000 -0.470603 0.114177 0.000000 -0.399174 -0.075216 0.000000 -0.297384 -0.241971 0.000000 -0.157769 -0.367225 0.000000 
-0.000000 -0.573542 0.000000 0.183528 -0.524149 0.000000 0.346311 -0.370065 0.000000 0.472072 -0.169004 0.000000 0.564070 0.056182 0.000000 0.617022 0.254836 0.000000 0.658330 0.415088 0.000000 0.672100 0.521210 0.000000 0.699335 0.550533 0.000000 0.703079 0.548565 0.000000 0.715310 0.442612 0.000000 0.727775 0.295118 0.000000 0.747745 0.145791 0.000000 0.528645 -0.085854 0.000000 0.273596 -0.503817 0.000000 0.207209 -0.840722 0.000000 0.000000 -0.899107 0.000000 -0.207209 -0.840722 0.000000 -0.273596 -0.503817 0.000000 -0.528645 -0.085854 0.000000 -0.747745 0.145791 0.000000 -0.727775 0.295118 0.000000 -0.715310 0.442612 0.000000 -0.703079 0.548565 0.000000 -0.699335 0.550533 0.000000 -0.672100 0.521210 0.000000 -0.658330 0.415088 0.000000 -0.617022 0.254836 0.000000 -0.564070 0.056182 0.000000 -0.472072 -0.169004 0.000000 -0.346311 -0.370065 0.000000 -0.183528 -0.524149 0.000000 
-0.000000 -0.774664 0.000000 0.191890 -0.713535 0.000000 0.362167 -0.530515 0.000000 0.494288 -0.292975 0.000000 0.595601 -0.030773 0.000000 0.654900 0.191082 0.000000 0.717309 0.373559 0.000000 0.740715 0.477379 0.000000 0.804942 0.519984 0.000000 0.831758 0.506932 0.000000 0.806016 0.406559 0.000000 0.920567 0.265951 0.000000 0.879970 0.336118 0.000000 1.017850 0.420256 0.000000 1.338291 -0.265665 0.000000 0.902021 -0.855089 0.000000 0.000000 -0.843868 0.000000 -0.902021 -0.855089 0.000000 -1.338291 -0.265665 0.000000 -1.017850 0.420256 0.000000 -0.879970 0.336118 0.000000 -0.920567 0.265951 0.000000 -0.806016 0.406559 0.000000 -0.831758 0.506932 0.000000 -0.804942 0.519984 0.000000 -0.740715 0.477379 0.000000 -0.717309 0.373559 0.000000 -0.654900 0.191082 0.000000 -0.595601 -0.030773 0.000000 -0.494288 -0.292975 0.000000 -0.362167 -0.530515 0.000000 -0.191890 -0.713535 0.000000 
0.000000 -0.957323 0.000000 0.186007 -0.886316 0.000000 0.347767 -0.672462 0.000000 0.478723 -0.402438 0.000000 0.572660 -0.104430 0.000000 0.640373 0.133128 0.000000 0.704524 0.329273 0.000000 0.746737 0.433577 0.000000 0.834171 0.459490 0.000000 0.879342 0.547491 0.000000 0.882953 0.353803 0.000000 1.326572 0.221164 0.000000 1.477439 0.048509 0.000000 1.890713 -0.544176 0.000000 1.704674 -0.387988 0.000000 0.676348 0.497569 0.000000 0.000000 0.904935 0.000000 -0.676348 0.497569 0.000000 -1.704674 -0.387988 0.000000 -1.890713 -0.544176 0.000000 -1.477439 0.048509 0.000000 -1.326572 0.221164 0.000000 -0.882953 0.353803 0.000000 -0.879342 0.547491 0.000000 -0.834171 0.459490 0.000000 -0.746737 0.433577 0.000000 -0.704524 0.329273 0.000000 -0.640373 0.133128 0.000000 -0.572660 -0.104430 0.000000 -0.478723 -0.402438 0.000000 -0.347767 -0.672462 0.000000 -0.186007 -0.886316 0.000000 
0.000000 -1.146679 0.000000 0.155373 -1.061302 0.000000 0.287525 -0.823231 0.000000 0.395781 -0.517868 0.000000 0.468818 -0.192422 0.000000 0.521102 0.059217 0.000000 0.592140 0.267194 0.000000 0.618989 0.347732 0.000000 0.822235 0.387379 0.000000 0.795178 0.458150 0.000000 0.937213 -0.040672 0.000000 0.988117 -0.328534 0.000000 0.803227 -0.228023 0.000000 0.318365 0.193021 0.000000 -0.508209 0.948701 0.000000 -0.519421 0.849584 0.000000 -0.000000 0.508827 0.000000 0.519421 0.849584 0.000000 0.508209 0.948701 0.000000 -0.318365 0.193021 0.000000 -0.803227 -0.228023 0.000000 -0.988117 -0.328534 0.000000 -0.937213 -0.040672 0.000000 -0.795178 0.458150 0.000000 -0.822235 0.387379 0.000000 -0.618989 0.347732 0.000000 -0.592140 0.267194 0.000000 -0.521102 0.059217 0.000000 -0.468818 -0.192422 0.000000 -0.395781 -0.517868 0.000000 -0.287525 -0.823231 0.000000 -0.155373 -1.061302 0.000000 
0.000000 -1.268069 0.000000 0.106026 -1.173841 0.000000 0.192449 -0.912870 0.000000 0.273531 -0.583731 0.000000 0.312841 -0.229750 0.000000 0.363354 0.009805 0.000000 0.401705 0.231386 0.000000 0.442053 0.203482 0.000000 0.564115 0.283301 0.000000 0.059512 0.432513 0.000000 0.254518 0.160864 0.000000 -0.068238 0.355151 0.000000 -0.476407 0.718260 0.000000 -0.617046 0.767260 0.000000 -0.305526 0.449797 0.000000 0.216793 -0.010640 0.000000 -0.000000 -0.133906 0.000000 -0.216793 -0.010640 0.000000 0.305526 0.449797 0.000000 0.617046 0.767260 0.000000 0.476407 0.718260 0.000000 0.068238 0.355151 0.000000 -0.254518 0.160864 0.000000 -0.059512 0.432513 0.000000 -0.564115 0.283301 0.000000 -0.442053 0.203482 0.000000 -0.401705 0.231386 0.000000 -0.363354 0.009805 0.000000 -0.312841 -0.229750 0.000000 -0.273531 -0.583731 0.000000 -0.192449 -0.912870 0.000000 -0.106026 -1.173841 0.000000 
0.000000 -1.358730 0.000000 0.029992 -1.253751 0.000000 0.048892 -0.990736 0.000000 0.086688 -0.638261 0.000000 0.074614 -0.282246 0.000000 0.103421 -0.029647 0.000000 0.037268 0.188496 0.000000 0.021589 0.185322 0.000000 -0.108876 0.769919 0.000000 -0.684569 0.767746 0.000000 -0.281294 0.087078 0.000000 -0.342625 0.402392 0.000000 -0.327378 0.320786 0.000000 0.117776 0.022140 0.000000 0.348770 0.114861 0.000000 0.361404 0.544058 0.000000 -0.000000 0.942413 0.000000 -0.361404 0.544058 0.000000 -0.348770 0.114861 0.000000 -0.117776 0.022140 0.000000 0.327378 0.320786 0.000000 0.342625 0.402392 0.000000 0.281294 0.087078 0.000000 0.684569 0.767746 0.000000 0.108876 0.769919 0.000000 -0.021589 0.185322 0.000000 -0.037268 0.188496 0.000000 -0.103421 -0.029647 0.000000 -0.074614 -0.282246 0.000000 -0.086688 -0.638261 0.000000 -0.048892 -0.990736 0.000000 -0.029992 -1.253751 0.000000 
0.000000 -1.328052 0.000000 -0.067806 -1.222733 0.000000 -0.126938 -0.969567 0.000000 -0.137733 -0.609453 0.000000 -0.175378 -0.246484 0.000000 -0.116367 0.047152 0.000000 -0.232853 0.313218 0.000000 -0.080085 0.349626 0.000000 -0.713962 0.989459 0.000000 -0.837720 0.604931 0.000000 0.096203 -0.181080 0.000000 -0.259476 0.401235 0.000000 -0.268752 0.257859 0.000000 -0.238803 0.091112 0.000000 -0.246904 0.206169 0.000000 -0.222518 0.338130 0.000000 0.000000 0.588902 0.000000 0.222518 0.338130 0.000000 0.246904 0.206169 0.000000 0.238803 0.091112 0.000000 0.268752 0.257859 0.000000 0.259476 0.401235 0.000000 -0.096203 -0.181080 0.000000 0.837720 0.604931 0.000000 0.713962 0.989459 0.000000 0.080085 0.349626 0.000000 0.232853 0.313218 0.000000 0.116367 0.047152 0.000000 0.175378 -0.246484 0.000000 0.137733 -0.609453 0.000000 0.126938 -0.969567 0.000000 0.067806 -1.222733 0.000000 
0.000000 -1.223119 0.000000 -0.190120 -1.126812 0.000000 -0.350344 -0.920809 0.000000 -0.429048 -0.589821 0.000000 -0.498680 -0.303611 0.000000 -0.418946 0.027828 0.000000 -0.566665 0.152214 0.000000 -0.268627 0.666430 0.000000 -1.143362 1.527555 0.000000 -0.337076 -0.042419 0.000000 0.289369 -0.491167 0.000000 -0.517947 0.767346 0.000000 -0.222985 0.300113 0.000000 -0.326148 0.000293 0.000000 -0.186099 0.098576 0.000000 -0.174947 0.297154 0.000000 0.000000 0.497378 0.000000 0.174947 0.297154 0.000000 0.186099 0.098576 0.000000 0.326148 0.000293 0.000000 0.222985 0.300113 0.000000 0.517947 0.767346 0.000000 -0.289369 -0.491167 0.000000 0.337076 -0.042419 0.000000 1.143362 1.527555 0.000000 0.268627 0.666430 0.000000 0.566665 0.152214 0.000000 0.418946 0.027828 0.000000 0.498680 -0.303611 0.000000 0.429048 -0.589821 0.000000 0.350344 -0.920809 0.000000 0.190120 -1.126812 0.000000 
0.000000 -0.947811 0.000000 -0.341350 -0.872390 0.000000 -0.626388 -0.730639 0.000000 -0.841438 -0.461116 0.000000 -0.950324 -0.256586 0.000000 -1.018097 0.115137 0.000000 -1.027664 0.162900 0.000000 -1.052478 0.926323 0.000000 -0.938149 1.057909 0.000000 0.145991 -0.827801 0.000000 -0.535961 -0.000210 0.000000 -0.731701 0.913589 0.000000 -0.257433 0.066060 0.000000 -0.324286 0.054227 0.000000 -0.234285 0.054968 0.000000 -0.198769 0.152031 0.000000 0.000000 0.239008 0.000000 0.198769 0.152031 0.000000 0.234285 0.054968 0.000000 0.324286 0.054227 0.000000 0.257433 0.066060 0.000000 0.731701 0.913589 0.000000 0.535961 -0.000210 0.000000 -0.145991 -0.827801 0.000000 0.938149 1.057909 0.000000 1.052478 0.926323 0.000000 1.027664 0.162900 0.000000 1.018097 0.115137 0.000000 0.950324 -0.256586 0.000000 0.841438 -0.461116 0.000000 0.626388 -0.730639 0.000000 0.341350 -0.872390 0.000000 
0.000000 -0.540419 0.000000 -0.473906 -0.500424 0.000000 -0.872390 -0.420721 0.000000 -1.204545 -0.265885 0.000000 -1.333506 -0.126953 0.000000 -1.461131 0.105169 0.000000 -1.218369 0.186595 0.000000 -1.298231 0.576915 0.000000 -0.292046 0.329086 0.000000 -0.240322 -0.444607 0.000000 -1.119846 0.386525 0.000000 -0.240532 0.488818 0.000000 -0.206258 -0.107302 0.000000 -0.174472 -0.022855 0.000000 -0.152031 -0.026941 0.000000 -0.119504 0.062869 0.000000 0.000000 0.099840 0.000000 0.119504 0.062869 0.000000 0.152031 -0.026941 0.000000 0.174472 -0.022855 0.000000 0.206258 -0.107302 0.000000 0.240532 0.488818 0.000000 1.119846 0.386525 0.000000 0.240322 -0.444607 0.000000 0.292046 0.329086 0.000000 1.298231 0.576915 0.000000 1.218369 0.186595 0.000000 1.461131 0.105169 0.000000 1.333506 -0.126953 0.000000 1.204545 -0.265885 0.000000 0.872390 -0.420721 0.000000 0.473906 -0.500424 0.000000 
0.000000 0.000000 0.000000 -0.540419 0.000000 0.000000 -1.000848 0.000000 0.000000 -1.381861 -0.000000 0.000000 -1.532618 -0.000000 0.000000 -1.635766 -0.000000 0.000000 -1.322281 -0.000000 0.000000 -1.262577 0.000000 0.000000 -0.168451 0.000000 0.000000 -0.604404 -0.000000 0.000000 -1.057664 0.000000 0.000000 0.168646 0.000000 0.000000 -0.080029 0.000000 0.000000 -0.045958 0.000000 0.000000 -0.125739 0.000000 0.000000 -0.099840 0.000000 0.000000 -0.000000 -0.000000 0.000000 0.099840 -0.000000 0.000000 0.125739 -0.000000 0.000000 0.045958 -0.000000 0.000000 0.080029 -0.000000 0.000000 -0.168646 -0.000000 0.000000 1.057664 0.000000 0.000000 0.604404 0.000000 0.000000 0.168451 -0.000000 0.000000 1.262577 -0.000000 0.000000 1.322281 -0.000000 0.000000 1.635766 -0.000000 0.000000 1.532618 0.000000 0.000000 1.381861 0.000000 0.000000 1.000848 0.000000 0.000000 0.540419 0.000000 0.000000 
-0.000000 0.540419 0.000000 -0.473906 0.500424 0.000000 -0.872390 0.420721 0.000000 -1.204545 0.265885 0.000000 -1.333506 0.126953 0.000000 -1.461131 -0.105169 0.000000 -1.218369 -0.186595 0.000000 -1.298231 -0.576915 0.000000 -0.292046 -0.329086 0.000000 -0.240322 0.444607 0.000000 -1.119846 -0.386525 0.000000 -0.240532 -0.488818 0.000000 -0.206258 0.107302 0.000000 -0.174472 0.022855 0.000000 -0.152031 0.026941 0.000000 -0.119504 -0.062869 0.000000 -0.000000 -0.099840 0.000000 0.119504 -0.062869 0.000000 0.152031 0.026941 0.000000 0.174472 0.022855 0.000000 0.206258 0.107302 0.000000 0.240532 -0.488818 0.000000 1.119846 -0.386525 0.000000 0.240322 0.444607 0.000000 0.292046 -0.329086 0.000000 1.298231 -0.576915 0.000000 1.218369 -0.186595 0.000000 1.461131 -0.105169 0.000000 1.333506 0.126953 0.000000 1.204545 0.265885 0.000000 0.872390 0.420721 0.000000 0.473906 0.500424 0.000000 
-0.000000 0.947811 0.000000 -0.341350 0.872390 0.000000 -0.626388 0.730639 0.000000 -0.841438 0.461116 0.000000 -0.950324 0.256586 0.000000 -1.018097 -0.115137 0.000000 -1.027664 -0.162900 0.000000 -1.052478 -0.926323 0.000000 -0.938149 -1.057909 0.000000 0.145991 0.827801 0.000000 -0.535961 0.000210 0.000000 -0.731701 -0.913589 0.000000 -0.257433 -0.066060 0.000000 -0.324286 -0.054227 0.000000 -0.234285 -0.054968 0.000000 -0.198769 -0.152031 0.000000 -0.000000 -0.239008 0.000000 0.198769 -0.152031 0.000000 0.234285 -0.054968 0.000000 0.324286 -0.054227 0.000000 0.257433 -0.066060 0.000000 0.731701 -0.913589 0.000000 0.535961 0.000210 0.000000 -0.145991 0.827801 0.000000 0.938149 -1.057909 0.000000 1.052478 -0.926323 0.000000 1.027664 -0.162900 0.000000 1.018097 -0.115137 0.000000 0.950324 0.256586 0.000000 0.841438 0.461116 0.000000 0.626388 0.730639 0.000000 0.341350 0.872390 0.000000 
-0.000000 1.223119 0.000000 -0.190120 1.126812 0.000000 -0.350344 0.920809 0.000000 -0.429048 0.589821 0.000000 -0.498680 0.303611 0.000000 -0.418946 -0.027828 0.000000 -0.566665 -0.152214 0.000000 -0.268627 -0.666430 0.000000 -1.143362 -1.527555 0.000000 -0.337076 0.042419 0.000000 0.289369 0.491167 0.000000 -0.517947 -0.767346 0.000000 -0.222985 -0.300113 0.000000 -0.326148 -0.000293 0.000000 -0.186099 -0.098576 0.000000 -0.174947 -0.297154 0.000000 -0.000000 -0.497378 0.000000 0.174947 -0.297154 0.000000 0.186099 -0.098576 0.000000 0.326148 -0.000293 0.000000 0.222985 -0.300113 0.000000 0.517947 -0.767346 0.000000 -0.289369 0.491167 0.000000 0.337076 0.042419 0.000000 1.143362 -1.527555 0.000000 0.268627 -0.666430 0.000000 0.566665 -0.152214 0.000000 0.418946 -0.027828 0.000000 0.498680 0.303611 0.000000 0.429048 0.589821 0.000000 0.350344 0.920809 0.000000 0.190120 1.126812 0.000000 
-0.000000 1.328052 0.000000 -0.067806 1.222733 0.000000 -0.126938 0.969567 0.000000 -0.137733 0.609453 0.000000 -0.175378 0.246484 0.000000 -0.116367 -0.047152 0.000000 -0.232853 -0.313218 0.000000 -0.080085 -0.349626 0.000000 -0.713962 -0.989459 0.000000 -0.837720 -0.604931 0.000000 0.096203 0.181080 0.000000 -0.259476 -0.401235 0.000000 -0.268752 -0.257859 0.000000 -0.238803 -0.091112 0.000000 -0.246904 -0.206169 0.000000 -0.222518 -0.338130 0.000000 0.000000 -0.588902 0.000000 0.222518 -0.338130 0.000000 0.246904 -0.206169 0.000000 0.238803 -0.091112 0.000000 0.268752 -0.257859 0.000000 0.259476 -0.401235 0.000000 -0.096203 0.181080 0.000000 0.837720 -0.604931 0.000000 0.713962 -0.989459 0.000000 0.080085 -0.349626 0.000000 0.232853 -0.313218 0.000000 0.116367 -0.047152 0.000000 0.175378 0.246484 0.000000 0.137733 0.609453 0.000000 0.126938 0.969567 0.000000 0.067806 1.222733 0.000000 
-0.000000 1.358730 0.000000 0.029992 1.253751 0.000000 0.048892 0.990736 0.000000 0.086688 0.638261 0.000000 0.074614 0.282246 0.000000 0.103421 0.029647 0.000000 0.037268 -0.188496 0.000000 0.021589 -0.185322 0.000000 -0.108876 -0.769919 0.000000 -0.684569 -0.767746 0.000000 -0.281294 -0.087078 0.000000 -0.342625 -0.402392 0.000000 -0.327378 -0.320786 0.000000 0.117776 -0.022140 0.000000 0.348770 -0.114861 0.000000 0.361404 -0.544058 0.000000 0.000000 -0.942413 0.000000 -0.361404 -0.544058 0.000000 -0.348770 -0.114861 0.000000 -0.117776 -0.022140 0.000000 0.327378 -0.320786 0.000000 0.342625 -0.402392 0.000000 0.281294 -0.087078 0.000000 0.684569 -0.767746 0.000000 0.108876 -0.769919 0.000000 -0.021589 -0.185322 0.000000 -0.037268 -0.188496 0.000000 -0.103421 0.029647 0.000000 -0.074614 0.282246 0.000000 -0.086688 0.638261 0.000000 -0.048892 0.990736 0.000000 -0.029992 1.253751 0.000000 
-0.000000 1.268069 0.000000 0.106026 1.173841 0.000000 0.192449 0.912870 0.000000 0.273531 0.583731 0.000000 0.312841 0.229750 0.000000 0.363354 -0.009805 0.000000 0.401705 -0.231386 0.000000 0.442053 -0.203482 0.000000 0.564115 -0.283301 0.000000 0.059512 -0.432513 0.000000 0.254518 -0.160864 0.000000 -0.068238 -0.355151 0.000000 -0.476407 -0.718260 0.000000 -0.617046 -0.767260 0.000000 -0.305526 -0.449797 0.000000 0.216793 0.010640 0.000000 0.000000 0.133906 0.000000 -0.216793 0.010640 0.000000 0.305526 -0.449797 0.000000 0.617046 -0.767260 0.000000 0.476407 -0.718260 0.000000 0.068238 -0.355151 0.000000 -0.254518 -0.160864 0.000000 -0.059512 -0.432513 0.000000 -0.564115 -0.283301 0.000000 -0.442053 -0.203482 0.000000 -0.401705 -0.231386 0.000000 -0.363354 -0.009805 0.000000 -0.312841 0.229750 0.000000 -0.273531 0.583731 0.000000 -0.192449 0.912870 0.000000 -0.106026 1.173841 0.000000 
-0.000000 1.146679 0.000000 0.155373 1.061302 0.000000 0.287525 0.823231 0.000000 0.395781 0.517868 0.000000 0.468818 0.192422 0.000000 0.521102 -0.059217 0.000000 0.592140 -0.267194 0.000000 0.618989 -0.347732 0.000000 0.822235 -0.387379 0.000000 0.795178 -0.458150 0.000000 0.937213 0.040672 0.000000 0.988117 0.328534 0.000000 0.803227 0.228023 0.000000 0.318365 -0.193021 0.000000 -0.508209 -0.948701 0.000000 -0.519421 -0.849584 0.000000 0.000000 -0.508827 0.000000 0.519421 -0.849584 0.000000 0.508209 -0.948701 0.000000 -0.318365 -0.193021 0.000000 -0.803227 0.228023 0.000000 -0.988117 0.328534 0.000000 -0.937213 0.040672 0.000000 -0.795178 -0.458150 0.000000 -0.822235 -0.387379 0.000000 -0.618989 -0.347732 0.000000 -0.592140 -0.267194 0.000000 -0.521102 -0.059217 0.000000 -0.468818 0.192422 0.000000 -0.395781 0.517868 0.000000 -0.287525 0.823231 0.000000 -0.155373 1.061302 0.000000 
-0.000000 0.957323 0.000000 0.186007 0.886316 0.000000 0.347767 0.672462 0.000000 0.478723 0.402438 0.000000 0.572660 0.104430 0.000000 0.640373 -0.133128 0.000000 0.704524 -0.329273 0.000000 0.746737 -0.433577 0.000000 0.834171 -0.459490 0.000000 0.879342 -0.547491 0.000000 0.882953 -0.353803 0.000000 1.326572 -0.221164 0.000000 1.477439 -0.048509 0.000000 1.890713 0.544176 0.000000 1.704674 0.387988 0.000000 0.676348 -0.497569 0.000000 -0.000000 -0.904935 0.000000 -0.676348 -0.497569 0.000000 -1.704674 0.387988 0.000000 -1.890713 0.544176 0.000000 -1.477439 -0.048509 0.000000 -1.326572 -0.221164 0.000000 -0.882953 -0.353803 0.000000 -0.879342 -0.547491 0.000000 -0.834171 -0.459490 0.000000 -0.746737 -0.433577 0.000000 -0.704524 -0.329273 0.000000 -0.640373 -0.133128 0.000000 -0.572660 0.104430 0.000000 -0.478723 0.402438 0.000000 -0.347767 0.672462 0.000000 -0.186007 0.886316 0.000000 
-0.000000 0.774664 0.000000 0.191890 0.713535 0.000000 0.362167 0.530515 0.000000 0.494288 0.292975 0.000000 0.595601 0.030773 0.000000 0.654900 -0.191082 0.000000 0.717309 -0.373559 0.000000 0.740715 -0.477379 0.000000 0.804942 -0.519984 0.000000 0.831758 -0.506932 0.000000 0.806016 -0.406559 0.000000 0.920567 -0.265951 0.000000 0.879970 -0.336118 0.000000 1.017850 -0.420256 0.000000 1.338291 0.265665 0.000000 0.902021 0.855089 0.000000 -0.000000 0.843868 0.000000 -0.902021 0.855089 0.000000 -1.338291 0.265665 0.000000 -1.017850 -0.420256 0.000000 -0.879970 -0.336118 0.000000 -0.920567 -0.265951 0.000000 -0.806016 -0.406559 0.000000 -0.831758 -0.506932 0.000000 -0.804942 -0.519984 0.000000 -0.740715 -0.477379 0.000000 -0.717309 -0.373559 0.000000 -0.654900 -0.191082 0.000000 -0.595601 0.030773 0.000000 -0.494288 0.292975 0.000000 -0.362167 0.530515 0.000000 -0.191890 0.713535 0.000000 
-0.000000 0.573542 0.000000 0.183528 0.524149 0.000000 0.346311 0.370065 0.000000 0.472072 0.169004 0.000000 0.564070 -0.056182 0.000000 0.617022 -0.254836 0.000000 0.658330 -0.415088 0.000000 0.672100 -0.521210 0.000000 0.699335 -0.550533 0.000000 0.703079 -0.548565 0.000000 0.715310 -0.442612 0.000000 0.727775 -0.295118 0.000000 0.747745 -0.145791 0.000000 0.528645 0.085854 0.000000 0.273596 0.503817 0.000000 0.207209 0.840722 0.000000 -0.000000 0.899107 0.000000 -0.207209 0.840722 0.000000 -0.273596 0.503817 0.000000 -0.528645 0.085854 0.000000 -0.747745 -0.145791 0.000000 -0.727775 -0.295118 0.000000 -0.715310 -0.442612 0.000000 -0.703079 -0.548565 0.000000 -0.699335 -0.550533 0.000000 -0.672100 -0.521210 0.000000 -0.658330 -0.415088 0.000000 -0.617022 -0.254836 0.000000 -0.564070 -0.056182 0.000000 -0.472072 0.169004 0.000000 -0.346311 0.370065 0.000000 -0.183528 0.524149 0.000000 
0.000000 0.407608 0.000000 0.157769 0.367225 0.000000 0.297384 0.241971 0.000000 0.399174 0.075216 0.000000 0.470603 -0.114177 0.000000 0.499243 -0.285342 0.000000 0.515236 -0.428636 0.000000 0.500555 -0.518384 0.000000 0.489133 -0.550963 0.000000 0.462966 -0.522906 0.000000 0.423266 -0.431255 0.000000 0.400045 -0.298387 0.000000 0.358926 -0.136987 0.000000 0.284431 0.053892 0.000000 0.201430 0.587100 0.000000 0.132620 1.128685 0.000000 -0.000000 1.258287 0.000000 -0.132620 1.128685 0.000000 -0.201430 0.587100 0.000000 -0.284431 0.053892 0.000000 -0.358926 -0.136987 0.000000 -0.400045 -0.298387 0.000000 -0.423266 -0.431255 0.000000 -0.462966 -0.522906 0.000000 -0.489133 -0.550963 0.000000 -0.500555 -0.518384 0.000000 -0.515236 -0.428636 0.000000 -0.499243 -0.285342 0.000000 -0.470603 -0.114177 0.000000 -0.399174 0.075216 0.000000 -0.297384 0.241971 0.000000 -0.157769 0.367225 0.000000 
0.000000 0.258005 0.000000 0.126847 0.226765 0.000000 0.236502 0.128659 0.000000 0.311141 -0.004215 0.000000 0.354351 -0.156251 0.000000 0.356972 -0.299469 0.000000 0.340573 -0.416400 0.000000 0.294503 -0.495107 0.000000 0.248755 -0.512944 0.000000 0.186519 -0.482697 0.000000 0.136831 -0.379691 0.000000 0.078410 -0.230778 0.000000 0.029603 -0.030177 0.000000 -0.063593 0.243350 0.000000 -0.166673 0.655629 0.000000 -0.094520 1.042152 0.000000 0.000000 1.164346 0.000000 0.094520 1.042152 0.000000 0.166673 0.655629 0.000000 0.063593 0.243350 0.000000 -0.029603 -0.030177 0.000000 -0.078410 -0.230778 0.000000 -0.136831 -0.379691 0.000000 -0.186519 -0.482697 0.000000 -0.248755 -0.512944 0.000000 -0.294503 -0.495107 0.000000 -0.340573 -0.416400 0.000000 -0.356972 -0.299469 0.000000 -0.354351 -0.156251 0.000000 -0.311141 -0.004215 0.000000 -0.236502 0.128659 0.000000 -0.126847 0.226765 0.000000 
-0.000000 0.153915 0.000000 0.090534 0.130722 0.000000 0.165219 0.057676 0.000000 0.205943 -0.042633 0.000000 0.215385 -0.160008 0.000000 0.183213 -0.271563 0.000000 0.126916 -0.366168 0.000000 0.041814 -0.426566 0.000000 -0.050490 -0.442979 0.000000 -0.145503 -0.410982 0.000000 -0.232588 -0.323145 0.000000 -0.294143 -0.191158 0.000000 -0.339721 0.005016 0.000000 -0.355987 0.250168 0.000000 -0.330128 0.618027 0.000000 -0.187433 0.962012 0.000000 0.000000 1.069246 0.000000 0.187433 0.962012 0.000000 0.330128 0.618027 0.000000 0.355987 0.250168 0.000000 0.339721 0.005016 0.000000 0.294143 -0.191158 0.000000 0.232588 -0.323145 0.000000 0.145503 -0.410982 0.000000 0.050490 -0.442979 0.000000 -0.041814 -0.426566 0.000000 -0.126916 -0.366168 0.000000 -0.183213 -0.271563 0.000000 -0.215385 -0.160008 0.000000 -0.205943 -0.042633 0.000000 -0.165219 0.057676 0.000000 -0.090534 0.130722 0.000000 
-0.000000 0.076936 0.000000 0.060974 0.061546 0.000000 0.106456 0.013250 0.000000 0.118771 -0.054382 0.000000 0.098195 -0.133522 0.000000 0.033947 -0.211000 0.000000 -0.058417 -0.275001 0.000000 -0.183407 -0.317701 0.000000 -0.314524 -0.325627 0.000000 -0.451261 -0.300599 0.000000 -0.564777 -0.231051 0.000000 -0.651184 -0.123645 0.000000 -0.690639 0.031667 0.000000 -0.667662 0.233757 0.000000 -0.570339 0.487075 0.000000 -0.317915 0.712025 0.000000 0.000000 0.789480 0.000000 0.317915 0.712025 0.000000 0.570339 0.487075 0.000000 0.667662 0.233757 0.000000 0.690639 0.031667 0.000000 0.651184 -0.123645 0.000000 0.564777 -0.231051 0.000000 0.451261 -0.300599 0.000000 0.314524 -0.325627 0.000000 0.183407 -0.317701 0.000000 0.058417 -0.275001 0.000000 -0.033947 -0.211000 0.000000 -0.098195 -0.133522 0.000000 -0.118771 -0.054382 0.000000 -0.106456 0.013250 0.000000 -0.060974 0.061546 0.000000 
-0.000000 0.031967 0.000000 0.038468 0.024267 0.000000 0.061546 -0.000121 0.000000 0.051719 -0.034373 0.000000 0.007164 -0.075183 0.000000 -0.081803 -0.114951 0.000000 -0.203836 -0.148813 0.000000 -0.356803 -0.170460 0.000000 -0.521537 -0.175126 0.000000 -0.682431 -0.160729 0.000000 -0.822136 -0.123222 0.000000 -0.913482 -0.065297 0.000000 -0.945781 0.021493 0.000000 -0.881815 0.129868 0.000000 -0.712025 0.268280 0.000000 -0.394740 0.391674 0.000000 0.000000 0.433417 0.000000 0.394740 0.391674 0.000000 0.712025 0.268280 0.000000 0.881815 0.129868 0.000000 0.945781 0.021493 0.000000 0.913482 -0.065297 0.000000 0.822136 -0.123222 0.000000 0.682431 -0.160729 0.000000 0.521537 -0.175126 0.000000 0.356803 -0.170460 0.000000 0.203836 -0.148813 0.000000 0.081803 -0.114951 0.000000 -0.007164 -0.075183 0.000000 -0.051719 -0.034373 0.000000 -0.061546 -0.000121 0.000000 -0.038468 0.024267 0.000000 
