# vtk DataFile Version 2.0
Comment goes here
ASCII

DATASET STRUCTURED_POINTS
FIELD FieldData 1
TIME 1 1 double
1.24000000
DIMENSIONS    32   32   1

ORIGIN    0.000   0.000   0.000
SPACING   0.03125 0.03125   1.000

POINT_DATA   1024
VECTORS u double

-0.000000 -0.000000 0.000000 -0.001584 -0.000000 0.000000 -0.015883 -0.000000 0.000000 -0.069636 -0.000000 0.000000 -0.149891 -0.000000 0.000000 -0.287968 -0.000000 0.000000 -0.443908 -0.000000 0.000000 -0.647498 -0.000000 0.000000 -0.837382 0.000000 0.000000 -1.037992 0.000000 0.000000 -1.179447 0.000000 0.000000 -1.280440 0.000000 0.000000 -1.276873 0.000000 0.000000 -1.178221 0.000000 0.000000 -0.929763 0.000000 0.000000 -0.528792 0.000000 0.000000 0.000000 0.000000 0.000000 0.528792 -0.000000 0.000000 0.929763 -0.000000 0.000000 1.178221 -0.000000 0.000000 1.276873 -0.000000 0.000000 1.280440 -0.000000 0.000000 1.179447 -0.000000 0.000000 1.037992 -0.000000 0.000000 0.837382 -0.000000 0.000000 0.647498 -0.000000 0.000000 0.443908 -0.000000 0.000000 0.287968 0.000000 0.000000 0.149891 -0.000000 0.000000 0.069636 -0.000000 0.000000 0.015883 -0.000000 0.000000 0.001584 -0.000000 0.000000 
-0.000000 0.001584 0.000000 0.006819 0.007942 0.000000 0.000827 0.034026 0.000000 -0.043874 0.067004 0.000000 -0.114709 0.109166 0.000000 -0.240902 0.147008 0.000000 -0.384480 0.179765 0.000000 -0.571990 0.196737 0.000000 -0.746869 0.195247 0.000000 -0.929455 0.171033 0.000000 -1.057728 0.121224 0.000000 -1.148658 0.048713 0.000000 -1.145213 -0.051110 0.000000 -1.060444 -0.173555 0.000000 -0.841404 -0.324715 0.000000 -0.478509 -0.464881 0.000000 0.000000 -0.528792 0.000000 0.478509 -0.464881 0.000000 0.841404 -0.324715 0.000000 1.060444 -0.173555 0.000000 1.145213 -0.051110 0.000000 1.148658 0.048713 0.000000 1.057728 0.121224 0.000000 0.929455 0.171033 0.000000 0.746869 0.195247 0.000000 0.571990 0.196737 0.000000 0.384480 0.179765 0.000000 0.240902 0.147008 0.000000 0.114709 0.109166 0.000000 0.043874 0.067004 0.000000 -0.000827 0.034026 0.000000 -0.006819 0.007942 0.000000 
-0.000000 -0.013638 0.000000 0.028038 -0.000827 0.000000 0.043056 0.050693 0.000000 0.018662 0.115536 0.000000 -0.029954 0.197029 0.000000 -0.133726 0.269771 0.000000 -0.250003 0.331087 0.000000 -0.412022 0.362389 0.000000 -0.556723 0.357466 0.000000 -0.716174 0.310859 0.000000 -0.821770 0.219202 0.000000 -0.904992 0.087485 0.000000 -0.906939 -0.088214 0.000000 -0.852612 -0.303809 0.000000 -0.686114 -0.581935 0.000000 -0.381702 -0.841404 0.000000 -0.000000 -0.957018 0.000000 0.381702 -0.841404 0.000000 0.686114 -0.581935 0.000000 0.852612 -0.303809 0.000000 0.906939 -0.088214 0.000000 0.904992 0.087485 0.000000 0.821770 0.219202 0.000000 0.716174 0.310859 0.000000 0.556723 0.357466 0.000000 0.412022 0.362389 0.000000 0.250003 0.331087 0.000000 0.133726 0.269771 0.000000 0.029954 0.197029 0.000000 -0.018662 0.115536 0.000000 -0.043056 0.050693 0.000000 -0.028038 -0.000827 0.000000 
-0.000000 -0.054493 0.000000 0.060435 -0.035115 0.000000 0.107058 0.043403 0.000000 0.113565 0.140014 0.000000 0.096983 0.261554 0.000000 0.027800 0.367057 0.000000 -0.049837 0.458061 0.000000 -0.169272 0.503457 0.000000 -0.270951 0.499400 0.000000 -0.385748 0.436080 0.000000 -0.454323 0.310042 0.000000 -0.508782 0.133881 0.000000 -0.496486 -0.103489 0.000000 -0.475914 -0.394380 0.000000 -0.396088 -0.795625 0.000000 -0.206811 -1.150995 0.000000 -0.000000 -1.292195 0.000000 0.206811 -1.150995 0.000000 0.396088 -0.795625 0.000000 0.475914 -0.394380 0.000000 0.496486 -0.103489 0.000000 0.508782 0.133881 0.000000 0.454323 0.310042 0.000000 0.385748 0.436080 0.000000 0.270951 0.499400 0.000000 0.169272 0.503457 0.000000 0.049837 0.458061 0.000000 -0.027800 0.367057 0.000000 -0.096983 0.261554 0.000000 -0.113565 0.140014 0.000000 -0.107058 0.043403 0.000000 -0.060435 -0.035115 0.000000 
-0.000000 -0.134509 0.000000 0.097519 -0.107885 0.000000 0.179579 -0.002436 0.000000 0.219026 0.125611 0.000000 0.235009 0.282793 0.000000 0.196794 0.416590 0.000000 0.155370 0.528159 0.000000 0.067567 0.583504 0.000000 0.003686 0.573942 0.000000 -0.088540 0.494231 0.000000 -0.133004 0.342236 0.000000 -0.187067 0.129648 0.000000 -0.179670 -0.121082 0.000000 -0.203648 -0.404208 0.000000 -0.179104 -0.851037 0.000000 -0.048101 -1.237492 0.000000 0.000000 -1.370640 0.000000 0.048101 -1.237492 0.000000 0.179104 -0.851037 0.000000 0.203648 -0.404208 0.000000 0.179670 -0.121082 0.000000 0.187067 0.129648 0.000000 0.133004 0.342236 0.000000 0.088540 0.494231 0.000000 -0.003686 0.573942 0.000000 -0.067567 0.583504 0.000000 -0.155370 0.528159 0.000000 -0.196794 0.416590 0.000000 -0.235009 0.282793 0.000000 -0.219026 0.125611 0.000000 -0.179579 -0.002436 0.000000 -0.097519 -0.107885 0.000000 
-0.000000 -0.249531 0.000000 0.133356 -0.214694 0.000000 0.249784 -0.078104 0.000000 0.320013 0.084584 0.000000 0.366239 0.283786 0.000000 0.355169 0.446697 0.000000 0.344861 0.587287 0.000000 0.287146 0.655140 0.000000 0.252850 0.655507 0.000000 0.191489 0.572771 0.000000 0.159418 0.408569 0.000000 0.125785 0.180547 0.000000 0.201605 -0.086908 0.000000 0.194332 -0.394946 0.000000 0.161205 -0.951172 0.000000 0.171525 -1.330099 0.000000 0.000000 -1.388396 0.000000 -0.171525 -1.330099 0.000000 -0.161205 -0.951172 0.000000 -0.194332 -0.394946 0.000000 -0.201605 -0.086908 0.000000 -0.125785 0.180547 0.000000 -0.159418 0.408569 0.000000 -0.191489 0.572771 0.000000 -0.252850 0.655507 0.000000 -0.287146 0.655140 0.000000 -0.344861 0.587287 0.000000 -0.355169 0.446697 0.000000 -0.366239 0.283786 0.000000 -0.320013 0.084584 0.000000 -0.249784 -0.078104 0.000000 -0.133356 -0.214694 0.000000 
-0.000000 -0.401221 0.000000 0.163627 -0.357668 0.000000 0.308212 -0.189093 0.000000 0.404928 0.009156 0.000000 0.474645 0.247637 0.000000 0.484365 0.437969 0.000000 0.496438 0.596183 0.000000 0.452442 0.675514 0.000000 0.440668 0.669599 0.000000 0.376235 0.587662 0.000000 0.353026 0.407940 0.000000 0.290472 0.087461 0.000000 0.331855 -0.189629 0.000000 0.334043 -0.363808 0.000000 0.369236 -0.828230 0.000000 0.376716 -1.076286 0.000000 0.000000 -1.027591 0.000000 -0.376716 -1.076286 0.000000 -0.369236 -0.828230 0.000000 -0.334043 -0.363808 0.000000 -0.331855 -0.189629 0.000000 -0.290472 0.087461 0.000000 -0.353026 0.407940 0.000000 -0.376235 0.587662 0.000000 -0.440668 0.669599 0.000000 -0.452442 0.675514 0.000000 -0.496438 0.596183 0.000000 -0.484365 0.437969 0.000000 -0.474645 0.247637 0.000000 -0.404928 0.009156 0.000000 -0.308212 -0.189093 0.000000 -0.163627 -0.357668 0.000000 
-0.000000 -0.576786 0.000000 0.179173 -0.522905 0.000000 0.339467 -0.319405 0.000000 0.448466 -0.081850 0.000000 0.533509 0.204349 0.000000 0.551265 0.424904 0.000000 0.581070 0.619210 0.000000 0.541720 0.710910 0.000000 0.544512 0.731713 0.000000 0.496816 0.660413 0.000000 0.411385 0.494331 0.000000 0.474784 0.201718 0.000000 0.720293 -0.130480 0.000000 1.413692 -0.432327 0.000000 1.317699 -0.993845 0.000000 0.731804 -0.960863 0.000000 0.000000 -0.634964 0.000000 -0.731804 -0.960863 0.000000 -1.317699 -0.993845 0.000000 -1.413692 -0.432327 0.000000 -0.720293 -0.130480 0.000000 -0.474784 0.201718 0.000000 -0.411385 0.494331 0.000000 -0.496816 0.660413 0.000000 -0.544512 0.731713 0.000000 -0.541720 0.710910 0.000000 -0.581070 0.619210 0.000000 -0.551265 0.424904 0.000000 -0.533509 0.204349 0.000000 -0.448466 -0.081850 0.000000 -0.339467 -0.319405 0.000000 -0.179173 -0.522905 0.000000 
0.000000 -0.759568 0.000000 0.181826 -0.697136 0.000000 0.344090 -0.458386 0.000000 0.459880 -0.184885 0.000000 0.549764 0.144838 0.000000 0.580746 0.390408 0.000000 0.621625 0.605727 0.000000 0.590263 0.712072 0.000000 0.612020 0.714503 0.000000 0.564320 0.720789 0.000000 0.612474 0.429972 0.000000 1.075587 -0.221447 0.000000 1.195558 -1.128537 0.000000 1.412611 -0.961214 0.000000 0.522364 -0.146341 0.000000 0.014401 0.241413 0.000000 0.000000 0.436016 0.000000 -0.014401 0.241413 0.000000 -0.522364 -0.146341 0.000000 -1.412611 -0.961214 0.000000 -1.195558 -1.128537 0.000000 -1.075587 -0.221447 0.000000 -0.612474 0.429972 0.000000 -0.564320 0.720789 0.000000 -0.612020 0.714503 0.000000 -0.590263 0.712072 0.000000 -0.621625 0.605727 0.000000 -0.580746 0.390408 0.000000 -0.549764 0.144838 0.000000 -0.459880 -0.184885 0.000000 -0.344090 -0.458386 0.000000 -0.181826 -0.697136 0.000000 
0.000000 -0.940439 0.000000 0.161295 -0.866995 0.000000 0.306210 -0.597458 0.000000 0.406500 -0.287524 0.000000 0.490646 0.083483 0.000000 0.510180 0.353042 0.000000 0.567957 0.609693 0.000000 0.509949 0.720516 0.000000 0.625767 0.757657 0.000000 0.606080 0.659958 0.000000 0.617836 -0.016936 0.000000 0.554925 -0.381366 0.000000 0.220655 -0.467503 0.000000 -0.727630 0.240867 0.000000 -1.143135 0.404364 0.000000 -0.532162 -0.438499 0.000000 -0.000000 -0.606161 0.000000 0.532162 -0.438499 0.000000 1.143135 0.404364 0.000000 0.727630 0.240867 0.000000 -0.220655 -0.467503 0.000000 -0.554925 -0.381366 0.000000 -0.617836 -0.016936 0.000000 -0.606080 0.659958 0.000000 -0.625767 0.757657 0.000000 -0.509949 0.720516 0.000000 -0.567957 0.609693 0.000000 -0.510180 0.353042 0.000000 -0.490646 0.083483 0.000000 -0.406500 -0.287524 0.000000 -0.306210 -0.597458 0.000000 -0.161295 -0.866995 0.000000 
0.000000 -1.082158 0.000000 0.124235 -1.003346 0.000000 0.235083 -0.703591 0.000000 0.320603 -0.369321 0.000000 0.389307 0.041159 0.000000 0.425606 0.313097 0.000000 0.480835 0.605958 0.000000 0.435816 0.654261 0.000000 0.528933 0.618372 0.000000 0.175639 0.728721 0.000000 0.012704 0.481126 0.000000 -0.052357 0.175734 0.000000 0.022556 0.154018 0.000000 -0.050349 0.402576 0.000000 0.483209 -0.341810 0.000000 0.558532 -0.901722 0.000000 -0.000000 -0.628308 0.000000 -0.558532 -0.901722 0.000000 -0.483209 -0.341810 0.000000 0.050349 0.402576 0.000000 -0.022556 0.154018 0.000000 0.052357 0.175734 0.000000 -0.012704 0.481126 0.000000 -0.175639 0.728721 0.000000 -0.528933 0.618372 0.000000 -0.435816 0.654261 0.000000 -0.480835 0.605958 0.000000 -0.425606 0.313097 0.000000 -0.389307 0.041159 0.000000 -0.320603 -0.369321 0.000000 -0.235083 -0.703591 0.000000 -0.124235 -1.003346 0.000000 
0.000000 -1.188909 0.000000 0.059650 -1.102078 0.000000 0.113790 -0.793826 0.000000 0.167051 -0.441748 0.000000 0.209396 -0.021520 0.000000 0.232318 0.261515 0.000000 0.244249 0.599483 0.000000 0.074327 0.672418 0.000000 0.101327 1.017833 0.000000 -0.684833 1.176187 0.000000 -0.125414 0.211060 0.000000 0.340070 -0.391218 0.000000 0.125191 -0.469511 0.000000 0.471443 -0.219786 0.000000 0.753943 -0.204517 0.000000 0.354567 0.044710 0.000000 0.000000 0.510903 0.000000 -0.354567 0.044710 0.000000 -0.753943 -0.204517 0.000000 -0.471443 -0.219786 0.000000 -0.125191 -0.469511 0.000000 -0.340070 -0.391218 0.000000 0.125414 0.211060 0.000000 0.684833 1.176187 0.000000 -0.101327 1.017833 0.000000 -0.074327 0.672418 0.000000 -0.244249 0.599483 0.000000 -0.232318 0.261515 0.000000 -0.209396 -0.021520 0.000000 -0.167051 -0.441748 0.000000 -0.113790 -0.793826 0.000000 -0.059650 -1.102078 0.000000 
0.000000 -1.201458 0.000000 -0.031647 -1.117137 0.000000 -0.054333 -0.810992 0.000000 -0.033097 -0.464927 0.000000 -0.008238 -0.024108 0.000000 0.073850 0.278244 0.000000 0.063862 0.763949 0.000000 0.138117 0.797184 0.000000 -0.098608 1.377533 0.000000 -0.558086 0.955462 0.000000 0.589436 -0.543777 0.000000 0.332270 -0.074871 0.000000 -0.053111 0.022645 0.000000 -0.043867 -0.226176 0.000000 -0.054826 -0.224934 0.000000 -0.160958 -0.147779 0.000000 0.000000 0.080825 0.000000 0.160958 -0.147779 0.000000 0.054826 -0.224934 0.000000 0.043867 -0.226176 0.000000 0.053111 0.022645 0.000000 -0.332270 -0.074871 0.000000 -0.589436 -0.543777 0.000000 0.558086 0.955462 0.000000 0.098608 1.377533 0.000000 -0.138117 0.797184 0.000000 -0.063862 0.763949 0.000000 -0.073850 0.278244 0.000000 0.008238 -0.024108 0.000000 0.033097 -0.464927 0.000000 0.054333 -0.810992 0.000000 0.031647 -1.117137 0.000000 
0.000000 -1.125614 0.000000 -0.151279 -1.047745 0.000000 -0.277523 -0.792376 0.000000 -0.295888 -0.487844 0.000000 -0.299920 -0.128468 0.000000 -0.106014 0.189415 0.000000 -0.139085 0.535217 0.000000 0.336505 0.834888 0.000000 -0.545188 1.714036 0.000000 0.035774 0.488144 0.000000 0.583999 -0.679296 0.000000 -0.050283 0.251328 0.000000 0.167774 -0.093374 0.000000 0.044611 -0.218071 0.000000 0.059097 -0.087426 0.000000 -0.049738 -0.010116 0.000000 0.000000 0.188986 0.000000 0.049738 -0.010116 0.000000 -0.059097 -0.087426 0.000000 -0.044611 -0.218071 0.000000 -0.167774 -0.093374 0.000000 0.050283 0.251328 0.000000 -0.583999 -0.679296 0.000000 -0.035774 0.488144 0.000000 0.545188 1.714036 0.000000 -0.336505 0.834888 0.000000 0.139085 0.535217 0.000000 0.106014 0.189415 0.000000 0.299920 -0.128468 0.000000 0.295888 -0.487844 0.000000 0.277523 -0.792376 0.000000 0.151279 -1.047745 0.000000 
0.000000 -0.898901 0.000000 -0.307413 -0.839614 0.000000 -0.568516 -0.666383 0.000000 -0.705853 -0.442530 0.000000 -0.779305 -0.213981 0.000000 -0.675561 0.117409 0.000000 -0.650578 0.321429 0.000000 -0.341048 1.203287 0.000000 -0.699087 1.678264 0.000000 0.563477 -0.173726 0.000000 0.091879 -0.457720 0.000000 -0.171181 0.341355 0.000000 0.054559 -0.072248 0.000000 -0.106537 -0.117500 0.000000 -0.039739 -0.130585 0.000000 -0.096063 -0.088682 0.000000 0.000000 -0.018651 0.000000 0.096063 -0.088682 0.000000 0.039739 -0.130585 0.000000 0.106537 -0.117500 0.000000 -0.054559 -0.072248 0.000000 0.171181 0.341355 0.000000 -0.091879 -0.457720 0.000000 -0.563477 -0.173726 0.000000 0.699087 1.678264 0.000000 0.341048 1.203287 0.000000 0.650578 0.321429 0.000000 0.675561 0.117409 0.000000 0.779305 -0.213981 0.000000 0.705853 -0.442530 0.000000 0.568516 -0.666383 0.000000 0.307413 -0.839614 0.000000 
0.000000 -0.510788 0.000000 -0.449450 -0.479229 0.000000 -0.839614 -0.393936 0.000000 -1.115833 -0.277054 0.000000 -1.282144 -0.158760 0.000000 -1.329814 0.060688 0.000000 -1.164735 0.200704 0.000000 -1.008386 0.883396 0.000000 0.038552 0.809511 0.000000 0.669879 -0.302822 0.000000 -0.135173 0.055362 0.000000 0.212159 0.288649 0.000000 0.206181 -0.158018 0.000000 0.139910 -0.123773 0.000000 0.088682 -0.097900 0.000000 0.009325 -0.049855 0.000000 -0.000000 -0.003140 0.000000 -0.009325 -0.049855 0.000000 -0.088682 -0.097900 0.000000 -0.139910 -0.123773 0.000000 -0.206181 -0.158018 0.000000 -0.212159 0.288649 0.000000 0.135173 0.055362 0.000000 -0.669879 -0.302822 0.000000 -0.038552 0.809511 0.000000 1.008386 0.883396 0.000000 1.164735 0.200704 0.000000 1.329814 0.060688 0.000000 1.282144 -0.158760 0.000000 1.115833 -0.277054 0.000000 0.839614 -0.393936 0.000000 0.449450 -0.479229 0.000000 
0.000000 0.000000 0.000000 -0.510788 0.000000 0.000000 -0.958459 0.000000 0.000000 -1.298660 -0.000000 0.000000 -1.512567 -0.000000 0.000000 -1.616180 0.000000 0.000000 -1.391191 0.000000 0.000000 -1.214772 0.000000 0.000000 0.375601 0.000000 0.000000 0.404250 -0.000000 0.000000 -0.230043 -0.000000 0.000000 0.514975 0.000000 0.000000 0.347255 0.000000 0.000000 0.198939 0.000000 0.000000 0.099709 0.000000 0.000000 0.003140 0.000000 0.000000 -0.000000 -0.000000 0.000000 -0.003140 -0.000000 0.000000 -0.099709 -0.000000 0.000000 -0.198939 -0.000000 0.000000 -0.347255 -0.000000 0.000000 -0.514975 0.000000 0.000000 0.230043 0.000000 0.000000 -0.404250 0.000000 0.000000 -0.375601 -0.000000 0.000000 1.214772 -0.000000 0.000000 1.391191 -0.000000 0.000000 1.616180 -0.000000 0.000000 1.512567 0.000000 0.000000 1.298660 0.000000 0.000000 0.958459 0.000000 0.000000 0.510788 0.000000 0.000000 
-0.000000 0.510788 0.000000 -0.449450 0.479229 0.000000 -0.839614 0.393936 0.000000 -1.115833 0.277054 0.000000 -1.282144 0.158760 0.000000 -1.329814 -0.060688 0.000000 -1.164735 -0.200704 0.000000 -1.008386 -0.883396 0.000000 0.038552 -0.809511 0.000000 0.669879 0.302822 0.000000 -0.135173 -0.055362 0.000000 0.212159 -0.288649 0.000000 0.206181 0.158018 0.000000 0.139910 0.123773 0.000000 0.088682 0.097900 0.000000 0.009325 0.049855 0.000000 -0.000000 0.003140 0.000000 -0.009325 0.049855 0.000000 -0.088682 0.097900 0.000000 -0.139910 0.123773 0.000000 -0.206181 0.158018 0.000000 -0.212159 -0.288649 0.000000 0.135173 -0.055362 0.000000 -0.669879 0.302822 0.000000 -0.038552 -0.809511 0.000000 1.008386 -0.883396 0.000000 1.164735 -0.200704 0.000000 1.329814 -0.060688 0.000000 1.282144 0.158760 0.000000 1.115833 0.277054 0.000000 0.839614 0.393936 0.000000 0.449450 0.479229 0.000000 
-0.000000 0.898901 0.000000 -0.307413 0.839614 0.000000 -0.568516 0.666383 0.000000 -0.705853 0.442530 0.000000 -0.779305 0.213981 0.000000 -0.675561 -0.117409 0.000000 -0.650578 -0.321429 0.000000 -0.341048 -1.203287 0.000000 -0.699087 -1.678264 0.000000 0.563477 0.173726 0.000000 0.091879 0.457720 0.000000 -0.171181 -0.341355 0.000000 0.054559 0.072248 0.000000 -0.106537 0.117500 0.000000 -0.039739 0.130585 0.000000 -0.096063 0.088682 0.000000 -0.000000 0.018651 0.000000 0.096063 0.088682 0.000000 0.039739 0.130585 0.000000 0.106537 0.117500 0.000000 -0.054559 0.072248 0.000000 0.171181 -0.341355 0.000000 -0.091879 0.457720 0.000000 -0.563477 0.173726 0.000000 0.699087 -1.678264 0.000000 0.341048 -1.203287 0.000000 0.650578 -0.321429 0.000000 0.675561 -0.117409 0.000000 0.779305 0.213981 0.000000 0.705853 0.442530 0.000000 0.568516 0.666383 0.000000 0.307413 0.839614 0.000000 
-0.000000 1.125614 0.000000 -0.151279 1.047745 0.000000 -0.277523 0.792376 0.000000 -0.295888 0.487844 0.000000 -0.299920 0.128468 0.000000 -0.106014 -0.189415 0.000000 -0.139085 -0.535217 0.000000 0.336505 -0.834888 0.000000 -0.545188 -1.714036 0.000000 0.035774 -0.488144 0.000000 0.583999 0.679296 0.000000 -0.050283 -0.251328 0.000000 0.167774 0.093374 0.000000 0.044611 0.218071 0.000000 0.059097 0.087426 0.000000 -0.049738 0.010116 0.000000 -0.000000 -0.188986 0.000000 0.049738 0.010116 0.000000 -0.059097 0.087426 0.000000 -0.044611 0.218071 0.000000 -0.167774 0.093374 0.000000 0.050283 -0.251328 0.000000 -0.583999 0.679296 0.000000 -0.035774 -0.488144 0.000000 0.545188 -1.714036 0.000000 -0.336505 -0.834888 0.000000 0.139085 -0.535217 0.000000 0.106014 -0.189415 0.000000 0.299920 0.128468 0.000000 0.295888 0.487844 0.000000 0.277523 0.792376 0.000000 0.151279 1.047745 0.000000 
-0.000000 1.201458 0.000000 -0.031647 1.117137 0.000000 -0.054333 0.810992 0.000000 -0.033097 0.464927 0.000000 -0.008238 0.024108 0.000000 0.073850 -0.278244 0.000000 0.063862 -0.763949 0.000000 0.138117 -0.797184 0.000000 -0.098608 -1.377533 0.000000 -0.558086 -0.955462 0.000000 0.589436 0.543777 0.000000 0.332270 0.074871 0.000000 -0.053111 -0.022645 0.000000 -0.043867 0.226176 0.000000 -0.054826 0.224934 0.000000 -0.160958 0.147779 0.000000 -0.000000 -0.080825 0.000000 0.160958 0.147779 0.000000 0.054826 0.224934 0.000000 0.043867 0.226176 0.000000 0.053111 -0.022645 0.000000 -0.332270 0.074871 0.000000 -0.589436 0.543777 0.000000 0.558086 -0.955462 0.000000 0.098608 -1.377533 0.000000 -0.138117 -0.797184 0.000000 -0.063862 -0.763949 0.000000 -0.073850 -0.278244 0.000000 0.008238 0.024108 0.000000 0.033097 0.464927 0.000000 0.054333 0.810992 0.000000 0.031647 1.117137 0.000000 
-0.000000 1.188909 0.000000 0.059650 1.102078 0.000000 0.113790 0.793826 0.000000 0.167051 0.441748 0.000000 0.209396 0.021520 0.000000 0.232318 -0.261515 0.000000 0.244249 -0.599483 0.000000 0.074327 -0.672418 0.000000 0.101327 -1.017833 0.000000 -0.684833 -1.176187 0.000000 -0.125414 -0.211060 0.000000 0.340070 0.391218 0.000000 0.125191 0.469511 0.000000 0.471443 0.219786 0.000000 0.753943 0.204517 0.000000 0.354567 -0.044710 0.000000 0.000000 -0.510903 0.000000 -0.354567 -0.044710 0.000000 -0.753943 0.204517 0.000000 -0.471443 0.219786 0.000000 -0.125191 0.469511 0.000000 -0.340070 0.391218 0.000000 0.125414 -0.211060 0.000000 0.684833 -1.176187 0.000000 -0.101327 -1.017833 0.000000 -0.074327 -0.672418 0.000000 -0.244249 -0.599483 0.000000 -0.232318 -0.261515 0.000000 -0.209396 0.021520 0.000000 -0.167051 0.441748 0.000000 -0.113790 0.793826 0.000000 -0.059650 1.102078 0.000000 
-0.000000 1.082158 0.000000 0.124235 1.003346 0.000000 0.235083 0.703591 0.000000 0.320603 0.369321 0.000000 0.389307 -0.041159 0.000000 0.425606 -0.313097 0.000000 0.480835 -0.605958 0.000000 0.435816 -0.654261 0.000000 0.528933 -0.618372 0.000000 0.175639 -0.728721 0.000000 0.012704 -0.481126 0.000000 -0.052357 -0.175734 0.000000 0.022556 -0.154018 0.000000 -0.050349 -0.402576 0.000000 0.483209 0.341810 0.000000 0.558532 0.901722 0.000000 0.000000 0.628308 0.000000 -0.558532 0.901722 0.000000 -0.483209 0.341810 0.000000 0.050349 -0.402576 0.000000 -0.022556 -0.154018 0.000000 0.052357 -0.175734 0.000000 -0.012704 -0.481126 0.000000 -0.175639 -0.728721 0.000000 -0.528933 -0.618372 0.000000 -0.435816 -0.654261 0.000000 -0.480835 -0.605958 0.000000 -0.425606 -0.313097 0.000000 -0.389307 -0.041159 0.000000 -0.320603 0.369321 0.000000 -0.235083 0.703591 0.000000 -0.124235 1.003346 0.000000 
-0.000000 0.940439 0.000000 0.161295 0.866995 0.000000 0.306210 0.597458 0.000000 0.406500 0.287524 0.000000 0.490646 -0.083483 0.000000 0.510180 -0.353042 0.000000 0.567957 -0.609693 0.000000 0.509949 -0.720516 0.000000 0.625767 -0.757657 0.000000 0.606080 -0.659958 0.000000 0.617836 0.016936 0.000000 0.554925 0.381366 0.000000 0.220655 0.467503 0.000000 -0.727630 -0.240867 0.000000 -1.143135 -0.404364 0.000000 -0.532162 0.438499 0.000000 0.000000 0.606161 0.000000 0.532162 0.438499 0.000000 1.143135 -0.404364 0.000000 0.727630 -0.240867 0.000000 -0.220655 0.467503 0.000000 -0.554925 0.381366 0.000000 -0.617836 0.016936 0.000000 -0.606080 -0.659958 0.000000 -0.625767 -0.757657 0.000000 -0.509949 -0.720516 0.000000 -0.567957 -0.609693 0.000000 -0.510180 -0.353042 0.000000 -0.490646 -0.083483 0.000000 -0.406500 0.287524 0.000000 -0.306210 0.597458 0.000000 -0.161295 0.866995 0.000000 
-0.000000 0.759568 0.000000 0.181826 0.697136 0.000000 0.344090 0.458386 0.000000 0.459880 0.184885 0.000000 0.549764 -0.144838 0.000000 0.580746 -0.390408 0.000000 0.621625 -0.605727 0.000000 0.590263 -0.712072 0.000000 0.612020 -0.714503 0.000000 0.564320 -0.720789 0.000000 0.612474 -0.429972 0.000000 1.075587 0.221447 0.000000 1.195558 1.128537 0.000000 1.412611 0.961214 0.000000 0.522364 0.146341 0.000000 0.014401 -0.241413 0.000000 -0.000000 -0.436016 0.000000 -0.014401 -0.241413 0.000000 -0.522364 0.146341 0.000000 -1.412611 0.961214 0.000000 -1.195558 1.128537 0.000000 -1.075587 0.221447 0.000000 -0.612474 -0.429972 0.000000 -0.564320 -0.720789 0.000000 -0.612020 -0.714503 0.000000 -0.590263 -0.712072 0.000000 -0.621625 -0.605727 0.000000 -0.580746 -0.390408 0.000000 -0.549764 -0.144838 0.000000 -0.459880 0.184885 0.000000 -0.344090 0.458386 0.000000 -0.181826 0.697136 0.000000 
-0.000000 0.576786 0.000000 0.179173 0.522905 0.000000 0.339467 0.319405 0.000000 0.448466 0.081850 0.000000 0.533509 -0.204349 0.000000 0.551265 -0.424904 0.000000 0.581070 -0.619210 0.000000 0.541720 -0.710910 0.000000 0.544512 -0.731713 0.000000 0.496816 -0.660413 0.000000 0.411385 -0.494331 0.000000 0.474784 -0.201718 0.000000 0.720293 0.130480 0.000000 1.413692 0.432327 0.000000 1.317699 0.993845 0.000000 0.731804 0.960863 0.000000 -0.000000 0.634964 0.000000 -0.731804 0.960863 0.000000 -1.317699 0.993845 0.000000 -1.413692 0.432327 0.000000 -0.720293 0.130480 0.000000 -0.474784 -0.201718 0.000000 -0.411385 -0.494331 0.000000 -0.496816 -0.660413 0.000000 -0.544512 -0.731713 0.000000 -0.541720 -0.710910 0.000000 -0.581070 -0.619210 0.000000 -0.551265 -0.424904 0.000000 -0.533509 -0.204349 0.000000 -0.448466 0.081850 0.000000 -0.339467 0.319405 0.000000 -0.179173 0.522905 0.000000 
-0.000000 0.401221 0.000000 0.163627 0.357668 0.000000 0.308212 0.189093 0.000000 0.404928 -0.009156 0.000000 0.474645 -0.247637 0.000000 0.484365 -0.437969 0.000000 0.496438 -0.596183 0.000000 0.452442 -0.675514 0.000000 0.440668 -0.669599 0.000000 0.376235 -0.587662 0.000000 0.353026 -0.407940 0.000000 0.290472 -0.087461 0.000000 0.331855 0.189629 0.000000 0.334043 0.363808 0.000000 0.369236 0.828230 0.000000 0.376716 1.076286 0.000000 -0.000000 1.027591 0.000000 -0.376716 1.076286 0.000000 -0.369236 0.828230 0.000000 -0.334043 0.363808 0.000000 -0.331855 0.189629 0.000000 -0.290472 -0.087461 0.000000 -0.353026 -0.407940 0.000000 -0.376235 -0.587662 0.000000 -0.440668 -0.669599 0.000000 -0.452442 -0.675514 0.000000 -0.496438 -0.596183 0.000000 -0.484365 -0.437969 0.000000 -0.474645 -0.247637 0.000000 -0.404928 -0.009156 0.000000 -0.308212 0.189093 0.000000 -0.163627 0.357668 0.000000 
0.000000 0.249531 0.000000 0.133356 0.214694 0.000000 0.249784 0.078104 0.000000 0.320013 -0.084584 0.000000 0.366239 -0.283786 0.000000 0.355169 -0.446697 0.000000 0.344861 -0.587287 0.000000 0.287146 -0.655140 0.000000 0.252850 -0.655507 0.000000 0.191489 -0.572771 0.000000 0.159418 -0.408569 0.000000 0.125785 -0.180547 0.000000 0.201605 0.086908 0.000000 0.194332 0.394946 0.000000 0.161205 0.951172 0.000000 0.171525 1.330099 0.000000 -0.000000 1.388396 0.000000 -0.171525 1.330099 0.000000 -0.161205 0.951172 0.000000 -0.194332 0.394946 0.000000 -0.201605 0.086908 0.000000 -0.125785 -0.180547 0.000000 -0.159418 -0.408569 0.000000 -0.191489 -0.572771 0.000000 -0.252850 -0.655507 0.000000 -0.287146 -0.655140 0.000000 -0.344861 -0.587287 0.000000 -0.355169 -0.446697 0.000000 -0.366239 -0.283786 0.000000 -0.320013 -0.084584 0.000000 -0.249784 0.078104 0.000000 -0.133356 0.214694 0.000000 
-0.000000 0.134509 0.000000 0.097519 0.107885 0.000000 0.179579 0.002436 0.000000 0.219026 -0.125611 0.000000 0.235009 -0.282793 0.000000 0.196794 -0.416590 0.000000 0.155370 -0.528159 0.000000 0.067567 -0.583504 0.000000 0.003686 -0.573942 0.000000 -0.088540 -0.494231 0.000000 -0.133004 -0.342236 0.000000 -0.187067 -0.129648 0.000000 -0.179670 0.121082 0.000000 -0.203648 0.404208 0.000000 -0.179104 0.851037 0.000000 -0.048101 1.237492 0.000000 -0.000000 1.370640 0.000000 0.048101 1.237492 0.000000 0.179104 0.851037 0.000000 0.203648 0.404208 0.000000 0.179670 0.121082 0.000000 0.187067 -0.129648 0.000000 0.133004 -0.342236 0.000000 0.088540 -0.494231 0.000000 -0.003686 -0.573942 0.000000 -0.067567 -0.583504 0.000000 -0.155370 -0.528159 0.000000 -0.196794 -0.416590 0.000000 -0.235009 -0.282793 0.000000 -0.219026 -0.125611 0.000000 -0.179579 0.002436 0.000000 -0.097519 0.107885 0.000000 
-0.000000 0.054493 0.000000 0.060435 0.035115 0.000000 0.107058 -0.043403 0.000000 0.113565 -0.140014 0.000000 0.096983 -0.261554 0.000000 0.027800 -0.367057 0.000000 -0.049837 -0.458061 0.000000 -0.169272 -0.503457 0.000000 -0.270951 -0.499400 0.000000 -0.385748 -0.436080 0.000000 -0.454323 -0.310042 0.000000 -0.508782 -0.133881 0.000000 -0.496486 0.103489 0.000000 -0.475914 0.394380 0.000000 -0.396088 0.795625 0.000000 -0.206811 1.150995 0.000000 0.000000 1.292195 0.000000 0.206811 1.150995 0.000000 0.396088 0.795625 0.000000 0.475914 0.394380 0.000000 0.496486 0.103489 0.000000 0.508782 -0.133881 0.000000 0.454323 -0.310042 0.000000 0.385748 -0.436080 0.000000 0.270951 -0.499400 0.000000 0.169272 -0.503457 0.000000 0.049837 -0.458061 0.000000 -0.027800 -0.367057 0.000000 -0.096983 -0.261554 0.000000 -0.113565 -0.140014 0.000000 -0.107058 -0.043403 0.000000 -0.060435 0.035115 0.000000 
-0.000000 0.013638 0.000000 0.028038 0.000827 0.000000 0.043056 -0.050693 0.000000 0.018662 -0.115536 0.000000 -0.029954 -0.197029 0.000000 -0.133726 -0.269771 0.000000 -0.250003 -0.331087 0.000000 -0.412022 -0.362389 0.000000 -0.556723 -0.357466 0.000000 -0.716174 -0.310859 0.000000 -0.821770 -0.219202 0.000000 -0.904992 -0.087485 0.000000 -0.906939 0.088214 0.000000 -0.852612 0.303809 0.000000 -0.686114 0.581935 0.000000 -0.381702 0.841404 0.000000 0.000000 0.957018 0.000000 0.381702 0.841404 0.000000 0.686114 0.581935 0.000000 0.852612 0.303809 0.000000 0.906939 0.088214 0.000000 0.904992 -0.087485 0.000000 0.821770 -0.219202 0.000000 0.716174 -0.310859 0.000000 0.556723 -0.357466 0.000000 0.412022 -0.362389 0.000000 0.250003 -0.331087 0.000000 0.133726 -0.269771 0.000000 0.029954 -0.197029 0.000000 -0.018662 -0.115536 0.000000 -0.043056 -0.050693 0.000000 -0.028038 0.000827 0.000000 
-0.000000 -0.001584 0.000000 0.006819 -0.007942 0.000000 0.000827 -0.034026 0.000000 -0.043874 -0.067004 0.000000 -0.114709 -0.109166 0.000000 -0.240902 -0.147008 0.000000 -0.384480 -0.179765 0.000000 -0.571990 -0.196737 0.000000 -0.746869 -0.195247 0.000000 -0.929455 -0.171033 0.000000 -1.057728 -0.121224 0.000000 -1.148658 -0.048713 0.000000 -1.145213 0.051110 0.000000 -1.060444 0.173555 0.000000 -0.841404 0.324715 0.000000 -0.478509 0.464881 0.000000 0.000000 0.528792 0.000000 0.478509 0.464881 0.000000 0.841404 0.324715 0.000000 1.060444 0.173555 0.000000 1.145213 0.051110 0.000000 1.148658 -0.048713 0.000000 1.057728 -0.121224 0.000000 0.929455 -0.171033 0.000000 0.746869 -0.195247 0.000000 0.571990 -0.196737 0.000000 0.384480 -0.179765 0.000000 0.240902 -0.147008 0.000000 0.114709 -0.109166 0.000000 0.043874 -0.067004 0.000000 -0.000827 -0.034026 0.000000 -0.006819 -0.007942 0.000000 
