# vtk DataFile Version 2.0
Comment goes here
ASCII

DATASET STRUCTURED_POINTS
FIELD FieldData 1
TIME 1 1 double
1.32000000
DIMENSIONS    32   32   1

ORIGIN    0.000   0.000   0.000
SPACING   0.03125 0.03125   1.000

POINT_DATA   1024
VECTORS u double

-0.000000 -0.000000 0.000000 0.020703 -0.000000 0.000000 0.023901 -0.000000 0.000000 -0.001686 -0.000000 0.000000 -0.067601 -0.000000 0.000000 -0.172109 -0.000000 0.000000 -0.314984 -0.000000 0.000000 -0.483822 -0.000000 0.000000 -0.662962 -0.000000 0.000000 -0.836904 0.000000 0.000000 -0.975807 0.000000 0.000000 -1.069977 0.000000 0.000000 -1.080249 0.000000 0.000000 -0.998270 0.000000 0.000000 -0.789948 0.000000 0.000000 -0.439124 0.000000 0.000000 0.000000 0.000000 0.000000 0.439124 -0.000000 0.000000 0.789948 -0.000000 0.000000 0.998270 -0.000000 0.000000 1.080249 -0.000000 0.000000 1.069977 -0.000000 0.000000 0.975807 -0.000000 0.000000 0.836904 -0.000000 0.000000 0.662962 -0.000000 0.000000 0.483822 -0.000000 0.000000 0.314984 0.000000 0.000000 0.172109 0.000000 0.000000 0.067601 0.000000 0.000000 0.001686 0.000000 0.000000 -0.023901 -0.000000 0.000000 -0.020703 -0.000000 0.000000 
-0.000000 -0.020703 0.000000 0.026394 -0.011950 0.000000 0.035358 0.011195 0.000000 0.015220 0.045751 0.000000 -0.044580 0.085211 0.000000 -0.142636 0.123691 0.000000 -0.278331 0.155857 0.000000 -0.438937 0.173989 0.000000 -0.611292 0.176541 0.000000 -0.776693 0.156422 0.000000 -0.912502 0.116537 0.000000 -1.001499 0.052221 0.000000 -1.015683 -0.035853 0.000000 -0.940635 -0.145150 0.000000 -0.746716 -0.279573 0.000000 -0.416202 -0.394974 0.000000 0.000000 -0.439124 0.000000 0.416202 -0.394974 0.000000 0.746716 -0.279573 0.000000 0.940635 -0.145150 0.000000 1.015683 -0.035853 0.000000 1.001499 0.052221 0.000000 0.912502 0.116537 0.000000 0.776693 0.156422 0.000000 0.611292 0.176541 0.000000 0.438937 0.173989 0.000000 0.278331 0.155857 0.000000 0.142636 0.123691 0.000000 0.044580 0.085211 0.000000 -0.015220 0.045751 0.000000 -0.035358 0.011195 0.000000 -0.026394 -0.011950 0.000000 
-0.000000 -0.052788 0.000000 0.049280 -0.035358 0.000000 0.080440 0.011174 0.000000 0.083464 0.079938 0.000000 0.046712 0.157856 0.000000 -0.024913 0.233751 0.000000 -0.132636 0.296301 0.000000 -0.262648 0.332961 0.000000 -0.402968 0.337757 0.000000 -0.540509 0.301210 0.000000 -0.649081 0.224806 0.000000 -0.729376 0.103181 0.000000 -0.745802 -0.060864 0.000000 -0.712728 -0.268968 0.000000 -0.588627 -0.524433 0.000000 -0.335779 -0.746716 0.000000 -0.000000 -0.832404 0.000000 0.335779 -0.746716 0.000000 0.588627 -0.524433 0.000000 0.712728 -0.268968 0.000000 0.745802 -0.060864 0.000000 0.729376 0.103181 0.000000 0.649081 0.224806 0.000000 0.540509 0.301210 0.000000 0.402968 0.337757 0.000000 0.262648 0.332961 0.000000 0.132636 0.296301 0.000000 0.024913 0.233751 0.000000 -0.046712 0.157856 0.000000 -0.083464 0.079938 0.000000 -0.080440 0.011174 0.000000 -0.049280 -0.035358 0.000000 
-0.000000 -0.119263 0.000000 0.078219 -0.092390 0.000000 0.137512 -0.022990 0.000000 0.167763 0.079478 0.000000 0.158468 0.193589 0.000000 0.115728 0.303040 0.000000 0.039048 0.393592 0.000000 -0.057774 0.444321 0.000000 -0.166520 0.454402 0.000000 -0.272855 0.402535 0.000000 -0.362121 0.305403 0.000000 -0.428079 0.148942 0.000000 -0.454974 -0.052501 0.000000 -0.462167 -0.302326 0.000000 -0.405028 -0.656522 0.000000 -0.239398 -0.983601 0.000000 -0.000000 -1.110682 0.000000 0.239398 -0.983601 0.000000 0.405028 -0.656522 0.000000 0.462167 -0.302326 0.000000 0.454974 -0.052501 0.000000 0.428079 0.148942 0.000000 0.362121 0.305403 0.000000 0.272855 0.402535 0.000000 0.166520 0.454402 0.000000 0.057774 0.444321 0.000000 -0.039048 0.393592 0.000000 -0.115728 0.303040 0.000000 -0.158468 0.193589 0.000000 -0.167763 0.079478 0.000000 -0.137512 -0.022990 0.000000 -0.078219 -0.092390 0.000000 
-0.000000 -0.209227 0.000000 0.114214 -0.172870 0.000000 0.207246 -0.078370 0.000000 0.271782 0.058981 0.000000 0.293447 0.209891 0.000000 0.286373 0.353172 0.000000 0.244126 0.469803 0.000000 0.187781 0.538530 0.000000 0.118441 0.552837 0.000000 0.048753 0.496810 0.000000 -0.003057 0.380030 0.000000 -0.053630 0.196034 0.000000 -0.059782 -0.026776 0.000000 -0.126392 -0.318914 0.000000 -0.180845 -0.747202 0.000000 -0.122449 -1.151743 0.000000 -0.000000 -1.311200 0.000000 0.122449 -1.151743 0.000000 0.180845 -0.747202 0.000000 0.126392 -0.318914 0.000000 0.059782 -0.026776 0.000000 0.053630 0.196034 0.000000 0.003057 0.380030 0.000000 -0.048753 0.496810 0.000000 -0.118441 0.552837 0.000000 -0.187781 0.538530 0.000000 -0.244126 0.469803 0.000000 -0.286373 0.353172 0.000000 -0.293447 0.209891 0.000000 -0.271782 0.058981 0.000000 -0.207246 -0.078370 0.000000 -0.114214 -0.172870 0.000000 
-0.000000 -0.347692 0.000000 0.145503 -0.299636 0.000000 0.267937 -0.180558 0.000000 0.359913 -0.006723 0.000000 0.407180 0.178998 0.000000 0.424820 0.352361 0.000000 0.408527 0.492184 0.000000 0.377046 0.570006 0.000000 0.331121 0.593430 0.000000 0.281285 0.524033 0.000000 0.229657 0.407787 0.000000 0.193620 0.205667 0.000000 0.184556 0.020261 0.000000 0.104881 -0.181263 0.000000 0.053814 -0.660465 0.000000 0.032438 -1.164446 0.000000 0.000000 -1.355581 0.000000 -0.032438 -1.164446 0.000000 -0.053814 -0.660465 0.000000 -0.104881 -0.181263 0.000000 -0.184556 0.020261 0.000000 -0.193620 0.205667 0.000000 -0.229657 0.407787 0.000000 -0.281285 0.524033 0.000000 -0.331121 0.593430 0.000000 -0.377046 0.570006 0.000000 -0.408527 0.492184 0.000000 -0.424820 0.352361 0.000000 -0.407180 0.178998 0.000000 -0.359913 -0.006723 0.000000 -0.267937 -0.180558 0.000000 -0.145503 -0.299636 0.000000 
-0.000000 -0.500232 0.000000 0.170721 -0.440806 0.000000 0.314956 -0.292780 0.000000 0.430695 -0.080262 0.000000 0.494929 0.144985 0.000000 0.537062 0.351824 0.000000 0.536757 0.517576 0.000000 0.533361 0.615936 0.000000 0.505630 0.648599 0.000000 0.483810 0.598274 0.000000 0.462934 0.467695 0.000000 0.474471 0.241135 0.000000 0.609971 0.061962 0.000000 0.487882 -0.188171 0.000000 0.309837 -0.674759 0.000000 0.195966 -1.097930 0.000000 0.000000 -1.246323 0.000000 -0.195966 -1.097930 0.000000 -0.309837 -0.674759 0.000000 -0.487882 -0.188171 0.000000 -0.609971 0.061962 0.000000 -0.474471 0.241135 0.000000 -0.462934 0.467695 0.000000 -0.483810 0.598274 0.000000 -0.505630 0.648599 0.000000 -0.533361 0.615936 0.000000 -0.536757 0.517576 0.000000 -0.537062 0.351824 0.000000 -0.494929 0.144985 0.000000 -0.430695 -0.080262 0.000000 -0.314956 -0.292780 0.000000 -0.170721 -0.440806 0.000000 
-0.000000 -0.689134 0.000000 0.181513 -0.614593 0.000000 0.334738 -0.440532 0.000000 0.459933 -0.186695 0.000000 0.532425 0.072631 0.000000 0.584029 0.310533 0.000000 0.597364 0.495885 0.000000 0.600848 0.601133 0.000000 0.590239 0.642981 0.000000 0.563602 0.566729 0.000000 0.496017 0.417126 0.000000 0.561226 0.058631 0.000000 0.614435 0.006850 0.000000 0.617878 0.118872 0.000000 0.881683 -0.368549 0.000000 0.692095 -0.854609 0.000000 0.000000 -0.963649 0.000000 -0.692095 -0.854609 0.000000 -0.881683 -0.368549 0.000000 -0.617878 0.118872 0.000000 -0.614435 0.006850 0.000000 -0.561226 0.058631 0.000000 -0.496017 0.417126 0.000000 -0.563602 0.566729 0.000000 -0.590239 0.642981 0.000000 -0.600848 0.601133 0.000000 -0.597364 0.495885 0.000000 -0.584029 0.310533 0.000000 -0.532425 0.072631 0.000000 -0.459933 -0.186695 0.000000 -0.334738 -0.440532 0.000000 -0.181513 -0.614593 0.000000 
0.000000 -0.863259 0.000000 0.175645 -0.775544 0.000000 0.321165 -0.571200 0.000000 0.444833 -0.277950 0.000000 0.509378 0.020889 0.000000 0.569240 0.286885 0.000000 0.575706 0.500757 0.000000 0.596528 0.623061 0.000000 0.566572 0.685845 0.000000 0.535400 0.692496 0.000000 0.372823 0.470070 0.000000 0.666992 0.122717 0.000000 0.954540 0.005310 0.000000 1.330940 -0.455419 0.000000 1.253002 -0.748976 0.000000 0.612851 -0.216247 0.000000 0.000000 0.137867 0.000000 -0.612851 -0.216247 0.000000 -1.253002 -0.748976 0.000000 -1.330940 -0.455419 0.000000 -0.954540 0.005310 0.000000 -0.666992 0.122717 0.000000 -0.372823 0.470070 0.000000 -0.535400 0.692496 0.000000 -0.566572 0.685845 0.000000 -0.596528 0.623061 0.000000 -0.575706 0.500757 0.000000 -0.569240 0.286885 0.000000 -0.509378 0.020889 0.000000 -0.444833 -0.277950 0.000000 -0.321165 -0.571200 0.000000 -0.175645 -0.775544 0.000000 
0.000000 -1.040424 0.000000 0.150221 -0.935757 0.000000 0.272145 -0.709720 0.000000 0.380239 -0.374908 0.000000 0.429408 -0.051775 0.000000 0.486918 0.244205 0.000000 0.497899 0.468597 0.000000 0.520316 0.610267 0.000000 0.563269 0.704109 0.000000 0.438919 0.760478 0.000000 0.440892 0.285534 0.000000 0.795882 -0.523086 0.000000 0.826966 -0.657098 0.000000 0.535488 -0.179591 0.000000 -0.105127 0.349540 0.000000 -0.232781 0.398393 0.000000 0.000000 0.262054 0.000000 0.232781 0.398393 0.000000 0.105127 0.349540 0.000000 -0.535488 -0.179591 0.000000 -0.826966 -0.657098 0.000000 -0.795882 -0.523086 0.000000 -0.440892 0.285534 0.000000 -0.438919 0.760478 0.000000 -0.563269 0.704109 0.000000 -0.520316 0.610267 0.000000 -0.497899 0.468597 0.000000 -0.486918 0.244205 0.000000 -0.429408 -0.051775 0.000000 -0.380239 -0.374908 0.000000 -0.272145 -0.709720 0.000000 -0.150221 -0.935757 0.000000 
0.000000 -1.163701 0.000000 0.102486 -1.047688 0.000000 0.183970 -0.801218 0.000000 0.263456 -0.435213 0.000000 0.288148 -0.085790 0.000000 0.344394 0.218395 0.000000 0.339387 0.467359 0.000000 0.392854 0.557691 0.000000 0.367346 0.767243 0.000000 -0.059497 0.814873 0.000000 0.431099 0.113107 0.000000 0.239091 -0.263358 0.000000 -0.290896 0.265704 0.000000 -0.608966 0.476674 0.000000 -0.384225 0.019293 0.000000 0.096050 -0.321374 0.000000 -0.000000 -0.327695 0.000000 -0.096050 -0.321374 0.000000 0.384225 0.019293 0.000000 0.608966 0.476674 0.000000 0.290896 0.265704 0.000000 -0.239091 -0.263358 0.000000 -0.431099 0.113107 0.000000 0.059497 0.814873 0.000000 -0.367346 0.767243 0.000000 -0.392854 0.557691 0.000000 -0.339387 0.467359 0.000000 -0.344394 0.218395 0.000000 -0.288148 -0.085790 0.000000 -0.263456 -0.435213 0.000000 -0.183970 -0.801218 0.000000 -0.102486 -1.047688 0.000000 
0.000000 -1.245395 0.000000 0.034833 -1.119727 0.000000 0.060094 -0.870691 0.000000 0.104614 -0.479086 0.000000 0.097622 -0.132713 0.000000 0.156522 0.192966 0.000000 0.087257 0.420136 0.000000 0.175449 0.582308 0.000000 -0.093102 1.156460 0.000000 -0.455109 0.696724 0.000000 0.183302 -0.013054 0.000000 -0.170068 0.198909 0.000000 0.078243 0.190958 0.000000 0.428082 -0.086262 0.000000 0.598339 -0.355476 0.000000 0.444314 0.014168 0.000000 -0.000000 0.454154 0.000000 -0.444314 0.014168 0.000000 -0.598339 -0.355476 0.000000 -0.428082 -0.086262 0.000000 -0.078243 0.190958 0.000000 0.170068 0.198909 0.000000 -0.183302 -0.013054 0.000000 0.455109 0.696724 0.000000 0.093102 1.156460 0.000000 -0.175449 0.582308 0.000000 -0.087257 0.420136 0.000000 -0.156522 0.192966 0.000000 -0.097622 -0.132713 0.000000 -0.104614 -0.479086 0.000000 -0.060094 -0.870691 0.000000 -0.034833 -1.119727 0.000000 
0.000000 -1.233367 0.000000 -0.058786 -1.107782 0.000000 -0.104036 -0.870999 0.000000 -0.114027 -0.472741 0.000000 -0.132619 -0.137698 0.000000 -0.071858 0.228759 0.000000 -0.163977 0.448433 0.000000 -0.043618 0.738051 0.000000 -0.932402 1.397801 0.000000 -0.681818 0.538468 0.000000 0.272711 -0.171935 0.000000 -0.139581 -0.158299 0.000000 0.175902 -0.332446 0.000000 0.098831 -0.043421 0.000000 0.104147 0.003062 0.000000 -0.095695 0.276965 0.000000 -0.000000 0.560932 0.000000 0.095695 0.276965 0.000000 -0.104147 0.003062 0.000000 -0.098831 -0.043421 0.000000 -0.175902 -0.332446 0.000000 0.139581 -0.158299 0.000000 -0.272711 -0.171935 0.000000 0.681818 0.538468 0.000000 0.932402 1.397801 0.000000 0.043618 0.738051 0.000000 0.163977 0.448433 0.000000 0.071858 0.228759 0.000000 0.132619 -0.137698 0.000000 0.114027 -0.472741 0.000000 0.104036 -0.870999 0.000000 0.058786 -1.107782 0.000000 
0.000000 -1.127823 0.000000 -0.173843 -1.015692 0.000000 -0.310259 -0.815450 0.000000 -0.386738 -0.450502 0.000000 -0.417145 -0.174882 0.000000 -0.350259 0.224324 0.000000 -0.408636 0.391896 0.000000 -0.211885 1.350732 0.000000 -1.027375 1.794660 0.000000 0.236886 -0.508389 0.000000 0.830264 -0.555290 0.000000 -0.029840 0.295719 0.000000 -0.107831 -0.047454 0.000000 -0.244324 -0.014507 0.000000 -0.155525 -0.160950 0.000000 -0.187139 0.118315 0.000000 0.000000 0.262764 0.000000 0.187139 0.118315 0.000000 0.155525 -0.160950 0.000000 0.244324 -0.014507 0.000000 0.107831 -0.047454 0.000000 0.029840 0.295719 0.000000 -0.830264 -0.555290 0.000000 -0.236886 -0.508389 0.000000 1.027375 1.794660 0.000000 0.211885 1.350732 0.000000 0.408636 0.391896 0.000000 0.350259 0.224324 0.000000 0.417145 -0.174882 0.000000 0.386738 -0.450502 0.000000 0.310259 -0.815450 0.000000 0.173843 -1.015692 0.000000 
0.000000 -0.885681 0.000000 -0.315375 -0.797523 0.000000 -0.566481 -0.658104 0.000000 -0.766296 -0.365855 0.000000 -0.822957 -0.174177 0.000000 -0.884140 0.220251 0.000000 -0.782273 0.310059 0.000000 -0.785879 1.356789 0.000000 -0.221385 0.949029 0.000000 0.743808 -1.319171 0.000000 -0.069271 0.094791 0.000000 -0.217731 0.779796 0.000000 -0.157991 -0.117962 0.000000 -0.072213 0.004273 0.000000 -0.109372 -0.054123 0.000000 -0.120847 0.121440 0.000000 0.000000 0.186653 0.000000 0.120847 0.121440 0.000000 0.109372 -0.054123 0.000000 0.072213 0.004273 0.000000 0.157991 -0.117962 0.000000 0.217731 0.779796 0.000000 0.069271 0.094791 0.000000 -0.743808 -1.319171 0.000000 0.221385 0.949029 0.000000 0.785879 1.356789 0.000000 0.782273 0.310059 0.000000 0.884140 0.220251 0.000000 0.822957 -0.174177 0.000000 0.766296 -0.365855 0.000000 0.566481 -0.658104 0.000000 0.315375 -0.797523 0.000000 
0.000000 -0.497074 0.000000 -0.442840 -0.449211 0.000000 -0.797523 -0.364529 0.000000 -1.100945 -0.194026 0.000000 -1.163378 -0.057038 0.000000 -1.275121 0.183640 0.000000 -0.943127 0.293635 0.000000 -0.965063 0.789844 0.000000 0.413662 0.264972 0.000000 -0.016033 -0.660503 0.000000 -0.905509 0.406249 0.000000 0.078758 0.384439 0.000000 -0.125713 -0.192972 0.000000 -0.039204 -0.063126 0.000000 -0.121440 -0.112316 0.000000 -0.093327 0.008943 0.000000 0.000000 0.021070 0.000000 0.093327 0.008943 0.000000 0.121440 -0.112316 0.000000 0.039204 -0.063126 0.000000 0.125713 -0.192972 0.000000 -0.078758 0.384439 0.000000 0.905509 0.406249 0.000000 0.016033 -0.660503 0.000000 -0.413662 0.264972 0.000000 0.965063 0.789844 0.000000 0.943127 0.293635 0.000000 1.275121 0.183640 0.000000 1.163378 -0.057038 0.000000 1.100945 -0.194026 0.000000 0.797523 -0.364529 0.000000 0.442840 -0.449211 0.000000 
0.000000 0.000000 0.000000 -0.497074 0.000000 0.000000 -0.898422 0.000000 0.000000 -1.226131 -0.000000 0.000000 -1.286474 -0.000000 0.000000 -1.340208 -0.000000 0.000000 -0.919195 0.000000 0.000000 -0.752937 0.000000 0.000000 0.660494 -0.000000 0.000000 -0.222992 -0.000000 0.000000 -0.660511 0.000000 0.000000 0.589506 0.000000 0.000000 0.108367 0.000000 0.000000 0.203562 0.000000 0.000000 -0.017885 0.000000 0.000000 -0.021070 0.000000 0.000000 -0.000000 -0.000000 0.000000 0.021070 -0.000000 0.000000 0.017885 -0.000000 0.000000 -0.203562 -0.000000 0.000000 -0.108367 -0.000000 0.000000 -0.589506 -0.000000 0.000000 0.660511 0.000000 0.000000 0.222992 0.000000 0.000000 -0.660494 -0.000000 0.000000 0.752937 -0.000000 0.000000 0.919195 -0.000000 0.000000 1.340208 -0.000000 0.000000 1.286474 -0.000000 0.000000 1.226131 0.000000 0.000000 0.898422 0.000000 0.000000 0.497074 0.000000 0.000000 
-0.000000 0.497074 0.000000 -0.442840 0.449211 0.000000 -0.797523 0.364529 0.000000 -1.100945 0.194026 0.000000 -1.163378 0.057038 0.000000 -1.275121 -0.183640 0.000000 -0.943127 -0.293635 0.000000 -0.965063 -0.789844 0.000000 0.413662 -0.264972 0.000000 -0.016033 0.660503 0.000000 -0.905509 -0.406249 0.000000 0.078758 -0.384439 0.000000 -0.125713 0.192972 0.000000 -0.039204 0.063126 0.000000 -0.121440 0.112316 0.000000 -0.093327 -0.008943 0.000000 -0.000000 -0.021070 0.000000 0.093327 -0.008943 0.000000 0.121440 0.112316 0.000000 0.039204 0.063126 0.000000 0.125713 0.192972 0.000000 -0.078758 -0.384439 0.000000 0.905509 -0.406249 0.000000 0.016033 0.660503 0.000000 -0.413662 -0.264972 0.000000 0.965063 -0.789844 0.000000 0.943127 -0.293635 0.000000 1.275121 -0.183640 0.000000 1.163378 0.057038 0.000000 1.100945 0.194026 0.000000 0.797523 0.364529 0.000000 0.442840 0.449211 0.000000 
-0.000000 0.885681 0.000000 -0.315375 0.797523 0.000000 -0.566481 0.658104 0.000000 -0.766296 0.365855 0.000000 -0.822957 0.174177 0.000000 -0.884140 -0.220251 0.000000 -0.782273 -0.310059 0.000000 -0.785879 -1.356789 0.000000 -0.221385 -0.949029 0.000000 0.743808 1.319171 0.000000 -0.069271 -0.094791 0.000000 -0.217731 -0.779796 0.000000 -0.157991 0.117962 0.000000 -0.072213 -0.004273 0.000000 -0.109372 0.054123 0.000000 -0.120847 -0.121440 0.000000 -0.000000 -0.186653 0.000000 0.120847 -0.121440 0.000000 0.109372 0.054123 0.000000 0.072213 -0.004273 0.000000 0.157991 0.117962 0.000000 0.217731 -0.779796 0.000000 0.069271 -0.094791 0.000000 -0.743808 1.319171 0.000000 0.221385 -0.949029 0.000000 0.785879 -1.356789 0.000000 0.782273 -0.310059 0.000000 0.884140 -0.220251 0.000000 0.822957 0.174177 0.000000 0.766296 0.365855 0.000000 0.566481 0.658104 0.000000 0.315375 0.797523 0.000000 
-0.000000 1.127823 0.000000 -0.173843 1.015692 0.000000 -0.310259 0.815450 0.000000 -0.386738 0.450502 0.000000 -0.417145 0.174882 0.000000 -0.350259 -0.224324 0.000000 -0.408636 -0.391896 0.000000 -0.211885 -1.350732 0.000000 -1.027375 -1.794660 0.000000 0.236886 0.508389 0.000000 0.830264 0.555290 0.000000 -0.029840 -0.295719 0.000000 -0.107831 0.047454 0.000000 -0.244324 0.014507 0.000000 -0.155525 0.160950 0.000000 -0.187139 -0.118315 0.000000 -0.000000 -0.262764 0.000000 0.187139 -0.118315 0.000000 0.155525 0.160950 0.000000 0.244324 0.014507 0.000000 0.107831 0.047454 0.000000 0.029840 -0.295719 0.000000 -0.830264 0.555290 0.000000 -0.236886 0.508389 0.000000 1.027375 -1.794660 0.000000 0.211885 -1.350732 0.000000 0.408636 -0.391896 0.000000 0.350259 -0.224324 0.000000 0.417145 0.174882 0.000000 0.386738 0.450502 0.000000 0.310259 0.815450 0.000000 0.173843 1.015692 0.000000 
-0.000000 1.233367 0.000000 -0.058786 1.107782 0.000000 -0.104036 0.870999 0.000000 -0.114027 0.472741 0.000000 -0.132619 0.137698 0.000000 -0.071858 -0.228759 0.000000 -0.163977 -0.448433 0.000000 -0.043618 -0.738051 0.000000 -0.932402 -1.397801 0.000000 -0.681818 -0.538468 0.000000 0.272711 0.171935 0.000000 -0.139581 0.158299 0.000000 0.175902 0.332446 0.000000 0.098831 0.043421 0.000000 0.104147 -0.003062 0.000000 -0.095695 -0.276965 0.000000 0.000000 -0.560932 0.000000 0.095695 -0.276965 0.000000 -0.104147 -0.003062 0.000000 -0.098831 0.043421 0.000000 -0.175902 0.332446 0.000000 0.139581 0.158299 0.000000 -0.272711 0.171935 0.000000 0.681818 -0.538468 0.000000 0.932402 -1.397801 0.000000 0.043618 -0.738051 0.000000 0.163977 -0.448433 0.000000 0.071858 -0.228759 0.000000 0.132619 0.137698 0.000000 0.114027 0.472741 0.000000 0.104036 0.870999 0.000000 0.058786 1.107782 0.000000 
-0.000000 1.245395 0.000000 0.034833 1.119727 0.000000 0.060094 0.870691 0.000000 0.104614 0.479086 0.000000 0.097622 0.132713 0.000000 0.156522 -0.192966 0.000000 0.087257 -0.420136 0.000000 0.175449 -0.582308 0.000000 -0.093102 -1.156460 0.000000 -0.455109 -0.696724 0.000000 0.183302 0.013054 0.000000 -0.170068 -0.198909 0.000000 0.078243 -0.190958 0.000000 0.428082 0.086262 0.000000 0.598339 0.355476 0.000000 0.444314 -0.014168 0.000000 0.000000 -0.454154 0.000000 -0.444314 -0.014168 0.000000 -0.598339 0.355476 0.000000 -0.428082 0.086262 0.000000 -0.078243 -0.190958 0.000000 0.170068 -0.198909 0.000000 -0.183302 0.013054 0.000000 0.455109 -0.696724 0.000000 0.093102 -1.156460 0.000000 -0.175449 -0.582308 0.000000 -0.087257 -0.420136 0.000000 -0.156522 -0.192966 0.000000 -0.097622 0.132713 0.000000 -0.104614 0.479086 0.000000 -0.060094 0.870691 0.000000 -0.034833 1.119727 0.000000 
-0.000000 1.163701 0.000000 0.102486 1.047688 0.000000 0.183970 0.801218 0.000000 0.263456 0.435213 0.000000 0.288148 0.085790 0.000000 0.344394 -0.218395 0.000000 0.339387 -0.467359 0.000000 0.392854 -0.557691 0.000000 0.367346 -0.767243 0.000000 -0.059497 -0.814873 0.000000 0.431099 -0.113107 0.000000 0.239091 0.263358 0.000000 -0.290896 -0.265704 0.000000 -0.608966 -0.476674 0.000000 -0.384225 -0.019293 0.000000 0.096050 0.321374 0.000000 0.000000 0.327695 0.000000 -0.096050 0.321374 0.000000 0.384225 -0.019293 0.000000 0.608966 -0.476674 0.000000 0.290896 -0.265704 0.000000 -0.239091 0.263358 0.000000 -0.431099 -0.113107 0.000000 0.059497 -0.814873 0.000000 -0.367346 -0.767243 0.000000 -0.392854 -0.557691 0.000000 -0.339387 -0.467359 0.000000 -0.344394 -0.218395 0.000000 -0.288148 0.085790 0.000000 -0.263456 0.435213 0.000000 -0.183970 0.801218 0.000000 -0.102486 1.047688 0.000000 
-0.000000 1.040424 0.000000 0.150221 0.935757 0.000000 0.272145 0.709720 0.000000 0.380239 0.374908 0.000000 0.429408 0.051775 0.000000 0.486918 -0.244205 0.000000 0.497899 -0.468597 0.000000 0.520316 -0.610267 0.000000 0.563269 -0.704109 0.000000 0.438919 -0.760478 0.000000 0.440892 -0.285534 0.000000 0.795882 0.523086 0.000000 0.826966 0.657098 0.000000 0.535488 0.179591 0.000000 -0.105127 -0.349540 0.000000 -0.232781 -0.398393 0.000000 -0.000000 -0.262054 0.000000 0.232781 -0.398393 0.000000 0.105127 -0.349540 0.000000 -0.535488 0.179591 0.000000 -0.826966 0.657098 0.000000 -0.795882 0.523086 0.000000 -0.440892 -0.285534 0.000000 -0.438919 -0.760478 0.000000 -0.563269 -0.704109 0.000000 -0.520316 -0.610267 0.000000 -0.497899 -0.468597 0.000000 -0.486918 -0.244205 0.000000 -0.429408 0.051775 0.000000 -0.380239 0.374908 0.000000 -0.272145 0.709720 0.000000 -0.150221 0.935757 0.000000 
-0.000000 0.863259 0.000000 0.175645 0.775544 0.000000 0.321165 0.571200 0.000000 0.444833 0.277950 0.000000 0.509378 -0.020889 0.000000 0.569240 -0.286885 0.000000 0.575706 -0.500757 0.000000 0.596528 -0.623061 0.000000 0.566572 -0.685845 0.000000 0.535400 -0.692496 0.000000 0.372823 -0.470070 0.000000 0.666992 -0.122717 0.000000 0.954540 -0.005310 0.000000 1.330940 0.455419 0.000000 1.253002 0.748976 0.000000 0.612851 0.216247 0.000000 -0.000000 -0.137867 0.000000 -0.612851 0.216247 0.000000 -1.253002 0.748976 0.000000 -1.330940 0.455419 0.000000 -0.954540 -0.005310 0.000000 -0.666992 -0.122717 0.000000 -0.372823 -0.470070 0.000000 -0.535400 -0.692496 0.000000 -0.566572 -0.685845 0.000000 -0.596528 -0.623061 0.000000 -0.575706 -0.500757 0.000000 -0.569240 -0.286885 0.000000 -0.509378 -0.020889 0.000000 -0.444833 0.277950 0.000000 -0.321165 0.571200 0.000000 -0.175645 0.775544 0.000000 
-0.000000 0.689134 0.000000 0.181513 0.614593 0.000000 0.334738 0.440532 0.000000 0.459933 0.186695 0.000000 0.532425 -0.072631 0.000000 0.584029 -0.310533 0.000000 0.597364 -0.495885 0.000000 0.600848 -0.601133 0.000000 0.590239 -0.642981 0.000000 0.563602 -0.566729 0.000000 0.496017 -0.417126 0.000000 0.561226 -0.058631 0.000000 0.614435 -0.006850 0.000000 0.617878 -0.118872 0.000000 0.881683 0.368549 0.000000 0.692095 0.854609 0.000000 -0.000000 0.963649 0.000000 -0.692095 0.854609 0.000000 -0.881683 0.368549 0.000000 -0.617878 -0.118872 0.000000 -0.614435 -0.006850 0.000000 -0.561226 -0.058631 0.000000 -0.496017 -0.417126 0.000000 -0.563602 -0.566729 0.000000 -0.590239 -0.642981 0.000000 -0.600848 -0.601133 0.000000 -0.597364 -0.495885 0.000000 -0.584029 -0.310533 0.000000 -0.532425 -0.072631 0.000000 -0.459933 0.186695 0.000000 -0.334738 0.440532 0.000000 -0.181513 0.614593 0.000000 
0.000000 0.500232 0.000000 0.170721 0.440806 0.000000 0.314956 0.292780 0.000000 0.430695 0.080262 0.000000 0.494929 -0.144985 0.000000 0.537062 -0.351824 0.000000 0.536757 -0.517576 0.000000 0.533361 -0.615936 0.000000 0.505630 -0.648599 0.000000 0.483810 -0.598274 0.000000 0.462934 -0.467695 0.000000 0.474471 -0.241135 0.000000 0.609971 -0.061962 0.000000 0.487882 0.188171 0.000000 0.309837 0.674759 0.000000 0.195966 1.097930 0.000000 -0.000000 1.246323 0.000000 -0.195966 1.097930 0.000000 -0.309837 0.674759 0.000000 -0.487882 0.188171 0.000000 -0.609971 -0.061962 0.000000 -0.474471 -0.241135 0.000000 -0.462934 -0.467695 0.000000 -0.483810 -0.598274 0.000000 -0.505630 -0.648599 0.000000 -0.533361 -0.615936 0.000000 -0.536757 -0.517576 0.000000 -0.537062 -0.351824 0.000000 -0.494929 -0.144985 0.000000 -0.430695 0.080262 0.000000 -0.314956 0.292780 0.000000 -0.170721 0.440806 0.000000 
0.000000 0.347692 0.000000 0.145503 0.299636 0.000000 0.267937 0.180558 0.000000 0.359913 0.006723 0.000000 0.407180 -0.178998 0.000000 0.424820 -0.352361 0.000000 0.408527 -0.492184 0.000000 0.377046 -0.570006 0.000000 0.331121 -0.593430 0.000000 0.281285 -0.524033 0.000000 0.229657 -0.407787 0.000000 0.193620 -0.205667 0.000000 0.184556 -0.020261 0.000000 0.104881 0.181263 0.000000 0.053814 0.660465 0.000000 0.032438 1.164446 0.000000 -0.000000 1.355581 0.000000 -0.032438 1.164446 0.000000 -0.053814 0.660465 0.000000 -0.104881 0.181263 0.000000 -0.184556 -0.020261 0.000000 -0.193620 -0.205667 0.000000 -0.229657 -0.407787 0.000000 -0.281285 -0.524033 0.000000 -0.331121 -0.593430 0.000000 -0.377046 -0.570006 0.000000 -0.408527 -0.492184 0.000000 -0.424820 -0.352361 0.000000 -0.407180 -0.178998 0.000000 -0.359913 0.006723 0.000000 -0.267937 0.180558 0.000000 -0.145503 0.299636 0.000000 
0.000000 0.209227 0.000000 0.114214 0.172870 0.000000 0.207246 0.078370 0.000000 0.271782 -0.058981 0.000000 0.293447 -0.209891 0.000000 0.286373 -0.353172 0.000000 0.244126 -0.469803 0.000000 0.187781 -0.538530 0.000000 0.118441 -0.552837 0.000000 0.048753 -0.496810 0.000000 -0.003057 -0.380030 0.000000 -0.053630 -0.196034 0.000000 -0.059782 0.026776 0.000000 -0.126392 0.318914 0.000000 -0.180845 0.747202 0.000000 -0.122449 1.151743 0.000000 0.000000 1.311200 0.000000 0.122449 1.151743 0.000000 0.180845 0.747202 0.000000 0.126392 0.318914 0.000000 0.059782 0.026776 0.000000 0.053630 -0.196034 0.000000 0.003057 -0.380030 0.000000 -0.048753 -0.496810 0.000000 -0.118441 -0.552837 0.000000 -0.187781 -0.538530 0.000000 -0.244126 -0.469803 0.000000 -0.286373 -0.353172 0.000000 -0.293447 -0.209891 0.000000 -0.271782 -0.058981 0.000000 -0.207246 0.078370 0.000000 -0.114214 0.172870 0.000000 
0.000000 0.119263 0.000000 0.078219 0.092390 0.000000 0.137512 0.022990 0.000000 0.167763 -0.079478 0.000000 0.158468 -0.193589 0.000000 0.115728 -0.303040 0.000000 0.039048 -0.393592 0.000000 -0.057774 -0.444321 0.000000 -0.166520 -0.454402 0.000000 -0.272855 -0.402535 0.000000 -0.362121 -0.305403 0.000000 -0.428079 -0.148942 0.000000 -0.454974 0.052501 0.000000 -0.462167 0.302326 0.000000 -0.405028 0.656522 0.000000 -0.239398 0.983601 0.000000 0.000000 1.110682 0.000000 0.239398 0.983601 0.000000 0.405028 0.656522 0.000000 0.462167 0.302326 0.000000 0.454974 0.052501 0.000000 0.428079 -0.148942 0.000000 0.362121 -0.305403 0.000000 0.272855 -0.402535 0.000000 0.166520 -0.454402 0.000000 0.057774 -0.444321 0.000000 -0.039048 -0.393592 0.000000 -0.115728 -0.303040 0.000000 -0.158468 -0.193589 0.000000 -0.167763 -0.079478 0.000000 -0.137512 0.022990 0.000000 -0.078219 0.092390 0.000000 
-0.000000 0.052788 0.000000 0.049280 0.035358 0.000000 0.080440 -0.011174 0.000000 0.083464 -0.079938 0.000000 0.046712 -0.157856 0.000000 -0.024913 -0.233751 0.000000 -0.132636 -0.296301 0.000000 -0.262648 -0.332961 0.000000 -0.402968 -0.337757 0.000000 -0.540509 -0.301210 0.000000 -0.649081 -0.224806 0.000000 -0.729376 -0.103181 0.000000 -0.745802 0.060864 0.000000 -0.712728 0.268968 0.000000 -0.588627 0.524433 0.000000 -0.335779 0.746716 0.000000 0.000000 0.832404 0.000000 0.335779 0.746716 0.000000 0.588627 0.524433 0.000000 0.712728 0.268968 0.000000 0.745802 0.060864 0.000000 0.729376 -0.103181 0.000000 0.649081 -0.224806 0.000000 0.540509 -0.301210 0.000000 0.402968 -0.337757 0.000000 0.262648 -0.332961 0.000000 0.132636 -0.296301 0.000000 0.024913 -0.233751 0.000000 -0.046712 -0.157856 0.000000 -0.083464 -0.079938 0.000000 -0.080440 -0.011174 0.000000 -0.049280 0.035358 0.000000 
-0.000000 0.020703 0.000000 0.026394 0.011950 0.000000 0.035358 -0.011195 0.000000 0.015220 -0.045751 0.000000 -0.044580 -0.085211 0.000000 -0.142636 -0.123691 0.000000 -0.278331 -0.155857 0.000000 -0.438937 -0.173989 0.000000 -0.611292 -0.176541 0.000000 -0.776693 -0.156422 0.000000 -0.912502 -0.116537 0.000000 -1.001499 -0.052221 0.000000 -1.015683 0.035853 0.000000 -0.940635 0.145150 0.000000 -0.746716 0.279573 0.000000 -0.416202 0.394974 0.000000 0.000000 0.439124 0.000000 0.416202 0.394974 0.000000 0.746716 0.279573 0.000000 0.940635 0.145150 0.000000 1.015683 0.035853 0.000000 1.001499 -0.052221 0.000000 0.912502 -0.116537 0.000000 0.776693 -0.156422 0.000000 0.611292 -0.176541 0.000000 0.438937 -0.173989 0.000000 0.278331 -0.155857 0.000000 0.142636 -0.123691 0.000000 0.044580 -0.085211 0.000000 -0.015220 -0.045751 0.000000 -0.035358 -0.011195 0.000000 -0.026394 0.011950 0.000000 
