# vtk DataFile Version 2.0
Comment goes here
ASCII

DATASET STRUCTURED_POINTS
FIELD FieldData 1
TIME 1 1 double
0.52000000
DIMENSIONS    32   32   1

ORIGIN    0.000   0.000   0.000
SPACING   0.03125 0.03125   1.000

POINT_DATA   1024
VECTORS u double

-0.000000 -0.000000 0.000000 0.096656 -0.000000 0.000000 0.185284 -0.000000 0.000000 0.268913 0.000000 0.000000 0.330116 -0.000000 0.000000 0.375099 0.000000 0.000000 0.384488 0.000000 0.000000 0.349337 0.000000 0.000000 0.270366 0.000000 0.000000 0.105200 0.000000 0.000000 -0.074432 0.000000 0.000000 -0.351749 0.000000 0.000000 -0.536765 -0.000000 0.000000 -0.723944 -0.000000 0.000000 -0.692155 -0.000000 0.000000 -0.460640 -0.000000 0.000000 -0.000000 0.000000 0.000000 0.460640 0.000000 0.000000 0.692155 0.000000 0.000000 0.723944 0.000000 0.000000 0.536765 0.000000 0.000000 0.351749 0.000000 0.000000 0.074432 -0.000000 0.000000 -0.105200 -0.000000 0.000000 -0.270366 -0.000000 0.000000 -0.349337 -0.000000 0.000000 -0.384488 -0.000000 0.000000 -0.375099 -0.000000 0.000000 -0.330116 -0.000000 0.000000 -0.268913 -0.000000 0.000000 -0.185284 -0.000000 0.000000 -0.096656 -0.000000 0.000000 
0.000000 -0.096656 0.000000 0.098062 -0.092642 0.000000 0.188168 -0.086128 0.000000 0.273979 -0.072416 0.000000 0.338175 -0.053093 0.000000 0.389130 -0.027186 0.000000 0.406905 0.012881 0.000000 0.387586 0.057061 0.000000 0.327646 0.122069 0.000000 0.192754 0.172399 0.000000 0.039871 0.228475 0.000000 -0.203494 0.231167 0.000000 -0.376529 0.186097 0.000000 -0.550122 0.077695 0.000000 -0.553393 -0.131652 0.000000 -0.410377 -0.346078 0.000000 -0.000000 -0.460640 0.000000 0.410377 -0.346078 0.000000 0.553393 -0.131652 0.000000 0.550122 0.077695 0.000000 0.376529 0.186097 0.000000 0.203494 0.231167 0.000000 -0.039871 0.228475 0.000000 -0.192754 0.172399 0.000000 -0.327646 0.122069 0.000000 -0.387586 0.057061 0.000000 -0.406905 0.012881 0.000000 -0.389130 -0.027186 0.000000 -0.338175 -0.053093 0.000000 -0.273979 -0.072416 0.000000 -0.188168 -0.086128 0.000000 -0.098062 -0.092642 0.000000 
-0.000000 -0.196124 0.000000 0.106355 -0.188168 0.000000 0.203960 -0.175917 0.000000 0.299844 -0.150007 0.000000 0.373649 -0.115151 0.000000 0.442945 -0.068730 0.000000 0.481749 0.001544 0.000000 0.501012 0.079259 0.000000 0.485976 0.194832 0.000000 0.411625 0.287775 0.000000 0.321719 0.396248 0.000000 0.102922 0.416400 0.000000 -0.044802 0.346628 0.000000 -0.314290 0.176864 0.000000 -0.436323 -0.139745 0.000000 -0.345574 -0.553393 0.000000 0.000000 -0.820755 0.000000 0.345574 -0.553393 0.000000 0.436323 -0.139745 0.000000 0.314290 0.176864 0.000000 0.044802 0.346628 0.000000 -0.102922 0.416400 0.000000 -0.321719 0.396248 0.000000 -0.411625 0.287775 0.000000 -0.485976 0.194832 0.000000 -0.501012 0.079259 0.000000 -0.481749 0.001544 0.000000 -0.442945 -0.068730 0.000000 -0.373649 -0.115151 0.000000 -0.299844 -0.150007 0.000000 -0.203960 -0.175917 0.000000 -0.106355 -0.188168 0.000000 
0.000000 -0.309366 0.000000 0.116225 -0.296602 0.000000 0.222552 -0.279617 0.000000 0.329524 -0.242105 0.000000 0.414321 -0.196194 0.000000 0.505360 -0.135286 0.000000 0.570216 -0.045186 0.000000 0.639364 0.052834 0.000000 0.680752 0.211455 0.000000 0.694022 0.336656 0.000000 0.688729 0.537178 0.000000 0.540536 0.597688 0.000000 0.471685 0.603310 0.000000 0.271543 0.469216 0.000000 0.006259 -0.100368 0.000000 -0.168960 -0.782401 0.000000 -0.000000 -1.151788 0.000000 0.168960 -0.782401 0.000000 -0.006259 -0.100368 0.000000 -0.271543 0.469216 0.000000 -0.471685 0.603310 0.000000 -0.540536 0.597688 0.000000 -0.688729 0.537178 0.000000 -0.694022 0.336656 0.000000 -0.680752 0.211455 0.000000 -0.639364 0.052834 0.000000 -0.570216 -0.045186 0.000000 -0.505360 -0.135286 0.000000 -0.414321 -0.196194 0.000000 -0.329524 -0.242105 0.000000 -0.222552 -0.279617 0.000000 -0.116225 -0.296602 0.000000 
0.000000 -0.428574 0.000000 0.131817 -0.410720 0.000000 0.250781 -0.389217 0.000000 0.372911 -0.341776 0.000000 0.469501 -0.290987 0.000000 0.586830 -0.224625 0.000000 0.678117 -0.132459 0.000000 0.807829 -0.031277 0.000000 0.907007 0.140174 0.000000 1.037740 0.279797 0.000000 1.126510 0.549734 0.000000 1.039968 0.633444 0.000000 1.111892 0.615621 0.000000 0.625314 0.642291 0.000000 0.321264 0.300758 0.000000 0.314446 -0.547134 0.000000 -0.000000 -1.158675 0.000000 -0.314446 -0.547134 0.000000 -0.321264 0.300758 0.000000 -0.625314 0.642291 0.000000 -1.111892 0.615621 0.000000 -1.039968 0.633444 0.000000 -1.126510 0.549734 0.000000 -1.037740 0.279797 0.000000 -0.907007 0.140174 0.000000 -0.807829 -0.031277 0.000000 -0.678117 -0.132459 0.000000 -0.586830 -0.224625 0.000000 -0.469501 -0.290987 0.000000 -0.372911 -0.341776 0.000000 -0.250781 -0.389217 0.000000 -0.131817 -0.410720 0.000000 
0.000000 -0.573000 0.000000 0.146838 -0.547383 0.000000 0.276582 -0.520712 0.000000 0.408625 -0.460824 0.000000 0.511102 -0.410112 0.000000 0.645405 -0.343902 0.000000 0.756465 -0.266185 0.000000 0.935062 -0.176056 0.000000 1.083611 -0.018457 0.000000 1.332484 0.117153 0.000000 1.473320 0.534950 0.000000 1.377910 0.612305 0.000000 1.608464 1.017964 0.000000 1.967297 1.259844 0.000000 2.415563 0.210499 0.000000 1.678407 -0.461137 0.000000 -0.000000 -0.522895 0.000000 -1.678407 -0.461137 0.000000 -2.415563 0.210499 0.000000 -1.967297 1.259844 0.000000 -1.608464 1.017964 0.000000 -1.377910 0.612305 0.000000 -1.473320 0.534950 0.000000 -1.332484 0.117153 0.000000 -1.083611 -0.018457 0.000000 -0.935062 -0.176056 0.000000 -0.756465 -0.266185 0.000000 -0.645405 -0.343902 0.000000 -0.511102 -0.410112 0.000000 -0.408625 -0.460824 0.000000 -0.276582 -0.520712 0.000000 -0.146838 -0.547383 0.000000 
0.000000 -0.722249 0.000000 0.165716 -0.687302 0.000000 0.307524 -0.651004 0.000000 0.448068 -0.576296 0.000000 0.550562 -0.527767 0.000000 0.696461 -0.469987 0.000000 0.819332 -0.422116 0.000000 1.048497 -0.358424 0.000000 1.255477 -0.257248 0.000000 1.695005 -0.109911 0.000000 1.833930 0.504308 0.000000 2.312921 0.498300 0.000000 3.055555 0.026234 0.000000 3.306919 -0.164809 0.000000 2.574975 0.589649 0.000000 1.133991 1.868429 0.000000 -0.000000 2.198139 0.000000 -1.133991 1.868429 0.000000 -2.574975 0.589649 0.000000 -3.306919 -0.164809 0.000000 -3.055555 0.026234 0.000000 -2.312921 0.498300 0.000000 -1.833930 0.504308 0.000000 -1.695005 -0.109911 0.000000 -1.255477 -0.257248 0.000000 -1.048497 -0.358424 0.000000 -0.819332 -0.422116 0.000000 -0.696461 -0.469987 0.000000 -0.550562 -0.527767 0.000000 -0.448068 -0.576296 0.000000 -0.307524 -0.651004 0.000000 -0.165716 -0.687302 0.000000 
0.000000 -0.904431 0.000000 0.179918 -0.854907 0.000000 0.328329 -0.803064 0.000000 0.466333 -0.703862 0.000000 0.556304 -0.658505 0.000000 0.695236 -0.612672 0.000000 0.820319 -0.618221 0.000000 1.077827 -0.612201 0.000000 1.428488 -0.664964 0.000000 1.874469 -0.461301 0.000000 2.082108 -0.082967 0.000000 2.290429 -0.609320 0.000000 1.673460 0.023966 0.000000 0.261038 1.740425 0.000000 -0.700938 2.383428 0.000000 -0.597372 2.113839 0.000000 0.000000 1.745087 0.000000 0.597372 2.113839 0.000000 0.700938 2.383428 0.000000 -0.261038 1.740425 0.000000 -1.673460 0.023966 0.000000 -2.290429 -0.609320 0.000000 -2.082108 -0.082967 0.000000 -1.874469 -0.461301 0.000000 -1.428488 -0.664964 0.000000 -1.077827 -0.612201 0.000000 -0.820319 -0.618221 0.000000 -0.695236 -0.612672 0.000000 -0.556304 -0.658505 0.000000 -0.466333 -0.703862 0.000000 -0.328329 -0.803064 0.000000 -0.179918 -0.854907 0.000000 
0.000000 -1.082085 0.000000 0.190294 -1.015631 0.000000 0.341947 -0.937419 0.000000 0.470460 -0.804272 0.000000 0.536563 -0.756670 0.000000 0.649572 -0.734001 0.000000 0.756532 -0.804708 0.000000 1.009810 -0.966593 0.000000 1.427759 -1.053889 0.000000 1.254818 -0.763530 0.000000 0.970399 0.088348 0.000000 0.163662 0.906948 0.000000 -1.147806 2.055625 0.000000 -1.419140 2.209589 0.000000 -0.671734 1.448059 0.000000 -0.123907 1.167491 0.000000 0.000000 1.003395 0.000000 0.123907 1.167491 0.000000 0.671734 1.448059 0.000000 1.419140 2.209589 0.000000 1.147806 2.055625 0.000000 -0.163662 0.906948 0.000000 -0.970399 0.088348 0.000000 -1.254818 -0.763530 0.000000 -1.427759 -1.053889 0.000000 -1.009810 -0.966593 0.000000 -0.756532 -0.804708 0.000000 -0.649572 -0.734001 0.000000 -0.536563 -0.756670 0.000000 -0.470460 -0.804272 0.000000 -0.341947 -0.937419 0.000000 -0.190294 -1.015631 0.000000 
0.000000 -1.285018 0.000000 0.182396 -1.196855 0.000000 0.323643 -1.083230 0.000000 0.425750 -0.898478 0.000000 0.447103 -0.837618 0.000000 0.513824 -0.832641 0.000000 0.533101 -0.978459 0.000000 0.815439 -1.283428 0.000000 0.702968 -0.909972 0.000000 -0.102435 -0.003941 0.000000 -0.623691 1.008188 0.000000 -1.161545 1.508885 0.000000 -1.140917 1.606768 0.000000 -0.273756 1.264353 0.000000 0.108897 1.088195 0.000000 0.183100 1.442104 0.000000 0.000000 1.497272 0.000000 -0.183100 1.442104 0.000000 -0.108897 1.088195 0.000000 0.273756 1.264353 0.000000 1.140917 1.606768 0.000000 1.161545 1.508885 0.000000 0.623691 1.008188 0.000000 0.102435 -0.003941 0.000000 -0.702968 -0.909972 0.000000 -0.815439 -1.283428 0.000000 -0.533101 -0.978459 0.000000 -0.513824 -0.832641 0.000000 -0.447103 -0.837618 0.000000 -0.425750 -0.898478 0.000000 -0.323643 -1.083230 0.000000 -0.182396 -1.196855 0.000000 
0.000000 -1.446878 0.000000 0.154487 -1.339275 0.000000 0.272228 -1.180773 0.000000 0.338807 -0.927731 0.000000 0.311525 -0.844743 0.000000 0.327869 -0.819999 0.000000 0.224176 -1.106323 0.000000 0.457230 -1.136461 0.000000 -0.557952 -0.136015 0.000000 -1.047863 0.563129 0.000000 -0.987925 1.147458 0.000000 -1.344619 1.424174 0.000000 -0.909393 1.167836 0.000000 -0.355738 0.959775 0.000000 -0.230456 0.991203 0.000000 -0.079804 1.276388 0.000000 -0.000000 1.369595 0.000000 0.079804 1.276388 0.000000 0.230456 0.991203 0.000000 0.355738 0.959775 0.000000 0.909393 1.167836 0.000000 1.344619 1.424174 0.000000 0.987925 1.147458 0.000000 1.047863 0.563129 0.000000 0.557952 -0.136015 0.000000 -0.457230 -1.136461 0.000000 -0.224176 -1.106323 0.000000 -0.327869 -0.819999 0.000000 -0.311525 -0.844743 0.000000 -0.338807 -0.927731 0.000000 -0.272228 -1.180773 0.000000 -0.154487 -1.339275 0.000000 
0.000000 -1.593992 0.000000 0.092601 -1.469082 0.000000 0.163720 -1.267550 0.000000 0.161637 -0.937775 0.000000 0.095771 -0.826680 0.000000 -0.027525 -0.745292 0.000000 -0.187315 -1.107819 0.000000 -0.429108 -0.501300 0.000000 -1.433473 0.595121 0.000000 -1.162065 0.426032 0.000000 -1.223063 1.304944 0.000000 -1.556792 1.430353 0.000000 -0.866437 0.617887 0.000000 -0.654291 0.585416 0.000000 -0.387828 0.812261 0.000000 -0.206829 1.211648 0.000000 0.000000 1.337664 0.000000 0.206829 1.211648 0.000000 0.387828 0.812261 0.000000 0.654291 0.585416 0.000000 0.866437 0.617887 0.000000 1.556792 1.430353 0.000000 1.223063 1.304944 0.000000 1.162065 0.426032 0.000000 1.433473 0.595121 0.000000 0.429108 -0.501300 0.000000 0.187315 -1.107819 0.000000 0.027525 -0.745292 0.000000 -0.095771 -0.826680 0.000000 -0.161637 -0.937775 0.000000 -0.163720 -1.267550 0.000000 -0.092601 -1.469082 0.000000 
0.000000 -1.632080 0.000000 -0.005056 -1.502994 0.000000 -0.008929 -1.249810 0.000000 -0.097958 -0.859782 0.000000 -0.179413 -0.655581 0.000000 -0.446705 -0.536913 0.000000 -0.579900 -0.704740 0.000000 -1.347279 0.109696 0.000000 -1.546898 0.596942 0.000000 -1.066772 0.352720 0.000000 -1.578849 1.542185 0.000000 -1.389292 1.067548 0.000000 -0.880146 0.265335 0.000000 -0.845740 0.481166 0.000000 -0.602942 0.543740 0.000000 -0.351434 0.888560 0.000000 0.000000 0.955937 0.000000 0.351434 0.888560 0.000000 0.602942 0.543740 0.000000 0.845740 0.481166 0.000000 0.880146 0.265335 0.000000 1.389292 1.067548 0.000000 1.578849 1.542185 0.000000 1.066772 0.352720 0.000000 1.546898 0.596942 0.000000 1.347279 0.109696 0.000000 0.579900 -0.704740 0.000000 0.446705 -0.536913 0.000000 0.179413 -0.655581 0.000000 0.097958 -0.859782 0.000000 0.008929 -1.249810 0.000000 0.005056 -1.502994 0.000000 
0.000000 -1.583880 0.000000 -0.152634 -1.460153 0.000000 -0.283766 -1.174649 0.000000 -0.463980 -0.767291 0.000000 -0.600893 -0.477933 0.000000 -0.940328 -0.344806 0.000000 -1.147593 -0.207245 0.000000 -1.828571 0.465698 0.000000 -1.427739 0.314614 0.000000 -1.208165 0.457983 0.000000 -1.520917 1.627464 0.000000 -1.007023 0.731650 0.000000 -0.893233 0.074336 0.000000 -0.733821 0.308212 0.000000 -0.564542 0.317955 0.000000 -0.318882 0.608706 0.000000 0.000000 0.634797 0.000000 0.318882 0.608706 0.000000 0.564542 0.317955 0.000000 0.733821 0.308212 0.000000 0.893233 0.074336 0.000000 1.007023 0.731650 0.000000 1.520917 1.627464 0.000000 1.208165 0.457983 0.000000 1.427739 0.314614 0.000000 1.828571 0.465698 0.000000 1.147593 -0.207245 0.000000 0.940328 -0.344806 0.000000 0.600893 -0.477933 0.000000 0.463980 -0.767291 0.000000 0.283766 -1.174649 0.000000 0.152634 -1.460153 0.000000 
0.000000 -1.326812 0.000000 -0.375382 -1.219228 0.000000 -0.708742 -0.938463 0.000000 -1.018361 -0.542655 0.000000 -1.230245 -0.179233 0.000000 -1.492675 0.009787 0.000000 -1.639955 0.183502 0.000000 -1.791344 0.389843 0.000000 -1.288793 -0.023464 0.000000 -1.460736 0.445897 0.000000 -1.255642 1.341043 0.000000 -0.617522 0.439864 0.000000 -0.737775 -0.007867 0.000000 -0.533795 0.152476 0.000000 -0.473717 0.128802 0.000000 -0.252211 0.324018 0.000000 0.000000 0.318172 0.000000 0.252211 0.324018 0.000000 0.473717 0.128802 0.000000 0.533795 0.152476 0.000000 0.737775 -0.007867 0.000000 0.617522 0.439864 0.000000 1.255642 1.341043 0.000000 1.460736 0.445897 0.000000 1.288793 -0.023464 0.000000 1.791344 0.389843 0.000000 1.639955 0.183502 0.000000 1.492675 0.009787 0.000000 1.230245 -0.179233 0.000000 1.018361 -0.542655 0.000000 0.708742 -0.938463 0.000000 0.375382 -1.219228 0.000000 
0.000000 -0.833115 0.000000 -0.663406 -0.751412 0.000000 -1.219228 -0.531670 0.000000 -1.601869 -0.245787 0.000000 -1.761883 -0.003619 0.000000 -1.781102 0.064904 0.000000 -1.752096 0.091424 0.000000 -1.597600 0.114536 0.000000 -1.362254 -0.015993 0.000000 -1.621064 0.424832 0.000000 -0.916357 0.784249 0.000000 -0.280021 0.213784 0.000000 -0.476493 -0.009391 0.000000 -0.287888 0.044154 0.000000 -0.324018 0.036371 0.000000 -0.159086 0.134989 0.000000 -0.000000 0.130374 0.000000 0.159086 0.134989 0.000000 0.324018 0.036371 0.000000 0.287888 0.044154 0.000000 0.476493 -0.009391 0.000000 0.280021 0.213784 0.000000 0.916357 0.784249 0.000000 1.621064 0.424832 0.000000 1.362254 -0.015993 0.000000 1.597600 0.114536 0.000000 1.752096 0.091424 0.000000 1.781102 0.064904 0.000000 1.761883 -0.003619 0.000000 1.601869 -0.245787 0.000000 1.219228 -0.531670 0.000000 0.663406 -0.751412 0.000000 
-0.000000 0.000000 0.000000 -0.833115 0.000000 0.000000 -1.502823 0.000000 0.000000 -1.896456 0.000000 0.000000 -1.994398 0.000000 0.000000 -1.903694 0.000000 0.000000 -1.864589 0.000000 0.000000 -1.720845 0.000000 0.000000 -1.635517 0.000000 0.000000 -1.752832 -0.000000 0.000000 -0.785854 -0.000000 0.000000 -0.184334 -0.000000 0.000000 -0.358286 -0.000000 0.000000 -0.203117 -0.000000 0.000000 -0.269978 -0.000000 0.000000 -0.130374 -0.000000 0.000000 0.000000 -0.000000 0.000000 0.130374 -0.000000 0.000000 0.269978 -0.000000 0.000000 0.203117 -0.000000 0.000000 0.358286 -0.000000 0.000000 0.184334 -0.000000 0.000000 0.785854 -0.000000 0.000000 1.752832 0.000000 0.000000 1.635517 0.000000 0.000000 1.720845 -0.000000 0.000000 1.864589 0.000000 0.000000 1.903694 0.000000 0.000000 1.994398 0.000000 0.000000 1.896456 0.000000 0.000000 1.502823 0.000000 0.000000 0.833115 0.000000 0.000000 
-0.000000 0.833115 0.000000 -0.663406 0.751412 0.000000 -1.219228 0.531670 0.000000 -1.601869 0.245787 0.000000 -1.761883 0.003619 0.000000 -1.781102 -0.064904 0.000000 -1.752096 -0.091424 0.000000 -1.597600 -0.114536 0.000000 -1.362254 0.015993 0.000000 -1.621064 -0.424832 0.000000 -0.916357 -0.784249 0.000000 -0.280021 -0.213784 0.000000 -0.476493 0.009391 0.000000 -0.287888 -0.044154 0.000000 -0.324018 -0.036371 0.000000 -0.159086 -0.134989 0.000000 -0.000000 -0.130374 0.000000 0.159086 -0.134989 0.000000 0.324018 -0.036371 0.000000 0.287888 -0.044154 0.000000 0.476493 0.009391 0.000000 0.280021 -0.213784 0.000000 0.916357 -0.784249 0.000000 1.621064 -0.424832 0.000000 1.362254 0.015993 0.000000 1.597600 -0.114536 0.000000 1.752096 -0.091424 0.000000 1.781102 -0.064904 0.000000 1.761883 0.003619 0.000000 1.601869 0.245787 0.000000 1.219228 0.531670 0.000000 0.663406 0.751412 0.000000 
-0.000000 1.326812 0.000000 -0.375382 1.219228 0.000000 -0.708742 0.938463 0.000000 -1.018361 0.542655 0.000000 -1.230245 0.179233 0.000000 -1.492675 -0.009787 0.000000 -1.639955 -0.183502 0.000000 -1.791344 -0.389843 0.000000 -1.288793 0.023464 0.000000 -1.460736 -0.445897 0.000000 -1.255642 -1.341043 0.000000 -0.617522 -0.439864 0.000000 -0.737775 0.007867 0.000000 -0.533795 -0.152476 0.000000 -0.473717 -0.128802 0.000000 -0.252211 -0.324018 0.000000 -0.000000 -0.318172 0.000000 0.252211 -0.324018 0.000000 0.473717 -0.128802 0.000000 0.533795 -0.152476 0.000000 0.737775 0.007867 0.000000 0.617522 -0.439864 0.000000 1.255642 -1.341043 0.000000 1.460736 -0.445897 0.000000 1.288793 0.023464 0.000000 1.791344 -0.389843 0.000000 1.639955 -0.183502 0.000000 1.492675 -0.009787 0.000000 1.230245 0.179233 0.000000 1.018361 0.542655 0.000000 0.708742 0.938463 0.000000 0.375382 1.219228 0.000000 
-0.000000 1.583880 0.000000 -0.152634 1.460153 0.000000 -0.283766 1.174649 0.000000 -0.463980 0.767291 0.000000 -0.600893 0.477933 0.000000 -0.940328 0.344806 0.000000 -1.147593 0.207245 0.000000 -1.828571 -0.465698 0.000000 -1.427739 -0.314614 0.000000 -1.208165 -0.457983 0.000000 -1.520917 -1.627464 0.000000 -1.007023 -0.731650 0.000000 -0.893233 -0.074336 0.000000 -0.733821 -0.308212 0.000000 -0.564542 -0.317955 0.000000 -0.318882 -0.608706 0.000000 -0.000000 -0.634797 0.000000 0.318882 -0.608706 0.000000 0.564542 -0.317955 0.000000 0.733821 -0.308212 0.000000 0.893233 -0.074336 0.000000 1.007023 -0.731650 0.000000 1.520917 -1.627464 0.000000 1.208165 -0.457983 0.000000 1.427739 -0.314614 0.000000 1.828571 -0.465698 0.000000 1.147593 0.207245 0.000000 0.940328 0.344806 0.000000 0.600893 0.477933 0.000000 0.463980 0.767291 0.000000 0.283766 1.174649 0.000000 0.152634 1.460153 0.000000 
-0.000000 1.632080 0.000000 -0.005056 1.502994 0.000000 -0.008929 1.249810 0.000000 -0.097958 0.859782 0.000000 -0.179413 0.655581 0.000000 -0.446705 0.536913 0.000000 -0.579900 0.704740 0.000000 -1.347279 -0.109696 0.000000 -1.546898 -0.596942 0.000000 -1.066772 -0.352720 0.000000 -1.578849 -1.542185 0.000000 -1.389292 -1.067548 0.000000 -0.880146 -0.265335 0.000000 -0.845740 -0.481166 0.000000 -0.602942 -0.543740 0.000000 -0.351434 -0.888560 0.000000 -0.000000 -0.955937 0.000000 0.351434 -0.888560 0.000000 0.602942 -0.543740 0.000000 0.845740 -0.481166 0.000000 0.880146 -0.265335 0.000000 1.389292 -1.067548 0.000000 1.578849 -1.542185 0.000000 1.066772 -0.352720 0.000000 1.546898 -0.596942 0.000000 1.347279 -0.109696 0.000000 0.579900 0.704740 0.000000 0.446705 0.536913 0.000000 0.179413 0.655581 0.000000 0.097958 0.859782 0.000000 0.008929 1.249810 0.000000 0.005056 1.502994 0.000000 
-0.000000 1.593992 0.000000 0.092601 1.469082 0.000000 0.163720 1.267550 0.000000 0.161637 0.937775 0.000000 0.095771 0.826680 0.000000 -0.027525 0.745292 0.000000 -0.187315 1.107819 0.000000 -0.429108 0.501300 0.000000 -1.433473 -0.595121 0.000000 -1.162065 -0.426032 0.000000 -1.223063 -1.304944 0.000000 -1.556792 -1.430353 0.000000 -0.866437 -0.617887 0.000000 -0.654291 -0.585416 0.000000 -0.387828 -0.812261 0.000000 -0.206829 -1.211648 0.000000 -0.000000 -1.337664 0.000000 0.206829 -1.211648 0.000000 0.387828 -0.812261 0.000000 0.654291 -0.585416 0.000000 0.866437 -0.617887 0.000000 1.556792 -1.430353 0.000000 1.223063 -1.304944 0.000000 1.162065 -0.426032 0.000000 1.433473 -0.595121 0.000000 0.429108 0.501300 0.000000 0.187315 1.107819 0.000000 0.027525 0.745292 0.000000 -0.095771 0.826680 0.000000 -0.161637 0.937775 0.000000 -0.163720 1.267550 0.000000 -0.092601 1.469082 0.000000 
-0.000000 1.446878 0.000000 0.154487 1.339275 0.000000 0.272228 1.180773 0.000000 0.338807 0.927731 0.000000 0.311525 0.844743 0.000000 0.327869 0.819999 0.000000 0.224176 1.106323 0.000000 0.457230 1.136461 0.000000 -0.557952 0.136015 0.000000 -1.047863 -0.563129 0.000000 -0.987925 -1.147458 0.000000 -1.344619 -1.424174 0.000000 -0.909393 -1.167836 0.000000 -0.355738 -0.959775 0.000000 -0.230456 -0.991203 0.000000 -0.079804 -1.276388 0.000000 -0.000000 -1.369595 0.000000 0.079804 -1.276388 0.000000 0.230456 -0.991203 0.000000 0.355738 -0.959775 0.000000 0.909393 -1.167836 0.000000 1.344619 -1.424174 0.000000 0.987925 -1.147458 0.000000 1.047863 -0.563129 0.000000 0.557952 0.136015 0.000000 -0.457230 1.136461 0.000000 -0.224176 1.106323 0.000000 -0.327869 0.819999 0.000000 -0.311525 0.844743 0.000000 -0.338807 0.927731 0.000000 -0.272228 1.180773 0.000000 -0.154487 1.339275 0.000000 
0.000000 1.285018 0.000000 0.182396 1.196855 0.000000 0.323643 1.083230 0.000000 0.425750 0.898478 0.000000 0.447103 0.837618 0.000000 0.513824 0.832641 0.000000 0.533101 0.978459 0.000000 0.815439 1.283428 0.000000 0.702968 0.909972 0.000000 -0.102435 0.003941 0.000000 -0.623691 -1.008188 0.000000 -1.161545 -1.508885 0.000000 -1.140917 -1.606768 0.000000 -0.273756 -1.264353 0.000000 0.108897 -1.088195 0.000000 0.183100 -1.442104 0.000000 -0.000000 -1.497272 0.000000 -0.183100 -1.442104 0.000000 -0.108897 -1.088195 0.000000 0.273756 -1.264353 0.000000 1.140917 -1.606768 0.000000 1.161545 -1.508885 0.000000 0.623691 -1.008188 0.000000 0.102435 0.003941 0.000000 -0.702968 0.909972 0.000000 -0.815439 1.283428 0.000000 -0.533101 0.978459 0.000000 -0.513824 0.832641 0.000000 -0.447103 0.837618 0.000000 -0.425750 0.898478 0.000000 -0.323643 1.083230 0.000000 -0.182396 1.196855 0.000000 
-0.000000 1.082085 0.000000 0.190294 1.015631 0.000000 0.341947 0.937419 0.000000 0.470460 0.804272 0.000000 0.536563 0.756670 0.000000 0.649572 0.734001 0.000000 0.756532 0.804708 0.000000 1.009810 0.966593 0.000000 1.427759 1.053889 0.000000 1.254818 0.763530 0.000000 0.970399 -0.088348 0.000000 0.163662 -0.906948 0.000000 -1.147806 -2.055625 0.000000 -1.419140 -2.209589 0.000000 -0.671734 -1.448059 0.000000 -0.123907 -1.167491 0.000000 0.000000 -1.003395 0.000000 0.123907 -1.167491 0.000000 0.671734 -1.448059 0.000000 1.419140 -2.209589 0.000000 1.147806 -2.055625 0.000000 -0.163662 -0.906948 0.000000 -0.970399 -0.088348 0.000000 -1.254818 0.763530 0.000000 -1.427759 1.053889 0.000000 -1.009810 0.966593 0.000000 -0.756532 0.804708 0.000000 -0.649572 0.734001 0.000000 -0.536563 0.756670 0.000000 -0.470460 0.804272 0.000000 -0.341947 0.937419 0.000000 -0.190294 1.015631 0.000000 
0.000000 0.904431 0.000000 0.179918 0.854907 0.000000 0.328329 0.803064 0.000000 0.466333 0.703862 0.000000 0.556304 0.658505 0.000000 0.695236 0.612672 0.000000 0.820319 0.618221 0.000000 1.077827 0.612201 0.000000 1.428488 0.664964 0.000000 1.874469 0.461301 0.000000 2.082108 0.082967 0.000000 2.290429 0.609320 0.000000 1.673460 -0.023966 0.000000 0.261038 -1.740425 0.000000 -0.700938 -2.383428 0.000000 -0.597372 -2.113839 0.000000 0.000000 -1.745087 0.000000 0.597372 -2.113839 0.000000 0.700938 -2.383428 0.000000 -0.261038 -1.740425 0.000000 -1.673460 -0.023966 0.000000 -2.290429 0.609320 0.000000 -2.082108 0.082967 0.000000 -1.874469 0.461301 0.000000 -1.428488 0.664964 0.000000 -1.077827 0.612201 0.000000 -0.820319 0.618221 0.000000 -0.695236 0.612672 0.000000 -0.556304 0.658505 0.000000 -0.466333 0.703862 0.000000 -0.328329 0.803064 0.000000 -0.179918 0.854907 0.000000 
-0.000000 0.722249 0.000000 0.165716 0.687302 0.000000 0.307524 0.651004 0.000000 0.448068 0.576296 0.000000 0.550562 0.527767 0.000000 0.696461 0.469987 0.000000 0.819332 0.422116 0.000000 1.048497 0.358424 0.000000 1.255477 0.257248 0.000000 1.695005 0.109911 0.000000 1.833930 -0.504308 0.000000 2.312921 -0.498300 0.000000 3.055555 -0.026234 0.000000 3.306919 0.164809 0.000000 2.574975 -0.589649 0.000000 1.133991 -1.868429 0.000000 -0.000000 -2.198139 0.000000 -1.133991 -1.868429 0.000000 -2.574975 -0.589649 0.000000 -3.306919 0.164809 0.000000 -3.055555 -0.026234 0.000000 -2.312921 -0.498300 0.000000 -1.833930 -0.504308 0.000000 -1.695005 0.109911 0.000000 -1.255477 0.257248 0.000000 -1.048497 0.358424 0.000000 -0.819332 0.422116 0.000000 -0.696461 0.469987 0.000000 -0.550562 0.527767 0.000000 -0.448068 0.576296 0.000000 -0.307524 0.651004 0.000000 -0.165716 0.687302 0.000000 
-0.000000 0.573000 0.000000 0.146838 0.547383 0.000000 0.276582 0.520712 0.000000 0.408625 0.460824 0.000000 0.511102 0.410112 0.000000 0.645405 0.343902 0.000000 0.756465 0.266185 0.000000 0.935062 0.176056 0.000000 1.083611 0.018457 0.000000 1.332484 -0.117153 0.000000 1.473320 -0.534950 0.000000 1.377910 -0.612305 0.000000 1.608464 -1.017964 0.000000 1.967297 -1.259844 0.000000 2.415563 -0.210499 0.000000 1.678407 0.461137 0.000000 -0.000000 0.522895 0.000000 -1.678407 0.461137 0.000000 -2.415563 -0.210499 0.000000 -1.967297 -1.259844 0.000000 -1.608464 -1.017964 0.000000 -1.377910 -0.612305 0.000000 -1.473320 -0.534950 0.000000 -1.332484 -0.117153 0.000000 -1.083611 0.018457 0.000000 -0.935062 0.176056 0.000000 -0.756465 0.266185 0.000000 -0.645405 0.343902 0.000000 -0.511102 0.410112 0.000000 -0.408625 0.460824 0.000000 -0.276582 0.520712 0.000000 -0.146838 0.547383 0.000000 
-0.000000 0.428574 0.000000 0.131817 0.410720 0.000000 0.250781 0.389217 0.000000 0.372911 0.341776 0.000000 0.469501 0.290987 0.000000 0.586830 0.224625 0.000000 0.678117 0.132459 0.000000 0.807829 0.031277 0.000000 0.907007 -0.140174 0.000000 1.037740 -0.279797 0.000000 1.126510 -0.549734 0.000000 1.039968 -0.633444 0.000000 1.111892 -0.615621 0.000000 0.625314 -0.642291 0.000000 0.321264 -0.300758 0.000000 0.314446 0.547134 0.000000 0.000000 1.158675 0.000000 -0.314446 0.547134 0.000000 -0.321264 -0.300758 0.000000 -0.625314 -0.642291 0.000000 -1.111892 -0.615621 0.000000 -1.039968 -0.633444 0.000000 -1.126510 -0.549734 0.000000 -1.037740 -0.279797 0.000000 -0.907007 -0.140174 0.000000 -0.807829 0.031277 0.000000 -0.678117 0.132459 0.000000 -0.586830 0.224625 0.000000 -0.469501 0.290987 0.000000 -0.372911 0.341776 0.000000 -0.250781 0.389217 0.000000 -0.131817 0.410720 0.000000 
-0.000000 0.309366 0.000000 0.116225 0.296602 0.000000 0.222552 0.279617 0.000000 0.329524 0.242105 0.000000 0.414321 0.196194 0.000000 0.505360 0.135286 0.000000 0.570216 0.045186 0.000000 0.639364 -0.052834 0.000000 0.680752 -0.211455 0.000000 0.694022 -0.336656 0.000000 0.688729 -0.537178 0.000000 0.540536 -0.597688 0.000000 0.471685 -0.603310 0.000000 0.271543 -0.469216 0.000000 0.006259 0.100368 0.000000 -0.168960 0.782401 0.000000 -0.000000 1.151788 0.000000 0.168960 0.782401 0.000000 -0.006259 0.100368 0.000000 -0.271543 -0.469216 0.000000 -0.471685 -0.603310 0.000000 -0.540536 -0.597688 0.000000 -0.688729 -0.537178 0.000000 -0.694022 -0.336656 0.000000 -0.680752 -0.211455 0.000000 -0.639364 -0.052834 0.000000 -0.570216 0.045186 0.000000 -0.505360 0.135286 0.000000 -0.414321 0.196194 0.000000 -0.329524 0.242105 0.000000 -0.222552 0.279617 0.000000 -0.116225 0.296602 0.000000 
-0.000000 0.196124 0.000000 0.106355 0.188168 0.000000 0.203960 0.175917 0.000000 0.299844 0.150007 0.000000 0.373649 0.115151 0.000000 0.442945 0.068730 0.000000 0.481749 -0.001544 0.000000 0.501012 -0.079259 0.000000 0.485976 -0.194832 0.000000 0.411625 -0.287775 0.000000 0.321719 -0.396248 0.000000 0.102922 -0.416400 0.000000 -0.044802 -0.346628 0.000000 -0.314290 -0.176864 0.000000 -0.436323 0.139745 0.000000 -0.345574 0.553393 0.000000 0.000000 0.820755 0.000000 0.345574 0.553393 0.000000 0.436323 0.139745 0.000000 0.314290 -0.176864 0.000000 0.044802 -0.346628 0.000000 -0.102922 -0.416400 0.000000 -0.321719 -0.396248 0.000000 -0.411625 -0.287775 0.000000 -0.485976 -0.194832 0.000000 -0.501012 -0.079259 0.000000 -0.481749 -0.001544 0.000000 -0.442945 0.068730 0.000000 -0.373649 0.115151 0.000000 -0.299844 0.150007 0.000000 -0.203960 0.175917 0.000000 -0.106355 0.188168 0.000000 
0.000000 0.096656 0.000000 0.098062 0.092642 0.000000 0.188168 0.086128 0.000000 0.273979 0.072416 0.000000 0.338175 0.053093 0.000000 0.389130 0.027186 0.000000 0.406905 -0.012881 0.000000 0.387586 -0.057061 0.000000 0.327646 -0.122069 0.000000 0.192754 -0.172399 0.000000 0.039871 -0.228475 0.000000 -0.203494 -0.231167 0.000000 -0.376529 -0.186097 0.000000 -0.550122 -0.077695 0.000000 -0.553393 0.131652 0.000000 -0.410377 0.346078 0.000000 -0.000000 0.460640 0.000000 0.410377 0.346078 0.000000 0.553393 0.131652 0.000000 0.550122 -0.077695 0.000000 0.376529 -0.186097 0.000000 0.203494 -0.231167 0.000000 -0.039871 -0.228475 0.000000 -0.192754 -0.172399 0.000000 -0.327646 -0.122069 0.000000 -0.387586 -0.057061 0.000000 -0.406905 -0.012881 0.000000 -0.389130 0.027186 0.000000 -0.338175 0.053093 0.000000 -0.273979 0.072416 0.000000 -0.188168 0.086128 0.000000 -0.098062 0.092642 0.000000 
