# vtk DataFile Version 2.0
Comment goes here
ASCII

DATASET STRUCTURED_POINTS
FIELD FieldData 1
TIME 1 1 double
0.26000000
DIMENSIONS    32   32   1

ORIGIN    0.000   0.000   0.000
SPACING   0.03125 0.03125   1.000

POINT_DATA   1024
VECTORS u double

-0.000000 -0.000000 0.000000 -0.058733 0.000000 0.000000 -0.113700 -0.000000 0.000000 -0.176281 0.000000 0.000000 -0.227206 -0.000000 0.000000 -0.288011 0.000000 0.000000 -0.330374 -0.000000 0.000000 -0.380625 0.000000 0.000000 -0.410867 -0.000000 0.000000 -0.452795 -0.000000 0.000000 -0.482878 -0.000000 0.000000 -0.547552 -0.000000 0.000000 -0.612719 -0.000000 0.000000 -0.720463 -0.000000 0.000000 -0.747398 -0.000000 0.000000 -0.642283 -0.000000 0.000000 -0.000000 0.000000 0.000000 0.642283 0.000000 0.000000 0.747398 0.000000 0.000000 0.720463 0.000000 0.000000 0.612719 0.000000 0.000000 0.547552 0.000000 0.000000 0.482878 0.000000 0.000000 0.452795 0.000000 0.000000 0.410867 0.000000 0.000000 0.380625 0.000000 0.000000 0.330374 0.000000 0.000000 0.288011 0.000000 0.000000 0.227206 0.000000 0.000000 0.176281 0.000000 0.000000 0.113700 0.000000 0.000000 0.058733 0.000000 0.000000 
-0.000000 0.058733 0.000000 -0.059734 0.056850 0.000000 -0.115110 0.058774 0.000000 -0.180214 0.056753 0.000000 -0.231759 0.055865 0.000000 -0.296512 0.051584 0.000000 -0.339517 0.046307 0.000000 -0.393363 0.040246 0.000000 -0.421831 0.036085 0.000000 -0.462285 0.036005 0.000000 -0.481974 0.047378 0.000000 -0.532385 0.064920 0.000000 -0.585014 0.086456 0.000000 -0.680409 0.067340 0.000000 -0.716394 -0.039090 0.000000 -0.604833 -0.373699 0.000000 -0.000000 -0.642283 0.000000 0.604833 -0.373699 0.000000 0.716394 -0.039090 0.000000 0.680409 0.067340 0.000000 0.585014 0.086456 0.000000 0.532385 0.064920 0.000000 0.481974 0.047378 0.000000 0.462285 0.036005 0.000000 0.421831 0.036085 0.000000 0.393363 0.040246 0.000000 0.339517 0.046307 0.000000 0.296512 0.051584 0.000000 0.231759 0.055865 0.000000 0.180214 0.056753 0.000000 0.115110 0.058774 0.000000 0.059734 0.056850 0.000000 
0.000000 0.119469 0.000000 -0.058639 0.115110 0.000000 -0.113749 0.120480 0.000000 -0.179220 0.116649 0.000000 -0.232745 0.116298 0.000000 -0.298522 0.107758 0.000000 -0.343721 0.096852 0.000000 -0.394204 0.082314 0.000000 -0.418819 0.068921 0.000000 -0.443974 0.060143 0.000000 -0.448309 0.070101 0.000000 -0.474736 0.103040 0.000000 -0.507646 0.148024 0.000000 -0.579520 0.131380 0.000000 -0.619534 -0.075576 0.000000 -0.464657 -0.716394 0.000000 -0.000000 -1.209666 0.000000 0.464657 -0.716394 0.000000 0.619534 -0.075576 0.000000 0.579520 0.131380 0.000000 0.507646 0.148024 0.000000 0.474736 0.103040 0.000000 0.448309 0.070101 0.000000 0.443974 0.060143 0.000000 0.418819 0.068921 0.000000 0.394204 0.082314 0.000000 0.343721 0.096852 0.000000 0.298522 0.107758 0.000000 0.232745 0.116298 0.000000 0.179220 0.116649 0.000000 0.113749 0.120480 0.000000 0.058639 0.115110 0.000000 
0.000000 0.176012 0.000000 -0.058686 0.170599 0.000000 -0.113666 0.179354 0.000000 -0.184920 0.175749 0.000000 -0.242363 0.175167 0.000000 -0.319616 0.162561 0.000000 -0.371916 0.141989 0.000000 -0.432150 0.115344 0.000000 -0.455060 0.085854 0.000000 -0.470717 0.065496 0.000000 -0.434855 0.078140 0.000000 -0.393395 0.124257 0.000000 -0.333417 0.191239 0.000000 -0.307201 0.179227 0.000000 -0.336046 -0.153953 0.000000 -0.158680 -0.993233 0.000000 -0.000000 -1.571597 0.000000 0.158680 -0.993233 0.000000 0.336046 -0.153953 0.000000 0.307201 0.179227 0.000000 0.333417 0.191239 0.000000 0.393395 0.124257 0.000000 0.434855 0.078140 0.000000 0.470717 0.065496 0.000000 0.455060 0.085854 0.000000 0.432150 0.115344 0.000000 0.371916 0.141989 0.000000 0.319616 0.162561 0.000000 0.242363 0.175167 0.000000 0.184920 0.175749 0.000000 0.113666 0.179354 0.000000 0.058686 0.170599 0.000000 
0.000000 0.236840 0.000000 -0.055520 0.228777 0.000000 -0.109510 0.246714 0.000000 -0.185831 0.245345 0.000000 -0.251759 0.250994 0.000000 -0.342722 0.237311 0.000000 -0.409904 0.209386 0.000000 -0.477708 0.165458 0.000000 -0.493644 0.107487 0.000000 -0.476276 0.039938 0.000000 -0.402931 -0.007221 0.000000 -0.315176 0.001602 0.000000 -0.155503 0.061830 0.000000 -0.067669 0.134009 0.000000 -0.039527 -0.224097 0.000000 0.137184 -1.052440 0.000000 0.000000 -1.527027 0.000000 -0.137184 -1.052440 0.000000 0.039527 -0.224097 0.000000 0.067669 0.134009 0.000000 0.155503 0.061830 0.000000 0.315176 0.001602 0.000000 0.402931 -0.007221 0.000000 0.476276 0.039938 0.000000 0.493644 0.107487 0.000000 0.477708 0.165458 0.000000 0.409904 0.209386 0.000000 0.342722 0.237311 0.000000 0.251759 0.250994 0.000000 0.185831 0.245345 0.000000 0.109510 0.246714 0.000000 0.055520 0.228777 0.000000 
0.000000 0.287052 0.000000 -0.050041 0.280109 0.000000 -0.100573 0.309665 0.000000 -0.188209 0.317997 0.000000 -0.265781 0.332059 0.000000 -0.387616 0.320706 0.000000 -0.483609 0.276976 0.000000 -0.584849 0.199084 0.000000 -0.621894 0.084422 0.000000 -0.630075 -0.025218 0.000000 -0.529251 -0.082960 0.000000 -0.394274 -0.123170 0.000000 -0.143142 -0.056268 0.000000 0.013993 0.063251 0.000000 0.263156 -0.358805 0.000000 0.376971 -1.032760 0.000000 0.000000 -1.297229 0.000000 -0.376971 -1.032760 0.000000 -0.263156 -0.358805 0.000000 -0.013993 0.063251 0.000000 0.143142 -0.056268 0.000000 0.394274 -0.123170 0.000000 0.529251 -0.082960 0.000000 0.630075 -0.025218 0.000000 0.621894 0.084422 0.000000 0.584849 0.199084 0.000000 0.483609 0.276976 0.000000 0.387616 0.320706 0.000000 0.265781 0.332059 0.000000 0.188209 0.317997 0.000000 0.100573 0.309665 0.000000 0.050041 0.280109 0.000000 
0.000000 0.336922 0.000000 -0.037014 0.329350 0.000000 -0.081548 0.384882 0.000000 -0.181881 0.410553 0.000000 -0.281906 0.450400 0.000000 -0.448366 0.455139 0.000000 -0.596132 0.406619 0.000000 -0.741489 0.303743 0.000000 -0.798850 0.152714 0.000000 -0.779684 -0.052705 0.000000 -0.731340 -0.243022 0.000000 -0.657485 -0.384507 0.000000 -0.372905 -0.346437 0.000000 -0.108174 -0.272290 0.000000 0.298207 -0.587074 0.000000 0.285192 -0.789284 0.000000 0.000000 -0.773086 0.000000 -0.285192 -0.789284 0.000000 -0.298207 -0.587074 0.000000 0.108174 -0.272290 0.000000 0.372905 -0.346437 0.000000 0.657485 -0.384507 0.000000 0.731340 -0.243022 0.000000 0.779684 -0.052705 0.000000 0.798850 0.152714 0.000000 0.741489 0.303743 0.000000 0.596132 0.406619 0.000000 0.448366 0.455139 0.000000 0.281906 0.450400 0.000000 0.181881 0.410553 0.000000 0.081548 0.384882 0.000000 0.037014 0.329350 0.000000 
0.000000 0.361080 0.000000 -0.013993 0.361657 0.000000 -0.044009 0.454532 0.000000 -0.160718 0.518355 0.000000 -0.277959 0.598543 0.000000 -0.506318 0.634932 0.000000 -0.714373 0.570098 0.000000 -0.936649 0.401803 0.000000 -1.214032 0.122618 0.000000 -1.443311 -0.092728 0.000000 -1.374099 -0.205159 0.000000 -1.023003 -0.481605 0.000000 -0.563807 -0.605578 0.000000 -0.265033 -0.607861 0.000000 0.003514 -0.752172 0.000000 -0.052120 -0.734552 0.000000 0.000000 -0.726845 0.000000 0.052120 -0.734552 0.000000 -0.003514 -0.752172 0.000000 0.265033 -0.607861 0.000000 0.563807 -0.605578 0.000000 1.023003 -0.481605 0.000000 1.374099 -0.205159 0.000000 1.443311 -0.092728 0.000000 1.214032 0.122618 0.000000 0.936649 0.401803 0.000000 0.714373 0.570098 0.000000 0.506318 0.634932 0.000000 0.277959 0.598543 0.000000 0.160718 0.518355 0.000000 0.044009 0.454532 0.000000 0.013993 0.361657 0.000000 
0.000000 0.364909 0.000000 0.025351 0.373359 0.000000 0.019588 0.531607 0.000000 -0.107016 0.644503 0.000000 -0.249400 0.796000 0.000000 -0.576864 0.891553 0.000000 -0.967847 0.836951 0.000000 -1.462946 0.803403 0.000000 -1.748888 0.659375 0.000000 -1.455725 0.107361 0.000000 -1.130156 -0.663329 0.000000 -0.884367 -1.194798 0.000000 -0.727521 -1.104408 0.000000 -0.632848 -0.839612 0.000000 -0.395288 -0.799988 0.000000 -0.225995 -0.785769 0.000000 -0.000000 -0.877325 0.000000 0.225995 -0.785769 0.000000 0.395288 -0.799988 0.000000 0.632848 -0.839612 0.000000 0.727521 -1.104408 0.000000 0.884367 -1.194798 0.000000 1.130156 -0.663329 0.000000 1.455725 0.107361 0.000000 1.748888 0.659375 0.000000 1.462946 0.803403 0.000000 0.967847 0.836951 0.000000 0.576864 0.891553 0.000000 0.249400 0.796000 0.000000 0.107016 0.644503 0.000000 -0.019588 0.531607 0.000000 -0.025351 0.373359 0.000000 
-0.000000 0.310378 0.000000 0.077476 0.342069 0.000000 0.107555 0.586899 0.000000 -0.018672 0.787342 0.000000 -0.155545 1.068391 0.000000 -0.633504 1.353379 0.000000 -1.102507 1.456181 0.000000 -1.379047 1.182844 0.000000 -1.080968 0.115397 0.000000 -0.576352 -0.711461 0.000000 -0.547743 -0.776516 0.000000 -0.526863 -0.884239 0.000000 -0.640832 -0.857098 0.000000 -0.533711 -0.940094 0.000000 -0.264935 -1.159026 0.000000 -0.028792 -1.129841 0.000000 -0.000000 -1.178834 0.000000 0.028792 -1.129841 0.000000 0.264935 -1.159026 0.000000 0.533711 -0.940094 0.000000 0.640832 -0.857098 0.000000 0.526863 -0.884239 0.000000 0.547743 -0.776516 0.000000 0.576352 -0.711461 0.000000 1.080968 0.115397 0.000000 1.379047 1.182844 0.000000 1.102507 1.456181 0.000000 0.633504 1.353379 0.000000 0.155545 1.068391 0.000000 0.018672 0.787342 0.000000 -0.107555 0.586899 0.000000 -0.077476 0.342069 0.000000 
0.000000 0.209957 0.000000 0.138776 0.265804 0.000000 0.221618 0.627756 0.000000 0.148147 0.907603 0.000000 0.085125 1.410831 0.000000 -0.480641 1.838516 0.000000 -0.990032 1.582494 0.000000 -0.594967 0.781863 0.000000 0.045272 -0.143320 0.000000 0.089140 -0.425863 0.000000 0.063696 -0.712818 0.000000 0.519411 -1.101709 0.000000 0.784222 -1.097560 0.000000 1.017534 -1.215510 0.000000 0.885141 -1.304907 0.000000 0.547151 -1.050704 0.000000 -0.000000 -0.934910 0.000000 -0.547151 -1.050704 0.000000 -0.885141 -1.304907 0.000000 -1.017534 -1.215510 0.000000 -0.784222 -1.097560 0.000000 -0.519411 -1.101709 0.000000 -0.063696 -0.712818 0.000000 -0.089140 -0.425863 0.000000 -0.045272 -0.143320 0.000000 0.594967 0.781863 0.000000 0.990032 1.582494 0.000000 0.480641 1.838516 0.000000 -0.085125 1.410831 0.000000 -0.148147 0.907603 0.000000 -0.221618 0.627756 0.000000 -0.138776 0.265804 0.000000 
0.000000 0.032827 0.000000 0.186867 0.120451 0.000000 0.298966 0.577528 0.000000 0.341613 0.923836 0.000000 0.372229 1.697179 0.000000 -0.520788 2.428536 0.000000 -0.585123 1.570506 0.000000 0.337947 0.147540 0.000000 0.673797 -0.568710 0.000000 1.184605 -0.729884 0.000000 1.515064 -1.206787 0.000000 1.560484 -1.604766 0.000000 1.436734 -1.355221 0.000000 1.274412 -1.041014 0.000000 0.878368 -0.688642 0.000000 0.435854 -0.244699 0.000000 0.000000 -0.084533 0.000000 -0.435854 -0.244699 0.000000 -0.878368 -0.688642 0.000000 -1.274412 -1.041014 0.000000 -1.436734 -1.355221 0.000000 -1.560484 -1.604766 0.000000 -1.515064 -1.206787 0.000000 -1.184605 -0.729884 0.000000 -0.673797 -0.568710 0.000000 -0.337947 0.147540 0.000000 0.585123 1.570506 0.000000 0.520788 2.428536 0.000000 -0.372229 1.697179 0.000000 -0.341613 0.923836 0.000000 -0.298966 0.577528 0.000000 -0.186867 0.120451 0.000000 
0.000000 -0.163776 0.000000 0.185188 -0.033163 0.000000 0.284940 0.473010 0.000000 0.495447 0.834340 0.000000 0.325707 2.273232 0.000000 -0.929226 2.795868 0.000000 0.717402 0.723759 0.000000 1.668179 -0.477057 0.000000 1.492711 -0.989977 0.000000 1.214448 -1.267130 0.000000 0.985431 -1.088698 0.000000 0.693513 -1.023378 0.000000 0.426388 -0.811488 0.000000 0.288234 -0.657144 0.000000 0.115163 -0.466349 0.000000 0.039947 -0.172336 0.000000 0.000000 -0.063202 0.000000 -0.039947 -0.172336 0.000000 -0.115163 -0.466349 0.000000 -0.288234 -0.657144 0.000000 -0.426388 -0.811488 0.000000 -0.693513 -1.023378 0.000000 -0.985431 -1.088698 0.000000 -1.214448 -1.267130 0.000000 -1.492711 -0.989977 0.000000 -1.668179 -0.477057 0.000000 -0.717402 0.723759 0.000000 0.929226 2.795868 0.000000 -0.325707 2.273232 0.000000 -0.495447 0.834340 0.000000 -0.284940 0.473010 0.000000 -0.185188 -0.033163 0.000000 
0.000000 -0.337550 0.000000 0.135167 -0.164490 0.000000 0.074240 0.267269 0.000000 0.671690 0.883069 0.000000 -0.311315 3.121851 0.000000 -0.212919 2.036842 0.000000 2.341609 -1.026899 0.000000 1.998765 -0.627769 0.000000 1.531798 -0.114979 0.000000 0.691852 -0.222603 0.000000 0.407213 -0.685852 0.000000 0.232984 -1.045724 0.000000 0.143820 -0.949941 0.000000 0.102946 -0.729789 0.000000 0.012717 -0.440356 0.000000 -0.010753 -0.129536 0.000000 0.000000 -0.004638 0.000000 0.010753 -0.129536 0.000000 -0.012717 -0.440356 0.000000 -0.102946 -0.729789 0.000000 -0.143820 -0.949941 0.000000 -0.232984 -1.045724 0.000000 -0.407213 -0.685852 0.000000 -0.691852 -0.222603 0.000000 -1.531798 -0.114979 0.000000 -1.998765 -0.627769 0.000000 -2.341609 -1.026899 0.000000 0.212919 2.036842 0.000000 0.311315 3.121851 0.000000 -0.671690 0.883069 0.000000 -0.074240 0.267269 0.000000 -0.135167 -0.164490 0.000000 
0.000000 -0.434111 0.000000 -0.004941 -0.107403 0.000000 -0.101235 -0.063513 0.000000 0.462794 1.219896 0.000000 -0.197807 3.157841 0.000000 1.983353 0.142944 0.000000 2.560979 -1.487925 0.000000 1.463661 0.332754 0.000000 1.272799 0.316936 0.000000 1.059997 -0.142545 0.000000 1.005755 -0.629830 0.000000 0.694851 -0.759985 0.000000 0.401084 -0.681450 0.000000 0.175932 -0.526041 0.000000 0.010979 -0.352650 0.000000 -0.034866 -0.159619 0.000000 0.000000 -0.084707 0.000000 0.034866 -0.159619 0.000000 -0.010979 -0.352650 0.000000 -0.175932 -0.526041 0.000000 -0.401084 -0.681450 0.000000 -0.694851 -0.759985 0.000000 -1.005755 -0.629830 0.000000 -1.059997 -0.142545 0.000000 -1.272799 0.316936 0.000000 -1.463661 0.332754 0.000000 -2.560979 -1.487925 0.000000 -1.983353 0.142944 0.000000 0.197807 3.157841 0.000000 -0.462794 1.219896 0.000000 0.101235 -0.063513 0.000000 0.004941 -0.107403 0.000000 
0.000000 -0.327667 0.000000 -0.217056 -0.063254 0.000000 -0.107403 -0.200466 0.000000 -0.280568 0.979640 0.000000 1.112493 1.601293 0.000000 2.877272 -0.721944 0.000000 1.255437 -0.507207 0.000000 1.389347 0.660411 0.000000 1.588190 0.288685 0.000000 1.706283 0.044440 0.000000 1.445645 -0.320705 0.000000 1.076453 -0.441052 0.000000 0.685660 -0.431023 0.000000 0.395003 -0.339684 0.000000 0.159619 -0.229558 0.000000 0.042353 -0.118557 0.000000 0.000000 -0.074369 0.000000 -0.042353 -0.118557 0.000000 -0.159619 -0.229558 0.000000 -0.395003 -0.339684 0.000000 -0.685660 -0.431023 0.000000 -1.076453 -0.441052 0.000000 -1.445645 -0.320705 0.000000 -1.706283 0.044440 0.000000 -1.588190 0.288685 0.000000 -1.389347 0.660411 0.000000 -1.255437 -0.507207 0.000000 -2.877272 -0.721944 0.000000 -1.112493 1.601293 0.000000 0.280568 0.979640 0.000000 0.107403 -0.200466 0.000000 0.217056 -0.063254 0.000000 
-0.000000 0.000000 0.000000 -0.327667 -0.000000 0.000000 -0.126509 -0.000000 0.000000 -0.728600 -0.000000 0.000000 1.832771 0.000000 0.000000 2.473985 0.000000 0.000000 0.388883 -0.000000 0.000000 1.459572 0.000000 0.000000 1.709705 -0.000000 0.000000 2.036942 0.000000 0.000000 1.798585 -0.000000 0.000000 1.395531 0.000000 0.000000 0.916481 0.000000 0.000000 0.533486 -0.000000 0.000000 0.237113 0.000000 0.000000 0.074369 -0.000000 0.000000 0.000000 0.000000 0.000000 -0.074369 -0.000000 0.000000 -0.237113 0.000000 0.000000 -0.533486 -0.000000 0.000000 -0.916481 -0.000000 0.000000 -1.395531 -0.000000 0.000000 -1.798585 -0.000000 0.000000 -2.036942 -0.000000 0.000000 -1.709705 -0.000000 0.000000 -1.459572 -0.000000 0.000000 -0.388883 -0.000000 0.000000 -2.473985 0.000000 0.000000 -1.832771 0.000000 0.000000 0.728600 0.000000 0.000000 0.126509 0.000000 0.000000 0.327667 0.000000 0.000000 
-0.000000 0.327667 0.000000 -0.217056 0.063254 0.000000 -0.107403 0.200466 0.000000 -0.280568 -0.979640 0.000000 1.112493 -1.601293 0.000000 2.877272 0.721944 0.000000 1.255437 0.507207 0.000000 1.389347 -0.660411 0.000000 1.588190 -0.288685 0.000000 1.706283 -0.044440 0.000000 1.445645 0.320705 0.000000 1.076453 0.441052 0.000000 0.685660 0.431023 0.000000 0.395003 0.339684 0.000000 0.159619 0.229558 0.000000 0.042353 0.118557 0.000000 0.000000 0.074369 0.000000 -0.042353 0.118557 0.000000 -0.159619 0.229558 0.000000 -0.395003 0.339684 0.000000 -0.685660 0.431023 0.000000 -1.076453 0.441052 0.000000 -1.445645 0.320705 0.000000 -1.706283 -0.044440 0.000000 -1.588190 -0.288685 0.000000 -1.389347 -0.660411 0.000000 -1.255437 0.507207 0.000000 -2.877272 0.721944 0.000000 -1.112493 -1.601293 0.000000 0.280568 -0.979640 0.000000 0.107403 0.200466 0.000000 0.217056 0.063254 0.000000 
0.000000 0.434111 0.000000 -0.004941 0.107403 0.000000 -0.101235 0.063513 0.000000 0.462794 -1.219896 0.000000 -0.197807 -3.157841 0.000000 1.983353 -0.142944 0.000000 2.560979 1.487925 0.000000 1.463661 -0.332754 0.000000 1.272799 -0.316936 0.000000 1.059997 0.142545 0.000000 1.005755 0.629830 0.000000 0.694851 0.759985 0.000000 0.401084 0.681450 0.000000 0.175932 0.526041 0.000000 0.010979 0.352650 0.000000 -0.034866 0.159619 0.000000 0.000000 0.084707 0.000000 0.034866 0.159619 0.000000 -0.010979 0.352650 0.000000 -0.175932 0.526041 0.000000 -0.401084 0.681450 0.000000 -0.694851 0.759985 0.000000 -1.005755 0.629830 0.000000 -1.059997 0.142545 0.000000 -1.272799 -0.316936 0.000000 -1.463661 -0.332754 0.000000 -2.560979 1.487925 0.000000 -1.983353 -0.142944 0.000000 0.197807 -3.157841 0.000000 -0.462794 -1.219896 0.000000 0.101235 0.063513 0.000000 0.004941 0.107403 0.000000 
-0.000000 0.337550 0.000000 0.135167 0.164490 0.000000 0.074240 -0.267269 0.000000 0.671690 -0.883069 0.000000 -0.311315 -3.121851 0.000000 -0.212919 -2.036842 0.000000 2.341609 1.026899 0.000000 1.998765 0.627769 0.000000 1.531798 0.114979 0.000000 0.691852 0.222603 0.000000 0.407213 0.685852 0.000000 0.232984 1.045724 0.000000 0.143820 0.949941 0.000000 0.102946 0.729789 0.000000 0.012717 0.440356 0.000000 -0.010753 0.129536 0.000000 0.000000 0.004638 0.000000 0.010753 0.129536 0.000000 -0.012717 0.440356 0.000000 -0.102946 0.729789 0.000000 -0.143820 0.949941 0.000000 -0.232984 1.045724 0.000000 -0.407213 0.685852 0.000000 -0.691852 0.222603 0.000000 -1.531798 0.114979 0.000000 -1.998765 0.627769 0.000000 -2.341609 1.026899 0.000000 0.212919 -2.036842 0.000000 0.311315 -3.121851 0.000000 -0.671690 -0.883069 0.000000 -0.074240 -0.267269 0.000000 -0.135167 0.164490 0.000000 
-0.000000 0.163776 0.000000 0.185188 0.033163 0.000000 0.284940 -0.473010 0.000000 0.495447 -0.834340 0.000000 0.325707 -2.273232 0.000000 -0.929226 -2.795868 0.000000 0.717402 -0.723759 0.000000 1.668179 0.477057 0.000000 1.492711 0.989977 0.000000 1.214448 1.267130 0.000000 0.985431 1.088698 0.000000 0.693513 1.023378 0.000000 0.426388 0.811488 0.000000 0.288234 0.657144 0.000000 0.115163 0.466349 0.000000 0.039947 0.172336 0.000000 0.000000 0.063202 0.000000 -0.039947 0.172336 0.000000 -0.115163 0.466349 0.000000 -0.288234 0.657144 0.000000 -0.426388 0.811488 0.000000 -0.693513 1.023378 0.000000 -0.985431 1.088698 0.000000 -1.214448 1.267130 0.000000 -1.492711 0.989977 0.000000 -1.668179 0.477057 0.000000 -0.717402 -0.723759 0.000000 0.929226 -2.795868 0.000000 -0.325707 -2.273232 0.000000 -0.495447 -0.834340 0.000000 -0.284940 -0.473010 0.000000 -0.185188 0.033163 0.000000 
-0.000000 -0.032827 0.000000 0.186867 -0.120451 0.000000 0.298966 -0.577528 0.000000 0.341613 -0.923836 0.000000 0.372229 -1.697179 0.000000 -0.520788 -2.428536 0.000000 -0.585123 -1.570506 0.000000 0.337947 -0.147540 0.000000 0.673797 0.568710 0.000000 1.184605 0.729884 0.000000 1.515064 1.206787 0.000000 1.560484 1.604766 0.000000 1.436734 1.355221 0.000000 1.274412 1.041014 0.000000 0.878368 0.688642 0.000000 0.435854 0.244699 0.000000 -0.000000 0.084533 0.000000 -0.435854 0.244699 0.000000 -0.878368 0.688642 0.000000 -1.274412 1.041014 0.000000 -1.436734 1.355221 0.000000 -1.560484 1.604766 0.000000 -1.515064 1.206787 0.000000 -1.184605 0.729884 0.000000 -0.673797 0.568710 0.000000 -0.337947 -0.147540 0.000000 0.585123 -1.570506 0.000000 0.520788 -2.428536 0.000000 -0.372229 -1.697179 0.000000 -0.341613 -0.923836 0.000000 -0.298966 -0.577528 0.000000 -0.186867 -0.120451 0.000000 
-0.000000 -0.209957 0.000000 0.138776 -0.265804 0.000000 0.221618 -0.627756 0.000000 0.148147 -0.907603 0.000000 0.085125 -1.410831 0.000000 -0.480641 -1.838516 0.000000 -0.990032 -1.582494 0.000000 -0.594967 -0.781863 0.000000 0.045272 0.143320 0.000000 0.089140 0.425863 0.000000 0.063696 0.712818 0.000000 0.519411 1.101709 0.000000 0.784222 1.097560 0.000000 1.017534 1.215510 0.000000 0.885141 1.304907 0.000000 0.547151 1.050704 0.000000 -0.000000 0.934910 0.000000 -0.547151 1.050704 0.000000 -0.885141 1.304907 0.000000 -1.017534 1.215510 0.000000 -0.784222 1.097560 0.000000 -0.519411 1.101709 0.000000 -0.063696 0.712818 0.000000 -0.089140 0.425863 0.000000 -0.045272 0.143320 0.000000 0.594967 -0.781863 0.000000 0.990032 -1.582494 0.000000 0.480641 -1.838516 0.000000 -0.085125 -1.410831 0.000000 -0.148147 -0.907603 0.000000 -0.221618 -0.627756 0.000000 -0.138776 -0.265804 0.000000 
-0.000000 -0.310378 0.000000 0.077476 -0.342069 0.000000 0.107555 -0.586899 0.000000 -0.018672 -0.787342 0.000000 -0.155545 -1.068391 0.000000 -0.633504 -1.353379 0.000000 -1.102507 -1.456181 0.000000 -1.379047 -1.182844 0.000000 -1.080968 -0.115397 0.000000 -0.576352 0.711461 0.000000 -0.547743 0.776516 0.000000 -0.526863 0.884239 0.000000 -0.640832 0.857098 0.000000 -0.533711 0.940094 0.000000 -0.264935 1.159026 0.000000 -0.028792 1.129841 0.000000 0.000000 1.178834 0.000000 0.028792 1.129841 0.000000 0.264935 1.159026 0.000000 0.533711 0.940094 0.000000 0.640832 0.857098 0.000000 0.526863 0.884239 0.000000 0.547743 0.776516 0.000000 0.576352 0.711461 0.000000 1.080968 -0.115397 0.000000 1.379047 -1.182844 0.000000 1.102507 -1.456181 0.000000 0.633504 -1.353379 0.000000 0.155545 -1.068391 0.000000 0.018672 -0.787342 0.000000 -0.107555 -0.586899 0.000000 -0.077476 -0.342069 0.000000 
-0.000000 -0.364909 0.000000 0.025351 -0.373359 0.000000 0.019588 -0.531607 0.000000 -0.107016 -0.644503 0.000000 -0.249400 -0.796000 0.000000 -0.576864 -0.891553 0.000000 -0.967847 -0.836951 0.000000 -1.462946 -0.803403 0.000000 -1.748888 -0.659375 0.000000 -1.455725 -0.107361 0.000000 -1.130156 0.663329 0.000000 -0.884367 1.194798 0.000000 -0.727521 1.104408 0.000000 -0.632848 0.839612 0.000000 -0.395288 0.799988 0.000000 -0.225995 0.785769 0.000000 0.000000 0.877325 0.000000 0.225995 0.785769 0.000000 0.395288 0.799988 0.000000 0.632848 0.839612 0.000000 0.727521 1.104408 0.000000 0.884367 1.194798 0.000000 1.130156 0.663329 0.000000 1.455725 -0.107361 0.000000 1.748888 -0.659375 0.000000 1.462946 -0.803403 0.000000 0.967847 -0.836951 0.000000 0.576864 -0.891553 0.000000 0.249400 -0.796000 0.000000 0.107016 -0.644503 0.000000 -0.019588 -0.531607 0.000000 -0.025351 -0.373359 0.000000 
-0.000000 -0.361080 0.000000 -0.013993 -0.361657 0.000000 -0.044009 -0.454532 0.000000 -0.160718 -0.518355 0.000000 -0.277959 -0.598543 0.000000 -0.506318 -0.634932 0.000000 -0.714373 -0.570098 0.000000 -0.936649 -0.401803 0.000000 -1.214032 -0.122618 0.000000 -1.443311 0.092728 0.000000 -1.374099 0.205159 0.000000 -1.023003 0.481605 0.000000 -0.563807 0.605578 0.000000 -0.265033 0.607861 0.000000 0.003514 0.752172 0.000000 -0.052120 0.734552 0.000000 0.000000 0.726845 0.000000 0.052120 0.734552 0.000000 -0.003514 0.752172 0.000000 0.265033 0.607861 0.000000 0.563807 0.605578 0.000000 1.023003 0.481605 0.000000 1.374099 0.205159 0.000000 1.443311 0.092728 0.000000 1.214032 -0.122618 0.000000 0.936649 -0.401803 0.000000 0.714373 -0.570098 0.000000 0.506318 -0.634932 0.000000 0.277959 -0.598543 0.000000 0.160718 -0.518355 0.000000 0.044009 -0.454532 0.000000 0.013993 -0.361657 0.000000 
-0.000000 -0.336922 0.000000 -0.037014 -0.329350 0.000000 -0.081548 -0.384882 0.000000 -0.181881 -0.410553 0.000000 -0.281906 -0.450400 0.000000 -0.448366 -0.455139 0.000000 -0.596132 -0.406619 0.000000 -0.741489 -0.303743 0.000000 -0.798850 -0.152714 0.000000 -0.779684 0.052705 0.000000 -0.731340 0.243022 0.000000 -0.657485 0.384507 0.000000 -0.372905 0.346437 0.000000 -0.108174 0.272290 0.000000 0.298207 0.587074 0.000000 0.285192 0.789284 0.000000 -0.000000 0.773086 0.000000 -0.285192 0.789284 0.000000 -0.298207 0.587074 0.000000 0.108174 0.272290 0.000000 0.372905 0.346437 0.000000 0.657485 0.384507 0.000000 0.731340 0.243022 0.000000 0.779684 0.052705 0.000000 0.798850 -0.152714 0.000000 0.741489 -0.303743 0.000000 0.596132 -0.406619 0.000000 0.448366 -0.455139 0.000000 0.281906 -0.450400 0.000000 0.181881 -0.410553 0.000000 0.081548 -0.384882 0.000000 0.037014 -0.329350 0.000000 
-0.000000 -0.287052 0.000000 -0.050041 -0.280109 0.000000 -0.100573 -0.309665 0.000000 -0.188209 -0.317997 0.000000 -0.265781 -0.332059 0.000000 -0.387616 -0.320706 0.000000 -0.483609 -0.276976 0.000000 -0.584849 -0.199084 0.000000 -0.621894 -0.084422 0.000000 -0.630075 0.025218 0.000000 -0.529251 0.082960 0.000000 -0.394274 0.123170 0.000000 -0.143142 0.056268 0.000000 0.013993 -0.063251 0.000000 0.263156 0.358805 0.000000 0.376971 1.032760 0.000000 0.000000 1.297229 0.000000 -0.376971 1.032760 0.000000 -0.263156 0.358805 0.000000 -0.013993 -0.063251 0.000000 0.143142 0.056268 0.000000 0.394274 0.123170 0.000000 0.529251 0.082960 0.000000 0.630075 0.025218 0.000000 0.621894 -0.084422 0.000000 0.584849 -0.199084 0.000000 0.483609 -0.276976 0.000000 0.387616 -0.320706 0.000000 0.265781 -0.332059 0.000000 0.188209 -0.317997 0.000000 0.100573 -0.309665 0.000000 0.050041 -0.280109 0.000000 
-0.000000 -0.236840 0.000000 -0.055520 -0.228777 0.000000 -0.109510 -0.246714 0.000000 -0.185831 -0.245345 0.000000 -0.251759 -0.250994 0.000000 -0.342722 -0.237311 0.000000 -0.409904 -0.209386 0.000000 -0.477708 -0.165458 0.000000 -0.493644 -0.107487 0.000000 -0.476276 -0.039938 0.000000 -0.402931 0.007221 0.000000 -0.315176 -0.001602 0.000000 -0.155503 -0.061830 0.000000 -0.067669 -0.134009 0.000000 -0.039527 0.224097 0.000000 0.137184 1.052440 0.000000 0.000000 1.527027 0.000000 -0.137184 1.052440 0.000000 0.039527 0.224097 0.000000 0.067669 -0.134009 0.000000 0.155503 -0.061830 0.000000 0.315176 -0.001602 0.000000 0.402931 0.007221 0.000000 0.476276 -0.039938 0.000000 0.493644 -0.107487 0.000000 0.477708 -0.165458 0.000000 0.409904 -0.209386 0.000000 0.342722 -0.237311 0.000000 0.251759 -0.250994 0.000000 0.185831 -0.245345 0.000000 0.109510 -0.246714 0.000000 0.055520 -0.228777 0.000000 
-0.000000 -0.176012 0.000000 -0.058686 -0.170599 0.000000 -0.113666 -0.179354 0.000000 -0.184920 -0.175749 0.000000 -0.242363 -0.175167 0.000000 -0.319616 -0.162561 0.000000 -0.371916 -0.141989 0.000000 -0.432150 -0.115344 0.000000 -0.455060 -0.085854 0.000000 -0.470717 -0.065496 0.000000 -0.434855 -0.078140 0.000000 -0.393395 -0.124257 0.000000 -0.333417 -0.191239 0.000000 -0.307201 -0.179227 0.000000 -0.336046 0.153953 0.000000 -0.158680 0.993233 0.000000 0.000000 1.571597 0.000000 0.158680 0.993233 0.000000 0.336046 0.153953 0.000000 0.307201 -0.179227 0.000000 0.333417 -0.191239 0.000000 0.393395 -0.124257 0.000000 0.434855 -0.078140 0.000000 0.470717 -0.065496 0.000000 0.455060 -0.085854 0.000000 0.432150 -0.115344 0.000000 0.371916 -0.141989 0.000000 0.319616 -0.162561 0.000000 0.242363 -0.175167 0.000000 0.184920 -0.175749 0.000000 0.113666 -0.179354 0.000000 0.058686 -0.170599 0.000000 
-0.000000 -0.119469 0.000000 -0.058639 -0.115110 0.000000 -0.113749 -0.120480 0.000000 -0.179220 -0.116649 0.000000 -0.232745 -0.116298 0.000000 -0.298522 -0.107758 0.000000 -0.343721 -0.096852 0.000000 -0.394204 -0.082314 0.000000 -0.418819 -0.068921 0.000000 -0.443974 -0.060143 0.000000 -0.448309 -0.070101 0.000000 -0.474736 -0.103040 0.000000 -0.507646 -0.148024 0.000000 -0.579520 -0.131380 0.000000 -0.619534 0.075576 0.000000 -0.464657 0.716394 0.000000 -0.000000 1.209666 0.000000 0.464657 0.716394 0.000000 0.619534 0.075576 0.000000 0.579520 -0.131380 0.000000 0.507646 -0.148024 0.000000 0.474736 -0.103040 0.000000 0.448309 -0.070101 0.000000 0.443974 -0.060143 0.000000 0.418819 -0.068921 0.000000 0.394204 -0.082314 0.000000 0.343721 -0.096852 0.000000 0.298522 -0.107758 0.000000 0.232745 -0.116298 0.000000 0.179220 -0.116649 0.000000 0.113749 -0.120480 0.000000 0.058639 -0.115110 0.000000 
-0.000000 -0.058733 0.000000 -0.059734 -0.056850 0.000000 -0.115110 -0.058774 0.000000 -0.180214 -0.056753 0.000000 -0.231759 -0.055865 0.000000 -0.296512 -0.051584 0.000000 -0.339517 -0.046307 0.000000 -0.393363 -0.040246 0.000000 -0.421831 -0.036085 0.000000 -0.462285 -0.036005 0.000000 -0.481974 -0.047378 0.000000 -0.532385 -0.064920 0.000000 -0.585014 -0.086456 0.000000 -0.680409 -0.067340 0.000000 -0.716394 0.039090 0.000000 -0.604833 0.373699 0.000000 -0.000000 0.642283 0.000000 0.604833 0.373699 0.000000 0.716394 0.039090 0.000000 0.680409 -0.067340 0.000000 0.585014 -0.086456 0.000000 0.532385 -0.064920 0.000000 0.481974 -0.047378 0.000000 0.462285 -0.036005 0.000000 0.421831 -0.036085 0.000000 0.393363 -0.040246 0.000000 0.339517 -0.046307 0.000000 0.296512 -0.051584 0.000000 0.231759 -0.055865 0.000000 0.180214 -0.056753 0.000000 0.115110 -0.058774 0.000000 0.059734 -0.056850 0.000000 
