# vtk DataFile Version 2.0
Comment goes here
ASCII

DATASET STRUCTURED_POINTS
FIELD FieldData 1
TIME 1 1 double
0.76000000
DIMENSIONS    32   32   1

ORIGIN    0.000   0.000   0.000
SPACING   0.03125 0.03125   1.000

POINT_DATA   1024
VECTORS u double

-0.000000 -0.000000 0.000000 -0.045982 -0.000000 0.000000 -0.103266 -0.000000 0.000000 -0.179998 -0.000000 0.000000 -0.286696 -0.000000 0.000000 -0.422094 -0.000000 0.000000 -0.600166 -0.000000 0.000000 -0.801133 0.000000 0.000000 -1.037801 -0.000000 0.000000 -1.257412 -0.000000 0.000000 -1.467300 -0.000000 0.000000 -1.589278 0.000000 0.000000 -1.641274 0.000000 0.000000 -1.530349 0.000000 0.000000 -1.272200 0.000000 0.000000 -0.744078 0.000000 0.000000 0.000000 -0.000000 0.000000 0.744078 -0.000000 0.000000 1.272200 -0.000000 0.000000 1.530349 -0.000000 0.000000 1.641274 -0.000000 0.000000 1.589278 0.000000 0.000000 1.467300 0.000000 0.000000 1.257412 0.000000 0.000000 1.037801 0.000000 0.000000 0.801133 0.000000 0.000000 0.600166 0.000000 0.000000 0.422094 0.000000 0.000000 0.286696 0.000000 0.000000 0.179998 0.000000 0.000000 0.103266 0.000000 0.000000 0.045982 -0.000000 0.000000 
-0.000000 0.045982 0.000000 -0.040239 0.051633 0.000000 -0.091521 0.067008 0.000000 -0.162705 0.091715 0.000000 -0.261869 0.121048 0.000000 -0.388596 0.156735 0.000000 -0.553484 0.189520 0.000000 -0.738628 0.218818 0.000000 -0.955605 0.228139 0.000000 -1.155823 0.214750 0.000000 -1.348560 0.165933 0.000000 -1.460667 0.086987 0.000000 -1.512724 -0.029465 0.000000 -1.417192 -0.184537 0.000000 -1.185104 -0.393135 0.000000 -0.687507 -0.636100 0.000000 0.000000 -0.744078 0.000000 0.687507 -0.636100 0.000000 1.185104 -0.393135 0.000000 1.417192 -0.184537 0.000000 1.512724 -0.029465 0.000000 1.460667 0.086987 0.000000 1.348560 0.165933 0.000000 1.155823 0.214750 0.000000 0.955605 0.228139 0.000000 0.738628 0.218818 0.000000 0.553484 0.189520 0.000000 0.388596 0.156735 0.000000 0.261869 0.121048 0.000000 0.162705 0.091715 0.000000 0.091521 0.067008 0.000000 0.040239 0.051633 0.000000 
-0.000000 0.080477 0.000000 -0.026726 0.091521 0.000000 -0.065423 0.122466 0.000000 -0.125918 0.170348 0.000000 -0.213444 0.225892 0.000000 -0.326313 0.291615 0.000000 -0.471352 0.350031 0.000000 -0.629577 0.402120 0.000000 -0.813674 0.417195 0.000000 -0.977411 0.392956 0.000000 -1.136621 0.304844 0.000000 -1.219574 0.164163 0.000000 -1.256111 -0.043475 0.000000 -1.157665 -0.327619 0.000000 -0.956724 -0.729684 0.000000 -0.527654 -1.185104 0.000000 0.000000 -1.375014 0.000000 0.527654 -1.185104 0.000000 0.956724 -0.729684 0.000000 1.157665 -0.327619 0.000000 1.256111 -0.043475 0.000000 1.219574 0.164163 0.000000 1.136621 0.304844 0.000000 0.977411 0.392956 0.000000 0.813674 0.417195 0.000000 0.629577 0.402120 0.000000 0.471352 0.350031 0.000000 0.326313 0.291615 0.000000 0.213444 0.225892 0.000000 0.125918 0.170348 0.000000 0.065423 0.122466 0.000000 0.026726 0.091521 0.000000 
-0.000000 0.099434 0.000000 -0.003440 0.117056 0.000000 -0.020118 0.166200 0.000000 -0.063568 0.239736 0.000000 -0.131938 0.321443 0.000000 -0.225963 0.414643 0.000000 -0.342206 0.492784 0.000000 -0.464394 0.561140 0.000000 -0.600535 0.575974 0.000000 -0.708662 0.537697 0.000000 -0.809328 0.408096 0.000000 -0.833747 0.206476 0.000000 -0.835186 -0.091374 0.000000 -0.748163 -0.483923 0.000000 -0.602825 -1.023146 0.000000 -0.282192 -1.592825 0.000000 0.000000 -1.799387 0.000000 0.282192 -1.592825 0.000000 0.602825 -1.023146 0.000000 0.748163 -0.483923 0.000000 0.835186 -0.091374 0.000000 0.833747 0.206476 0.000000 0.809328 0.408096 0.000000 0.708662 0.537697 0.000000 0.600535 0.575974 0.000000 0.464394 0.561140 0.000000 0.342206 0.492784 0.000000 0.225963 0.414643 0.000000 0.131938 0.321443 0.000000 0.063568 0.239736 0.000000 0.020118 0.166200 0.000000 0.003440 0.117056 0.000000 
-0.000000 0.087357 0.000000 0.027335 0.111639 0.000000 0.037922 0.182595 0.000000 0.012732 0.282167 0.000000 -0.040150 0.388286 0.000000 -0.123668 0.501884 0.000000 -0.226063 0.588462 0.000000 -0.331000 0.660449 0.000000 -0.445152 0.661463 0.000000 -0.525424 0.601749 0.000000 -0.598044 0.429929 0.000000 -0.586008 0.190022 0.000000 -0.549432 -0.129059 0.000000 -0.403777 -0.559981 0.000000 -0.233896 -1.195656 0.000000 -0.024741 -1.787929 0.000000 0.000000 -1.939398 0.000000 0.024741 -1.787929 0.000000 0.233896 -1.195656 0.000000 0.403777 -0.559981 0.000000 0.549432 -0.129059 0.000000 0.586008 0.190022 0.000000 0.598044 0.429929 0.000000 0.525424 0.601749 0.000000 0.445152 0.661463 0.000000 0.331000 0.660449 0.000000 0.226063 0.588462 0.000000 0.123668 0.501884 0.000000 0.040150 0.388286 0.000000 -0.012732 0.282167 0.000000 -0.037922 0.182595 0.000000 -0.027335 0.111639 0.000000 
-0.000000 0.044764 0.000000 0.063322 0.079134 0.000000 0.105972 0.180803 0.000000 0.099125 0.317809 0.000000 0.061604 0.457843 0.000000 -0.019504 0.600556 0.000000 -0.116291 0.700115 0.000000 -0.220904 0.780228 0.000000 -0.331510 0.770398 0.000000 -0.404259 0.690589 0.000000 -0.457734 0.468679 0.000000 -0.368496 0.157865 0.000000 -0.259644 -0.273604 0.000000 -0.102393 -0.799460 0.000000 0.047022 -1.402182 0.000000 0.138417 -1.826720 0.000000 -0.000000 -1.848869 0.000000 -0.138417 -1.826720 0.000000 -0.047022 -1.402182 0.000000 0.102393 -0.799460 0.000000 0.259644 -0.273604 0.000000 0.368496 0.157865 0.000000 0.457734 0.468679 0.000000 0.404259 0.690589 0.000000 0.331510 0.770398 0.000000 0.220904 0.780228 0.000000 0.116291 0.700115 0.000000 0.019504 0.600556 0.000000 -0.061604 0.457843 0.000000 -0.099125 0.317809 0.000000 -0.105972 0.180803 0.000000 -0.063322 0.079134 0.000000 
-0.000000 -0.039288 0.000000 0.104290 0.005667 0.000000 0.183237 0.146792 0.000000 0.196132 0.326535 0.000000 0.171768 0.506916 0.000000 0.085018 0.679780 0.000000 -0.023694 0.789862 0.000000 -0.152498 0.875667 0.000000 -0.301237 0.844818 0.000000 -0.424565 0.727973 0.000000 -0.558643 0.394166 0.000000 -0.520329 -0.008068 0.000000 -0.335802 -0.395162 0.000000 0.074890 -0.866646 0.000000 0.395551 -1.436466 0.000000 0.302854 -1.740907 0.000000 -0.000000 -1.662565 0.000000 -0.302854 -1.740907 0.000000 -0.395551 -1.436466 0.000000 -0.074890 -0.866646 0.000000 0.335802 -0.395162 0.000000 0.520329 -0.008068 0.000000 0.558643 0.394166 0.000000 0.424565 0.727973 0.000000 0.301237 0.844818 0.000000 0.152498 0.875667 0.000000 0.023694 0.789862 0.000000 -0.085018 0.679780 0.000000 -0.171768 0.506916 0.000000 -0.196132 0.326535 0.000000 -0.183237 0.146792 0.000000 -0.104290 0.005667 0.000000 
-0.000000 -0.163816 0.000000 0.139653 -0.104104 0.000000 0.251085 0.088962 0.000000 0.279492 0.329278 0.000000 0.269285 0.568957 0.000000 0.169096 0.796018 0.000000 0.046323 0.937631 0.000000 -0.126771 1.057772 0.000000 -0.354148 1.042466 0.000000 -0.607877 0.947995 0.000000 -0.711784 0.564442 0.000000 -0.224495 -0.064976 0.000000 0.537690 -0.868823 0.000000 0.848490 -1.530813 0.000000 0.842722 -1.630146 0.000000 0.345284 -1.431169 0.000000 -0.000000 -1.243161 0.000000 -0.345284 -1.431169 0.000000 -0.842722 -1.630146 0.000000 -0.848490 -1.530813 0.000000 -0.537690 -0.868823 0.000000 0.224495 -0.064976 0.000000 0.711784 0.564442 0.000000 0.607877 0.947995 0.000000 0.354148 1.042466 0.000000 0.126771 1.057772 0.000000 -0.046323 0.937631 0.000000 -0.169096 0.796018 0.000000 -0.269285 0.568957 0.000000 -0.279492 0.329278 0.000000 -0.251085 0.088962 0.000000 -0.139653 -0.104104 0.000000 
0.000000 -0.318593 0.000000 0.172329 -0.245418 0.000000 0.316460 0.006952 0.000000 0.363877 0.308335 0.000000 0.377591 0.617313 0.000000 0.271713 0.902742 0.000000 0.137372 1.085728 0.000000 -0.076149 1.276138 0.000000 -0.350992 1.325924 0.000000 -0.543738 1.085610 0.000000 -0.044235 0.010784 0.000000 0.543370 -1.257543 0.000000 0.879215 -1.468147 0.000000 0.240303 -1.171678 0.000000 -0.112605 -0.933259 0.000000 -0.199855 -0.898185 0.000000 0.000000 -0.971998 0.000000 0.199855 -0.898185 0.000000 0.112605 -0.933259 0.000000 -0.240303 -1.171678 0.000000 -0.879215 -1.468147 0.000000 -0.543370 -1.257543 0.000000 0.044235 0.010784 0.000000 0.543738 1.085610 0.000000 0.350992 1.325924 0.000000 0.076149 1.276138 0.000000 -0.137372 1.085728 0.000000 -0.271713 0.902742 0.000000 -0.377591 0.617313 0.000000 -0.363877 0.308335 0.000000 -0.316460 0.006952 0.000000 -0.172329 -0.245418 0.000000 
0.000000 -0.508475 0.000000 0.184768 -0.420563 0.000000 0.343830 -0.102586 0.000000 0.402255 0.268146 0.000000 0.444907 0.661121 0.000000 0.334221 1.036237 0.000000 0.228310 1.285493 0.000000 0.012026 1.546136 0.000000 -0.287062 1.510054 0.000000 -0.244013 0.641238 0.000000 0.556358 -0.522666 0.000000 0.348668 -0.988426 0.000000 -0.068613 -0.565756 0.000000 -0.270208 -0.538993 0.000000 -0.109839 -1.189987 0.000000 0.060638 -1.543774 0.000000 0.000000 -1.642871 0.000000 -0.060638 -1.543774 0.000000 0.109839 -1.189987 0.000000 0.270208 -0.538993 0.000000 0.068613 -0.565756 0.000000 -0.348668 -0.988426 0.000000 -0.556358 -0.522666 0.000000 0.244013 0.641238 0.000000 0.287062 1.510054 0.000000 -0.012026 1.546136 0.000000 -0.228310 1.285493 0.000000 -0.334221 1.036237 0.000000 -0.444907 0.661121 0.000000 -0.402255 0.268146 0.000000 -0.343830 -0.102586 0.000000 -0.184768 -0.420563 0.000000 
0.000000 -0.688129 0.000000 0.182864 -0.589248 0.000000 0.352924 -0.210535 0.000000 0.428192 0.207258 0.000000 0.530626 0.685347 0.000000 0.446950 1.119339 0.000000 0.413897 1.407923 0.000000 0.254274 1.791510 0.000000 -0.460828 1.581964 0.000000 0.226560 0.242190 0.000000 0.676155 -0.581897 0.000000 0.647727 -0.632572 0.000000 0.932647 -0.849272 0.000000 1.319739 -1.130453 0.000000 1.272561 -1.264105 0.000000 0.743674 -1.008024 0.000000 0.000000 -0.850722 0.000000 -0.743674 -1.008024 0.000000 -1.272561 -1.264105 0.000000 -1.319739 -1.130453 0.000000 -0.932647 -0.849272 0.000000 -0.647727 -0.632572 0.000000 -0.676155 -0.581897 0.000000 -0.226560 0.242190 0.000000 0.460828 1.581964 0.000000 -0.254274 1.791510 0.000000 -0.413897 1.407923 0.000000 -0.446950 1.119339 0.000000 -0.530626 0.685347 0.000000 -0.428192 0.207258 0.000000 -0.352924 -0.210535 0.000000 -0.182864 -0.589248 0.000000 
0.000000 -0.874202 0.000000 0.140397 -0.773488 0.000000 0.282912 -0.347914 0.000000 0.366915 0.090444 0.000000 0.517199 0.642363 0.000000 0.423049 1.152966 0.000000 0.580589 1.478169 0.000000 0.160067 2.420861 0.000000 -0.462161 1.537768 0.000000 1.010727 -0.495745 0.000000 0.948699 -0.943833 0.000000 1.144904 -1.244918 0.000000 1.076425 -1.237767 0.000000 0.901390 -0.878908 0.000000 0.564573 -0.613923 0.000000 0.254768 -0.271212 0.000000 -0.000000 -0.155522 0.000000 -0.254768 -0.271212 0.000000 -0.564573 -0.613923 0.000000 -0.901390 -0.878908 0.000000 -1.076425 -1.237767 0.000000 -1.144904 -1.244918 0.000000 -0.948699 -0.943833 0.000000 -1.010727 -0.495745 0.000000 0.462161 1.537768 0.000000 -0.160067 2.420861 0.000000 -0.580589 1.478169 0.000000 -0.423049 1.152966 0.000000 -0.517199 0.642363 0.000000 -0.366915 0.090444 0.000000 -0.282912 -0.347914 0.000000 -0.140397 -0.773488 0.000000 
0.000000 -0.968923 0.000000 0.060530 -0.872160 0.000000 0.156251 -0.437053 0.000000 0.242046 -0.027028 0.000000 0.488250 0.629213 0.000000 0.398949 1.055948 0.000000 0.941408 1.670906 0.000000 -0.500085 2.834260 0.000000 0.540179 0.731304 0.000000 1.666301 -1.168670 0.000000 0.948623 -0.716074 0.000000 0.814940 -0.760298 0.000000 0.267344 -0.605758 0.000000 0.152543 -0.618601 0.000000 -0.008457 -0.617483 0.000000 -0.017175 -0.443451 0.000000 -0.000000 -0.341186 0.000000 0.017175 -0.443451 0.000000 0.008457 -0.617483 0.000000 -0.152543 -0.618601 0.000000 -0.267344 -0.605758 0.000000 -0.814940 -0.760298 0.000000 -0.948623 -0.716074 0.000000 -1.666301 -1.168670 0.000000 -0.540179 0.731304 0.000000 0.500085 2.834260 0.000000 -0.941408 1.670906 0.000000 -0.398949 1.055948 0.000000 -0.488250 0.629213 0.000000 -0.242046 -0.027028 0.000000 -0.156251 -0.437053 0.000000 -0.060530 -0.872160 0.000000 
0.000000 -0.995262 0.000000 -0.074843 -0.929739 0.000000 -0.100179 -0.529431 0.000000 -0.015316 -0.241555 0.000000 0.173533 0.485460 0.000000 0.422727 0.699808 0.000000 0.558856 2.377204 0.000000 -0.441123 2.822090 0.000000 1.804028 -0.628618 0.000000 1.481222 -0.904188 0.000000 0.827532 -0.092472 0.000000 0.597031 -0.563639 0.000000 0.356247 -0.575371 0.000000 0.320484 -0.603107 0.000000 0.160943 -0.444204 0.000000 0.056436 -0.279669 0.000000 -0.000000 -0.189873 0.000000 -0.056436 -0.279669 0.000000 -0.160943 -0.444204 0.000000 -0.320484 -0.603107 0.000000 -0.356247 -0.575371 0.000000 -0.597031 -0.563639 0.000000 -0.827532 -0.092472 0.000000 -1.481222 -0.904188 0.000000 -1.804028 -0.628618 0.000000 0.441123 2.822090 0.000000 -0.558856 2.377204 0.000000 -0.422727 0.699808 0.000000 -0.173533 0.485460 0.000000 0.015316 -0.241555 0.000000 0.100179 -0.529431 0.000000 0.074843 -0.929739 0.000000 
0.000000 -0.819238 0.000000 -0.242157 -0.771981 0.000000 -0.446703 -0.496579 0.000000 -0.404548 -0.300741 0.000000 -0.437218 0.191169 0.000000 0.123297 0.670626 0.000000 -0.406783 2.534756 0.000000 0.874507 1.589088 0.000000 1.846038 -1.191041 0.000000 0.797760 -0.192174 0.000000 0.833699 0.168117 0.000000 0.629650 -0.289013 0.000000 0.467548 -0.329211 0.000000 0.283974 -0.423298 0.000000 0.132160 -0.353434 0.000000 0.038365 -0.282508 0.000000 -0.000000 -0.228315 0.000000 -0.038365 -0.282508 0.000000 -0.132160 -0.353434 0.000000 -0.283974 -0.423298 0.000000 -0.467548 -0.329211 0.000000 -0.629650 -0.289013 0.000000 -0.833699 0.168117 0.000000 -0.797760 -0.192174 0.000000 -1.846038 -1.191041 0.000000 -0.874507 1.589088 0.000000 0.406783 2.534756 0.000000 -0.123297 0.670626 0.000000 0.437218 0.191169 0.000000 0.404548 -0.300741 0.000000 0.446703 -0.496579 0.000000 0.242157 -0.771981 0.000000 
0.000000 -0.510949 0.000000 -0.409619 -0.483036 0.000000 -0.771981 -0.367040 0.000000 -0.906198 -0.251040 0.000000 -1.072722 -0.042385 0.000000 -0.715029 0.669373 0.000000 -0.402096 1.625994 0.000000 1.819727 0.569268 0.000000 1.186992 -0.551872 0.000000 0.628686 0.108151 0.000000 0.994818 0.075638 0.000000 0.796802 -0.197489 0.000000 0.705805 -0.229694 0.000000 0.467592 -0.267719 0.000000 0.282508 -0.198595 0.000000 0.114157 -0.147509 0.000000 -0.000000 -0.113143 0.000000 -0.114157 -0.147509 0.000000 -0.282508 -0.198595 0.000000 -0.467592 -0.267719 0.000000 -0.705805 -0.229694 0.000000 -0.796802 -0.197489 0.000000 -0.994818 0.075638 0.000000 -0.628686 0.108151 0.000000 -1.186992 -0.551872 0.000000 -1.819727 0.569268 0.000000 0.402096 1.625994 0.000000 0.715029 0.669373 0.000000 1.072722 -0.042385 0.000000 0.906198 -0.251040 0.000000 0.771981 -0.367040 0.000000 0.409619 -0.483036 0.000000 
-0.000000 0.000000 0.000000 -0.510949 0.000000 0.000000 -0.966071 0.000000 0.000000 -1.245029 0.000000 0.000000 -1.468151 -0.000000 0.000000 -1.329798 -0.000000 0.000000 -0.129406 -0.000000 0.000000 1.922190 0.000000 0.000000 1.009131 0.000000 0.000000 0.818446 -0.000000 0.000000 1.225434 -0.000000 0.000000 0.969722 -0.000000 0.000000 0.830456 -0.000000 0.000000 0.510334 -0.000000 0.000000 0.295018 -0.000000 0.000000 0.113143 -0.000000 0.000000 -0.000000 -0.000000 0.000000 -0.113143 -0.000000 0.000000 -0.295018 -0.000000 0.000000 -0.510334 -0.000000 0.000000 -0.830456 -0.000000 0.000000 -0.969722 0.000000 0.000000 -1.225434 0.000000 0.000000 -0.818446 0.000000 0.000000 -1.009131 0.000000 0.000000 -1.922190 0.000000 0.000000 0.129406 0.000000 0.000000 1.329798 -0.000000 0.000000 1.468151 -0.000000 0.000000 1.245029 -0.000000 0.000000 0.966071 -0.000000 0.000000 0.510949 0.000000 0.000000 
-0.000000 0.510949 0.000000 -0.409619 0.483036 0.000000 -0.771981 0.367040 0.000000 -0.906198 0.251040 0.000000 -1.072722 0.042385 0.000000 -0.715029 -0.669373 0.000000 -0.402096 -1.625994 0.000000 1.819727 -0.569268 0.000000 1.186992 0.551872 0.000000 0.628686 -0.108151 0.000000 0.994818 -0.075638 0.000000 0.796802 0.197489 0.000000 0.705805 0.229694 0.000000 0.467592 0.267719 0.000000 0.282508 0.198595 0.000000 0.114157 0.147509 0.000000 -0.000000 0.113143 0.000000 -0.114157 0.147509 0.000000 -0.282508 0.198595 0.000000 -0.467592 0.267719 0.000000 -0.705805 0.229694 0.000000 -0.796802 0.197489 0.000000 -0.994818 -0.075638 0.000000 -0.628686 -0.108151 0.000000 -1.186992 0.551872 0.000000 -1.819727 -0.569268 0.000000 0.402096 -1.625994 0.000000 0.715029 -0.669373 0.000000 1.072722 0.042385 0.000000 0.906198 0.251040 0.000000 0.771981 0.367040 0.000000 0.409619 0.483036 0.000000 
-0.000000 0.819238 0.000000 -0.242157 0.771981 0.000000 -0.446703 0.496579 0.000000 -0.404548 0.300741 0.000000 -0.437218 -0.191169 0.000000 0.123297 -0.670626 0.000000 -0.406783 -2.534756 0.000000 0.874507 -1.589088 0.000000 1.846038 1.191041 0.000000 0.797760 0.192174 0.000000 0.833699 -0.168117 0.000000 0.629650 0.289013 0.000000 0.467548 0.329211 0.000000 0.283974 0.423298 0.000000 0.132160 0.353434 0.000000 0.038365 0.282508 0.000000 -0.000000 0.228315 0.000000 -0.038365 0.282508 0.000000 -0.132160 0.353434 0.000000 -0.283974 0.423298 0.000000 -0.467548 0.329211 0.000000 -0.629650 0.289013 0.000000 -0.833699 -0.168117 0.000000 -0.797760 0.192174 0.000000 -1.846038 1.191041 0.000000 -0.874507 -1.589088 0.000000 0.406783 -2.534756 0.000000 -0.123297 -0.670626 0.000000 0.437218 -0.191169 0.000000 0.404548 0.300741 0.000000 0.446703 0.496579 0.000000 0.242157 0.771981 0.000000 
-0.000000 0.995262 0.000000 -0.074843 0.929739 0.000000 -0.100179 0.529431 0.000000 -0.015316 0.241555 0.000000 0.173533 -0.485460 0.000000 0.422727 -0.699808 0.000000 0.558856 -2.377204 0.000000 -0.441123 -2.822090 0.000000 1.804028 0.628618 0.000000 1.481222 0.904188 0.000000 0.827532 0.092472 0.000000 0.597031 0.563639 0.000000 0.356247 0.575371 0.000000 0.320484 0.603107 0.000000 0.160943 0.444204 0.000000 0.056436 0.279669 0.000000 -0.000000 0.189873 0.000000 -0.056436 0.279669 0.000000 -0.160943 0.444204 0.000000 -0.320484 0.603107 0.000000 -0.356247 0.575371 0.000000 -0.597031 0.563639 0.000000 -0.827532 0.092472 0.000000 -1.481222 0.904188 0.000000 -1.804028 0.628618 0.000000 0.441123 -2.822090 0.000000 -0.558856 -2.377204 0.000000 -0.422727 -0.699808 0.000000 -0.173533 -0.485460 0.000000 0.015316 0.241555 0.000000 0.100179 0.529431 0.000000 0.074843 0.929739 0.000000 
-0.000000 0.968923 0.000000 0.060530 0.872160 0.000000 0.156251 0.437053 0.000000 0.242046 0.027028 0.000000 0.488250 -0.629213 0.000000 0.398949 -1.055948 0.000000 0.941408 -1.670906 0.000000 -0.500085 -2.834260 0.000000 0.540179 -0.731304 0.000000 1.666301 1.168670 0.000000 0.948623 0.716074 0.000000 0.814940 0.760298 0.000000 0.267344 0.605758 0.000000 0.152543 0.618601 0.000000 -0.008457 0.617483 0.000000 -0.017175 0.443451 0.000000 -0.000000 0.341186 0.000000 0.017175 0.443451 0.000000 0.008457 0.617483 0.000000 -0.152543 0.618601 0.000000 -0.267344 0.605758 0.000000 -0.814940 0.760298 0.000000 -0.948623 0.716074 0.000000 -1.666301 1.168670 0.000000 -0.540179 -0.731304 0.000000 0.500085 -2.834260 0.000000 -0.941408 -1.670906 0.000000 -0.398949 -1.055948 0.000000 -0.488250 -0.629213 0.000000 -0.242046 0.027028 0.000000 -0.156251 0.437053 0.000000 -0.060530 0.872160 0.000000 
-0.000000 0.874202 0.000000 0.140397 0.773488 0.000000 0.282912 0.347914 0.000000 0.366915 -0.090444 0.000000 0.517199 -0.642363 0.000000 0.423049 -1.152966 0.000000 0.580589 -1.478169 0.000000 0.160067 -2.420861 0.000000 -0.462161 -1.537768 0.000000 1.010727 0.495745 0.000000 0.948699 0.943833 0.000000 1.144904 1.244918 0.000000 1.076425 1.237767 0.000000 0.901390 0.878908 0.000000 0.564573 0.613923 0.000000 0.254768 0.271212 0.000000 -0.000000 0.155522 0.000000 -0.254768 0.271212 0.000000 -0.564573 0.613923 0.000000 -0.901390 0.878908 0.000000 -1.076425 1.237767 0.000000 -1.144904 1.244918 0.000000 -0.948699 0.943833 0.000000 -1.010727 0.495745 0.000000 0.462161 -1.537768 0.000000 -0.160067 -2.420861 0.000000 -0.580589 -1.478169 0.000000 -0.423049 -1.152966 0.000000 -0.517199 -0.642363 0.000000 -0.366915 -0.090444 0.000000 -0.282912 0.347914 0.000000 -0.140397 0.773488 0.000000 
-0.000000 0.688129 0.000000 0.182864 0.589248 0.000000 0.352924 0.210535 0.000000 0.428192 -0.207258 0.000000 0.530626 -0.685347 0.000000 0.446950 -1.119339 0.000000 0.413897 -1.407923 0.000000 0.254274 -1.791510 0.000000 -0.460828 -1.581964 0.000000 0.226560 -0.242190 0.000000 0.676155 0.581897 0.000000 0.647727 0.632572 0.000000 0.932647 0.849272 0.000000 1.319739 1.130453 0.000000 1.272561 1.264105 0.000000 0.743674 1.008024 0.000000 -0.000000 0.850722 0.000000 -0.743674 1.008024 0.000000 -1.272561 1.264105 0.000000 -1.319739 1.130453 0.000000 -0.932647 0.849272 0.000000 -0.647727 0.632572 0.000000 -0.676155 0.581897 0.000000 -0.226560 -0.242190 0.000000 0.460828 -1.581964 0.000000 -0.254274 -1.791510 0.000000 -0.413897 -1.407923 0.000000 -0.446950 -1.119339 0.000000 -0.530626 -0.685347 0.000000 -0.428192 -0.207258 0.000000 -0.352924 0.210535 0.000000 -0.182864 0.589248 0.000000 
-0.000000 0.508475 0.000000 0.184768 0.420563 0.000000 0.343830 0.102586 0.000000 0.402255 -0.268146 0.000000 0.444907 -0.661121 0.000000 0.334221 -1.036237 0.000000 0.228310 -1.285493 0.000000 0.012026 -1.546136 0.000000 -0.287062 -1.510054 0.000000 -0.244013 -0.641238 0.000000 0.556358 0.522666 0.000000 0.348668 0.988426 0.000000 -0.068613 0.565756 0.000000 -0.270208 0.538993 0.000000 -0.109839 1.189987 0.000000 0.060638 1.543774 0.000000 -0.000000 1.642871 0.000000 -0.060638 1.543774 0.000000 0.109839 1.189987 0.000000 0.270208 0.538993 0.000000 0.068613 0.565756 0.000000 -0.348668 0.988426 0.000000 -0.556358 0.522666 0.000000 0.244013 -0.641238 0.000000 0.287062 -1.510054 0.000000 -0.012026 -1.546136 0.000000 -0.228310 -1.285493 0.000000 -0.334221 -1.036237 0.000000 -0.444907 -0.661121 0.000000 -0.402255 -0.268146 0.000000 -0.343830 0.102586 0.000000 -0.184768 0.420563 0.000000 
0.000000 0.318593 0.000000 0.172329 0.245418 0.000000 0.316460 -0.006952 0.000000 0.363877 -0.308335 0.000000 0.377591 -0.617313 0.000000 0.271713 -0.902742 0.000000 0.137372 -1.085728 0.000000 -0.076149 -1.276138 0.000000 -0.350992 -1.325924 0.000000 -0.543738 -1.085610 0.000000 -0.044235 -0.010784 0.000000 0.543370 1.257543 0.000000 0.879215 1.468147 0.000000 0.240303 1.171678 0.000000 -0.112605 0.933259 0.000000 -0.199855 0.898185 0.000000 0.000000 0.971998 0.000000 0.199855 0.898185 0.000000 0.112605 0.933259 0.000000 -0.240303 1.171678 0.000000 -0.879215 1.468147 0.000000 -0.543370 1.257543 0.000000 0.044235 -0.010784 0.000000 0.543738 -1.085610 0.000000 0.350992 -1.325924 0.000000 0.076149 -1.276138 0.000000 -0.137372 -1.085728 0.000000 -0.271713 -0.902742 0.000000 -0.377591 -0.617313 0.000000 -0.363877 -0.308335 0.000000 -0.316460 -0.006952 0.000000 -0.172329 0.245418 0.000000 
0.000000 0.163816 0.000000 0.139653 0.104104 0.000000 0.251085 -0.088962 0.000000 0.279492 -0.329278 0.000000 0.269285 -0.568957 0.000000 0.169096 -0.796018 0.000000 0.046323 -0.937631 0.000000 -0.126771 -1.057772 0.000000 -0.354148 -1.042466 0.000000 -0.607877 -0.947995 0.000000 -0.711784 -0.564442 0.000000 -0.224495 0.064976 0.000000 0.537690 0.868823 0.000000 0.848490 1.530813 0.000000 0.842722 1.630146 0.000000 0.345284 1.431169 0.000000 0.000000 1.243161 0.000000 -0.345284 1.431169 0.000000 -0.842722 1.630146 0.000000 -0.848490 1.530813 0.000000 -0.537690 0.868823 0.000000 0.224495 0.064976 0.000000 0.711784 -0.564442 0.000000 0.607877 -0.947995 0.000000 0.354148 -1.042466 0.000000 0.126771 -1.057772 0.000000 -0.046323 -0.937631 0.000000 -0.169096 -0.796018 0.000000 -0.269285 -0.568957 0.000000 -0.279492 -0.329278 0.000000 -0.251085 -0.088962 0.000000 -0.139653 0.104104 0.000000 
0.000000 0.039288 0.000000 0.104290 -0.005667 0.000000 0.183237 -0.146792 0.000000 0.196132 -0.326535 0.000000 0.171768 -0.506916 0.000000 0.085018 -0.679780 0.000000 -0.023694 -0.789862 0.000000 -0.152498 -0.875667 0.000000 -0.301237 -0.844818 0.000000 -0.424565 -0.727973 0.000000 -0.558643 -0.394166 0.000000 -0.520329 0.008068 0.000000 -0.335802 0.395162 0.000000 0.074890 0.866646 0.000000 0.395551 1.436466 0.000000 0.302854 1.740907 0.000000 0.000000 1.662565 0.000000 -0.302854 1.740907 0.000000 -0.395551 1.436466 0.000000 -0.074890 0.866646 0.000000 0.335802 0.395162 0.000000 0.520329 0.008068 0.000000 0.558643 -0.394166 0.000000 0.424565 -0.727973 0.000000 0.301237 -0.844818 0.000000 0.152498 -0.875667 0.000000 0.023694 -0.789862 0.000000 -0.085018 -0.679780 0.000000 -0.171768 -0.506916 0.000000 -0.196132 -0.326535 0.000000 -0.183237 -0.146792 0.000000 -0.104290 -0.005667 0.000000 
0.000000 -0.044764 0.000000 0.063322 -0.079134 0.000000 0.105972 -0.180803 0.000000 0.099125 -0.317809 0.000000 0.061604 -0.457843 0.000000 -0.019504 -0.600556 0.000000 -0.116291 -0.700115 0.000000 -0.220904 -0.780228 0.000000 -0.331510 -0.770398 0.000000 -0.404259 -0.690589 0.000000 -0.457734 -0.468679 0.000000 -0.368496 -0.157865 0.000000 -0.259644 0.273604 0.000000 -0.102393 0.799460 0.000000 0.047022 1.402182 0.000000 0.138417 1.826720 0.000000 0.000000 1.848869 0.000000 -0.138417 1.826720 0.000000 -0.047022 1.402182 0.000000 0.102393 0.799460 0.000000 0.259644 0.273604 0.000000 0.368496 -0.157865 0.000000 0.457734 -0.468679 0.000000 0.404259 -0.690589 0.000000 0.331510 -0.770398 0.000000 0.220904 -0.780228 0.000000 0.116291 -0.700115 0.000000 0.019504 -0.600556 0.000000 -0.061604 -0.457843 0.000000 -0.099125 -0.317809 0.000000 -0.105972 -0.180803 0.000000 -0.063322 -0.079134 0.000000 
0.000000 -0.087357 0.000000 0.027335 -0.111639 0.000000 0.037922 -0.182595 0.000000 0.012732 -0.282167 0.000000 -0.040150 -0.388286 0.000000 -0.123668 -0.501884 0.000000 -0.226063 -0.588462 0.000000 -0.331000 -0.660449 0.000000 -0.445152 -0.661463 0.000000 -0.525424 -0.601749 0.000000 -0.598044 -0.429929 0.000000 -0.586008 -0.190022 0.000000 -0.549432 0.129059 0.000000 -0.403777 0.559981 0.000000 -0.233896 1.195656 0.000000 -0.024741 1.787929 0.000000 -0.000000 1.939398 0.000000 0.024741 1.787929 0.000000 0.233896 1.195656 0.000000 0.403777 0.559981 0.000000 0.549432 0.129059 0.000000 0.586008 -0.190022 0.000000 0.598044 -0.429929 0.000000 0.525424 -0.601749 0.000000 0.445152 -0.661463 0.000000 0.331000 -0.660449 0.000000 0.226063 -0.588462 0.000000 0.123668 -0.501884 0.000000 0.040150 -0.388286 0.000000 -0.012732 -0.282167 0.000000 -0.037922 -0.182595 0.000000 -0.027335 -0.111639 0.000000 
0.000000 -0.099434 0.000000 -0.003440 -0.117056 0.000000 -0.020118 -0.166200 0.000000 -0.063568 -0.239736 0.000000 -0.131938 -0.321443 0.000000 -0.225963 -0.414643 0.000000 -0.342206 -0.492784 0.000000 -0.464394 -0.561140 0.000000 -0.600535 -0.575974 0.000000 -0.708662 -0.537697 0.000000 -0.809328 -0.408096 0.000000 -0.833747 -0.206476 0.000000 -0.835186 0.091374 0.000000 -0.748163 0.483923 0.000000 -0.602825 1.023146 0.000000 -0.282192 1.592825 0.000000 -0.000000 1.799387 0.000000 0.282192 1.592825 0.000000 0.602825 1.023146 0.000000 0.748163 0.483923 0.000000 0.835186 0.091374 0.000000 0.833747 -0.206476 0.000000 0.809328 -0.408096 0.000000 0.708662 -0.537697 0.000000 0.600535 -0.575974 0.000000 0.464394 -0.561140 0.000000 0.342206 -0.492784 0.000000 0.225963 -0.414643 0.000000 0.131938 -0.321443 0.000000 0.063568 -0.239736 0.000000 0.020118 -0.166200 0.000000 0.003440 -0.117056 0.000000 
0.000000 -0.080477 0.000000 -0.026726 -0.091521 0.000000 -0.065423 -0.122466 0.000000 -0.125918 -0.170348 0.000000 -0.213444 -0.225892 0.000000 -0.326313 -0.291615 0.000000 -0.471352 -0.350031 0.000000 -0.629577 -0.402120 0.000000 -0.813674 -0.417195 0.000000 -0.977411 -0.392956 0.000000 -1.136621 -0.304844 0.000000 -1.219574 -0.164163 0.000000 -1.256111 0.043475 0.000000 -1.157665 0.327619 0.000000 -0.956724 0.729684 0.000000 -0.527654 1.185104 0.000000 -0.000000 1.375014 0.000000 0.527654 1.185104 0.000000 0.956724 0.729684 0.000000 1.157665 0.327619 0.000000 1.256111 0.043475 0.000000 1.219574 -0.164163 0.000000 1.136621 -0.304844 0.000000 0.977411 -0.392956 0.000000 0.813674 -0.417195 0.000000 0.629577 -0.402120 0.000000 0.471352 -0.350031 0.000000 0.326313 -0.291615 0.000000 0.213444 -0.225892 0.000000 0.125918 -0.170348 0.000000 0.065423 -0.122466 0.000000 0.026726 -0.091521 0.000000 
-0.000000 -0.045982 0.000000 -0.040239 -0.051633 0.000000 -0.091521 -0.067008 0.000000 -0.162705 -0.091715 0.000000 -0.261869 -0.121048 0.000000 -0.388596 -0.156735 0.000000 -0.553484 -0.189520 0.000000 -0.738628 -0.218818 0.000000 -0.955605 -0.228139 0.000000 -1.155823 -0.214750 0.000000 -1.348560 -0.165933 0.000000 -1.460667 -0.086987 0.000000 -1.512724 0.029465 0.000000 -1.417192 0.184537 0.000000 -1.185104 0.393135 0.000000 -0.687507 0.636100 0.000000 0.000000 0.744078 0.000000 0.687507 0.636100 0.000000 1.185104 0.393135 0.000000 1.417192 0.184537 0.000000 1.512724 0.029465 0.000000 1.460667 -0.086987 0.000000 1.348560 -0.165933 0.000000 1.155823 -0.214750 0.000000 0.955605 -0.228139 0.000000 0.738628 -0.218818 0.000000 0.553484 -0.189520 0.000000 0.388596 -0.156735 0.000000 0.261869 -0.121048 0.000000 0.162705 -0.091715 0.000000 0.091521 -0.067008 0.000000 0.040239 -0.051633 0.000000 
