# vtk DataFile Version 2.0
Comment goes here
ASCII

DATASET STRUCTURED_POINTS
FIELD FieldData 1
TIME 1 1 double
0.68000000
DIMENSIONS    32   32   1

ORIGIN    0.000   0.000   0.000
SPACING   0.03125 0.03125   1.000

POINT_DATA   1024
VECTORS u double

0.000000 -0.000000 0.000000 0.077390 -0.000000 0.000000 0.143259 -0.000000 0.000000 0.197571 -0.000000 0.000000 0.219525 -0.000000 0.000000 0.219310 -0.000000 0.000000 0.166143 -0.000000 0.000000 0.081168 -0.000000 0.000000 -0.071364 -0.000000 0.000000 -0.244365 -0.000000 0.000000 -0.470127 -0.000000 0.000000 -0.660355 0.000000 0.000000 -0.835668 0.000000 0.000000 -0.871416 0.000000 0.000000 -0.777585 -0.000000 0.000000 -0.472917 0.000000 0.000000 0.000000 -0.000000 0.000000 0.472917 -0.000000 0.000000 0.777585 -0.000000 0.000000 0.871416 -0.000000 0.000000 0.835668 -0.000000 0.000000 0.660355 -0.000000 0.000000 0.470127 0.000000 0.000000 0.244365 0.000000 0.000000 0.071364 0.000000 0.000000 -0.081168 0.000000 0.000000 -0.166143 0.000000 0.000000 -0.219310 0.000000 0.000000 -0.219525 0.000000 0.000000 -0.197571 -0.000000 0.000000 -0.143259 0.000000 0.000000 -0.077390 -0.000000 0.000000 
-0.000000 -0.077390 0.000000 0.079165 -0.071630 0.000000 0.146589 -0.060090 0.000000 0.203344 -0.038133 0.000000 0.228037 -0.010870 0.000000 0.234204 0.026691 0.000000 0.188902 0.069071 0.000000 0.118931 0.118754 0.000000 -0.019092 0.162766 0.000000 -0.170207 0.199382 0.000000 -0.382961 0.207995 0.000000 -0.560037 0.182770 0.000000 -0.737646 0.105531 0.000000 -0.789819 -0.029042 0.000000 -0.695336 -0.199249 0.000000 -0.425462 -0.388792 0.000000 0.000000 -0.472917 0.000000 0.425462 -0.388792 0.000000 0.695336 -0.199249 0.000000 0.789819 -0.029042 0.000000 0.737646 0.105531 0.000000 0.560037 0.182770 0.000000 0.382961 0.207995 0.000000 0.170207 0.199382 0.000000 0.019092 0.162766 0.000000 -0.118931 0.118754 0.000000 -0.188902 0.069071 0.000000 -0.234204 0.026691 0.000000 -0.228037 -0.010870 0.000000 -0.203344 -0.038133 0.000000 -0.146589 -0.060090 0.000000 -0.079165 -0.071630 0.000000 
-0.000000 -0.158330 0.000000 0.093280 -0.146589 0.000000 0.174713 -0.124179 0.000000 0.245825 -0.081448 0.000000 0.288463 -0.030859 0.000000 0.317350 0.039135 0.000000 0.307117 0.115273 0.000000 0.281057 0.207994 0.000000 0.204921 0.289138 0.000000 0.118329 0.363869 0.000000 -0.024147 0.389830 0.000000 -0.150525 0.354685 0.000000 -0.316472 0.229782 0.000000 -0.409954 -0.042309 0.000000 -0.465817 -0.364357 0.000000 -0.333648 -0.695336 0.000000 0.000000 -0.850924 0.000000 0.333648 -0.695336 0.000000 0.465817 -0.364357 0.000000 0.409954 -0.042309 0.000000 0.316472 0.229782 0.000000 0.150525 0.354685 0.000000 0.024147 0.389830 0.000000 -0.118329 0.363869 0.000000 -0.204921 0.289138 0.000000 -0.281057 0.207994 0.000000 -0.307117 0.115273 0.000000 -0.317350 0.039135 0.000000 -0.288463 -0.030859 0.000000 -0.245825 -0.081448 0.000000 -0.174713 -0.124179 0.000000 -0.093280 -0.146589 0.000000 
-0.000000 -0.263950 0.000000 0.109686 -0.246342 0.000000 0.206251 -0.212635 0.000000 0.292616 -0.151883 0.000000 0.352540 -0.082395 0.000000 0.406102 0.008036 0.000000 0.431362 0.105365 0.000000 0.456627 0.220950 0.000000 0.442996 0.325494 0.000000 0.432392 0.428450 0.000000 0.343165 0.476849 0.000000 0.260946 0.475095 0.000000 0.057160 0.364960 0.000000 -0.090303 0.120303 0.000000 -0.165002 -0.275556 0.000000 -0.150339 -0.854609 0.000000 0.000000 -1.140212 0.000000 0.150339 -0.854609 0.000000 0.165002 -0.275556 0.000000 0.090303 0.120303 0.000000 -0.057160 0.364960 0.000000 -0.260946 0.475095 0.000000 -0.343165 0.476849 0.000000 -0.432392 0.428450 0.000000 -0.442996 0.325494 0.000000 -0.456627 0.220950 0.000000 -0.431362 0.105365 0.000000 -0.406102 0.008036 0.000000 -0.352540 -0.082395 0.000000 -0.292616 -0.151883 0.000000 -0.206251 -0.212635 0.000000 -0.109686 -0.246342 0.000000 
-0.000000 -0.377702 0.000000 0.135929 -0.352840 0.000000 0.255605 -0.307109 0.000000 0.362889 -0.227737 0.000000 0.443347 -0.144346 0.000000 0.522189 -0.039687 0.000000 0.585363 0.064748 0.000000 0.659510 0.196360 0.000000 0.722573 0.313373 0.000000 0.794545 0.463699 0.000000 0.813763 0.561275 0.000000 0.825812 0.640690 0.000000 0.732632 0.581032 0.000000 0.565476 0.179852 0.000000 0.124692 -0.304321 0.000000 -0.046438 -0.860338 0.000000 0.000000 -1.151602 0.000000 0.046438 -0.860338 0.000000 -0.124692 -0.304321 0.000000 -0.565476 0.179852 0.000000 -0.732632 0.581032 0.000000 -0.825812 0.640690 0.000000 -0.813763 0.561275 0.000000 -0.794545 0.463699 0.000000 -0.722573 0.313373 0.000000 -0.659510 0.196360 0.000000 -0.585363 0.064748 0.000000 -0.522189 -0.039687 0.000000 -0.443347 -0.144346 0.000000 -0.362889 -0.227737 0.000000 -0.255605 -0.307109 0.000000 -0.135929 -0.352840 0.000000 
-0.000000 -0.535808 0.000000 0.161285 -0.501948 0.000000 0.301721 -0.439595 0.000000 0.424894 -0.339625 0.000000 0.519046 -0.241694 0.000000 0.614592 -0.133979 0.000000 0.707727 -0.031957 0.000000 0.823670 0.083739 0.000000 0.957403 0.190459 0.000000 1.117093 0.337260 0.000000 1.208488 0.445582 0.000000 1.291433 0.556227 0.000000 0.999101 0.625296 0.000000 0.919898 0.728243 0.000000 1.100191 0.336358 0.000000 1.010626 -0.729917 0.000000 0.000000 -1.233088 0.000000 -1.010626 -0.729917 0.000000 -1.100191 0.336358 0.000000 -0.919898 0.728243 0.000000 -0.999101 0.625296 0.000000 -1.291433 0.556227 0.000000 -1.208488 0.445582 0.000000 -1.117093 0.337260 0.000000 -0.957403 0.190459 0.000000 -0.823670 0.083739 0.000000 -0.707727 -0.031957 0.000000 -0.614592 -0.133979 0.000000 -0.519046 -0.241694 0.000000 -0.424894 -0.339625 0.000000 -0.301721 -0.439595 0.000000 -0.161285 -0.501948 0.000000 
-0.000000 -0.700272 0.000000 0.191204 -0.654561 0.000000 0.354367 -0.570718 0.000000 0.494352 -0.445062 0.000000 0.595156 -0.334043 0.000000 0.700427 -0.228367 0.000000 0.806019 -0.144330 0.000000 0.943323 -0.053315 0.000000 1.133158 0.019950 0.000000 1.337046 0.212614 0.000000 1.539976 0.386935 0.000000 1.713499 0.850077 0.000000 2.119755 0.952567 0.000000 2.944283 0.078762 0.000000 2.863476 -0.395049 0.000000 1.733898 0.239853 0.000000 -0.000000 0.869649 0.000000 -1.733898 0.239853 0.000000 -2.863476 -0.395049 0.000000 -2.944283 0.078762 0.000000 -2.119755 0.952567 0.000000 -1.713499 0.850077 0.000000 -1.539976 0.386935 0.000000 -1.337046 0.212614 0.000000 -1.133158 0.019950 0.000000 -0.943323 -0.053315 0.000000 -0.806019 -0.144330 0.000000 -0.700427 -0.228367 0.000000 -0.595156 -0.334043 0.000000 -0.494352 -0.445062 0.000000 -0.354367 -0.570718 0.000000 -0.191204 -0.654561 0.000000 
-0.000000 -0.918216 0.000000 0.209640 -0.856315 0.000000 0.385482 -0.742743 0.000000 0.529980 -0.580413 0.000000 0.626902 -0.447769 0.000000 0.728171 -0.344842 0.000000 0.844569 -0.274853 0.000000 0.999622 -0.243400 0.000000 1.314981 -0.203265 0.000000 1.565420 -0.069558 0.000000 2.046524 0.069129 0.000000 2.515319 -0.023552 0.000000 2.809727 -0.605488 0.000000 2.252233 -0.015479 0.000000 0.971543 1.546743 0.000000 0.127472 2.133559 0.000000 0.000000 2.234708 0.000000 -0.127472 2.133559 0.000000 -0.971543 1.546743 0.000000 -2.252233 -0.015479 0.000000 -2.809727 -0.605488 0.000000 -2.515319 -0.023552 0.000000 -2.046524 0.069129 0.000000 -1.565420 -0.069558 0.000000 -1.314981 -0.203265 0.000000 -0.999622 -0.243400 0.000000 -0.844569 -0.274853 0.000000 -0.728171 -0.344842 0.000000 -0.626902 -0.447769 0.000000 -0.529980 -0.580413 0.000000 -0.385482 -0.742743 0.000000 -0.209640 -0.856315 0.000000 
-0.000000 -1.119552 0.000000 0.219728 -1.040043 0.000000 0.401249 -0.891058 0.000000 0.548199 -0.686482 0.000000 0.630093 -0.532234 0.000000 0.726257 -0.446035 0.000000 0.817118 -0.415782 0.000000 0.982596 -0.523727 0.000000 1.323082 -0.545848 0.000000 1.276492 -0.518929 0.000000 1.357499 -0.562964 0.000000 1.049775 0.086874 0.000000 0.086058 1.215653 0.000000 -1.096703 1.916946 0.000000 -1.065703 1.729712 0.000000 -0.431922 1.211397 0.000000 0.000000 1.124593 0.000000 0.431922 1.211397 0.000000 1.065703 1.729712 0.000000 1.096703 1.916946 0.000000 -0.086058 1.215653 0.000000 -1.049775 0.086874 0.000000 -1.357499 -0.562964 0.000000 -1.276492 -0.518929 0.000000 -1.323082 -0.545848 0.000000 -0.982596 -0.523727 0.000000 -0.817118 -0.415782 0.000000 -0.726257 -0.446035 0.000000 -0.630093 -0.532234 0.000000 -0.548199 -0.686482 0.000000 -0.401249 -0.891058 0.000000 -0.219728 -1.040043 0.000000 
-0.000000 -1.357673 0.000000 0.199231 -1.257564 0.000000 0.361382 -1.071215 0.000000 0.484960 -0.809258 0.000000 0.528904 -0.625827 0.000000 0.593518 -0.531866 0.000000 0.614601 -0.531192 0.000000 0.798508 -0.749364 0.000000 0.895860 -0.497161 0.000000 0.314655 -0.103976 0.000000 -0.076119 0.295846 0.000000 -0.797961 1.247890 0.000000 -1.173140 1.540990 0.000000 -0.593234 1.136282 0.000000 -0.045754 0.881962 0.000000 0.144846 1.067856 0.000000 -0.000000 1.370865 0.000000 -0.144846 1.067856 0.000000 0.045754 0.881962 0.000000 0.593234 1.136282 0.000000 1.173140 1.540990 0.000000 0.797961 1.247890 0.000000 0.076119 0.295846 0.000000 -0.314655 -0.103976 0.000000 -0.895860 -0.497161 0.000000 -0.798508 -0.749364 0.000000 -0.614601 -0.531192 0.000000 -0.593518 -0.531866 0.000000 -0.528904 -0.625827 0.000000 -0.484960 -0.809258 0.000000 -0.361382 -1.071215 0.000000 -0.199231 -1.257564 0.000000 
0.000000 -1.518014 0.000000 0.158231 -1.401425 0.000000 0.288113 -1.176787 0.000000 0.383386 -0.854004 0.000000 0.394578 -0.640793 0.000000 0.456313 -0.531731 0.000000 0.394544 -0.620771 0.000000 0.682230 -0.804986 0.000000 -0.027754 -0.061996 0.000000 -0.521817 0.453050 0.000000 -0.498996 0.549652 0.000000 -0.918202 1.183894 0.000000 -0.655895 1.010925 0.000000 -0.226908 0.789560 0.000000 -0.078778 0.991632 0.000000 -0.078439 1.165643 0.000000 -0.000000 1.414286 0.000000 0.078439 1.165643 0.000000 0.078778 0.991632 0.000000 0.226908 0.789560 0.000000 0.655895 1.010925 0.000000 0.918202 1.183894 0.000000 0.498996 0.549652 0.000000 0.521817 0.453050 0.000000 0.027754 -0.061996 0.000000 -0.682230 -0.804986 0.000000 -0.394544 -0.620771 0.000000 -0.456313 -0.531731 0.000000 -0.394578 -0.640793 0.000000 -0.383386 -0.854004 0.000000 -0.288113 -1.176787 0.000000 -0.158231 -1.401425 0.000000 
0.000000 -1.674134 0.000000 0.077409 -1.545677 0.000000 0.140358 -1.296370 0.000000 0.164979 -0.915723 0.000000 0.118005 -0.698753 0.000000 0.071381 -0.531832 0.000000 -0.128590 -0.757109 0.000000 -0.179509 -0.327066 0.000000 -1.355268 0.706886 0.000000 -0.890031 0.367267 0.000000 -0.769279 0.692232 0.000000 -1.424959 1.404789 0.000000 -0.719490 0.849696 0.000000 -0.678714 0.559165 0.000000 -0.356580 0.733493 0.000000 -0.234746 0.989078 0.000000 -0.000000 1.213987 0.000000 0.234746 0.989078 0.000000 0.356580 0.733493 0.000000 0.678714 0.559165 0.000000 0.719490 0.849696 0.000000 1.424959 1.404789 0.000000 0.769279 0.692232 0.000000 0.890031 0.367267 0.000000 1.355268 0.706886 0.000000 0.179509 -0.327066 0.000000 0.128590 -0.757109 0.000000 -0.071381 -0.531832 0.000000 -0.118005 -0.698753 0.000000 -0.164979 -0.915723 0.000000 -0.140358 -1.296370 0.000000 -0.077409 -1.545677 0.000000 
0.000000 -1.672831 0.000000 -0.034178 -1.541783 0.000000 -0.055867 -1.264357 0.000000 -0.123244 -0.831652 0.000000 -0.181777 -0.547194 0.000000 -0.373770 -0.285136 0.000000 -0.508915 -0.369882 0.000000 -1.102897 0.421691 0.000000 -1.506469 0.648527 0.000000 -0.543341 -0.132938 0.000000 -1.090272 1.084580 0.000000 -1.372941 1.134105 0.000000 -0.642665 0.264681 0.000000 -0.694311 0.426650 0.000000 -0.436406 0.547664 0.000000 -0.301396 0.809063 0.000000 -0.000000 0.944794 0.000000 0.301396 0.809063 0.000000 0.436406 0.547664 0.000000 0.694311 0.426650 0.000000 0.642665 0.264681 0.000000 1.372941 1.134105 0.000000 1.090272 1.084580 0.000000 0.543341 -0.132938 0.000000 1.506469 0.648527 0.000000 1.102897 0.421691 0.000000 0.508915 -0.369882 0.000000 0.373770 -0.285136 0.000000 0.181777 -0.547194 0.000000 0.123244 -0.831652 0.000000 0.055867 -1.264357 0.000000 0.034178 -1.541783 0.000000 
0.000000 -1.605778 0.000000 -0.187366 -1.489809 0.000000 -0.338478 -1.207304 0.000000 -0.502303 -0.789814 0.000000 -0.601725 -0.448228 0.000000 -0.862622 -0.204695 0.000000 -0.965019 -0.027982 0.000000 -1.587549 0.670488 0.000000 -1.185776 0.147329 0.000000 -0.787757 -0.048931 0.000000 -1.361235 1.521832 0.000000 -0.983492 0.957182 0.000000 -0.749569 0.171066 0.000000 -0.700232 0.352906 0.000000 -0.492197 0.340578 0.000000 -0.305703 0.552672 0.000000 -0.000000 0.611195 0.000000 0.305703 0.552672 0.000000 0.492197 0.340578 0.000000 0.700232 0.352906 0.000000 0.749569 0.171066 0.000000 0.983492 0.957182 0.000000 1.361235 1.521832 0.000000 0.787757 -0.048931 0.000000 1.185776 0.147329 0.000000 1.587549 0.670488 0.000000 0.965019 -0.027982 0.000000 0.862622 -0.204695 0.000000 0.601725 -0.448228 0.000000 0.502303 -0.789814 0.000000 0.338478 -1.207304 0.000000 0.187366 -1.489809 0.000000 
0.000000 -1.298100 0.000000 -0.403975 -1.203305 0.000000 -0.756532 -0.949420 0.000000 -1.062188 -0.568404 0.000000 -1.260685 -0.186876 0.000000 -1.483431 0.078158 0.000000 -1.570904 0.355046 0.000000 -1.713885 0.642449 0.000000 -1.117101 -0.151265 0.000000 -1.421497 0.042520 0.000000 -1.379536 1.280315 0.000000 -0.676880 0.522439 0.000000 -0.694707 -0.018580 0.000000 -0.517420 0.169278 0.000000 -0.414002 0.153136 0.000000 -0.235262 0.316865 0.000000 -0.000000 0.333388 0.000000 0.235262 0.316865 0.000000 0.414002 0.153136 0.000000 0.517420 0.169278 0.000000 0.694707 -0.018580 0.000000 0.676880 0.522439 0.000000 1.379536 1.280315 0.000000 1.421497 0.042520 0.000000 1.117101 -0.151265 0.000000 1.713885 0.642449 0.000000 1.570904 0.355046 0.000000 1.483431 0.078158 0.000000 1.260685 -0.186876 0.000000 1.062188 -0.568404 0.000000 0.756532 -0.949420 0.000000 0.403975 -1.203305 0.000000 
0.000000 -0.797828 0.000000 -0.649050 -0.733277 0.000000 -1.203305 -0.549090 0.000000 -1.598470 -0.285660 0.000000 -1.771709 -0.026985 0.000000 -1.785345 0.105524 0.000000 -1.693552 0.202472 0.000000 -1.430300 0.216685 0.000000 -1.051103 -0.145059 0.000000 -1.581565 0.213505 0.000000 -1.008583 0.777215 0.000000 -0.301250 0.272353 0.000000 -0.486144 0.011606 0.000000 -0.319830 0.072201 0.000000 -0.316865 0.058420 0.000000 -0.166694 0.138670 0.000000 0.000000 0.140671 0.000000 0.166694 0.138670 0.000000 0.316865 0.058420 0.000000 0.319830 0.072201 0.000000 0.486144 0.011606 0.000000 0.301250 0.272353 0.000000 1.008583 0.777215 0.000000 1.581565 0.213505 0.000000 1.051103 -0.145059 0.000000 1.430300 0.216685 0.000000 1.693552 0.202472 0.000000 1.785345 0.105524 0.000000 1.771709 -0.026985 0.000000 1.598470 -0.285660 0.000000 1.203305 -0.549090 0.000000 0.649050 -0.733277 0.000000 
-0.000000 0.000000 0.000000 -0.797828 0.000000 0.000000 -1.466554 0.000000 0.000000 -1.896008 0.000000 0.000000 -2.037875 0.000000 0.000000 -1.949979 0.000000 0.000000 -1.826826 0.000000 0.000000 -1.545034 -0.000000 0.000000 -1.393457 -0.000000 0.000000 -1.835152 -0.000000 0.000000 -0.966448 -0.000000 0.000000 -0.280722 -0.000000 0.000000 -0.421742 -0.000000 0.000000 -0.257511 -0.000000 0.000000 -0.277340 -0.000000 0.000000 -0.140671 -0.000000 0.000000 -0.000000 -0.000000 0.000000 0.140671 -0.000000 0.000000 0.277340 -0.000000 0.000000 0.257511 -0.000000 0.000000 0.421742 -0.000000 0.000000 0.280722 -0.000000 0.000000 0.966448 0.000000 0.000000 1.835152 0.000000 0.000000 1.393457 0.000000 0.000000 1.545034 -0.000000 0.000000 1.826826 -0.000000 0.000000 1.949979 -0.000000 0.000000 2.037875 -0.000000 0.000000 1.896008 0.000000 0.000000 1.466554 0.000000 0.000000 0.797828 0.000000 0.000000 
-0.000000 0.797828 0.000000 -0.649050 0.733277 0.000000 -1.203305 0.549090 0.000000 -1.598470 0.285660 0.000000 -1.771709 0.026985 0.000000 -1.785345 -0.105524 0.000000 -1.693552 -0.202472 0.000000 -1.430300 -0.216685 0.000000 -1.051103 0.145059 0.000000 -1.581565 -0.213505 0.000000 -1.008583 -0.777215 0.000000 -0.301250 -0.272353 0.000000 -0.486144 -0.011606 0.000000 -0.319830 -0.072201 0.000000 -0.316865 -0.058420 0.000000 -0.166694 -0.138670 0.000000 -0.000000 -0.140671 0.000000 0.166694 -0.138670 0.000000 0.316865 -0.058420 0.000000 0.319830 -0.072201 0.000000 0.486144 -0.011606 0.000000 0.301250 -0.272353 0.000000 1.008583 -0.777215 0.000000 1.581565 -0.213505 0.000000 1.051103 0.145059 0.000000 1.430300 -0.216685 0.000000 1.693552 -0.202472 0.000000 1.785345 -0.105524 0.000000 1.771709 0.026985 0.000000 1.598470 0.285660 0.000000 1.203305 0.549090 0.000000 0.649050 0.733277 0.000000 
-0.000000 1.298100 0.000000 -0.403975 1.203305 0.000000 -0.756532 0.949420 0.000000 -1.062188 0.568404 0.000000 -1.260685 0.186876 0.000000 -1.483431 -0.078158 0.000000 -1.570904 -0.355046 0.000000 -1.713885 -0.642449 0.000000 -1.117101 0.151265 0.000000 -1.421497 -0.042520 0.000000 -1.379536 -1.280315 0.000000 -0.676880 -0.522439 0.000000 -0.694707 0.018580 0.000000 -0.517420 -0.169278 0.000000 -0.414002 -0.153136 0.000000 -0.235262 -0.316865 0.000000 -0.000000 -0.333388 0.000000 0.235262 -0.316865 0.000000 0.414002 -0.153136 0.000000 0.517420 -0.169278 0.000000 0.694707 0.018580 0.000000 0.676880 -0.522439 0.000000 1.379536 -1.280315 0.000000 1.421497 -0.042520 0.000000 1.117101 0.151265 0.000000 1.713885 -0.642449 0.000000 1.570904 -0.355046 0.000000 1.483431 -0.078158 0.000000 1.260685 0.186876 0.000000 1.062188 0.568404 0.000000 0.756532 0.949420 0.000000 0.403975 1.203305 0.000000 
-0.000000 1.605778 0.000000 -0.187366 1.489809 0.000000 -0.338478 1.207304 0.000000 -0.502303 0.789814 0.000000 -0.601725 0.448228 0.000000 -0.862622 0.204695 0.000000 -0.965019 0.027982 0.000000 -1.587549 -0.670488 0.000000 -1.185776 -0.147329 0.000000 -0.787757 0.048931 0.000000 -1.361235 -1.521832 0.000000 -0.983492 -0.957182 0.000000 -0.749569 -0.171066 0.000000 -0.700232 -0.352906 0.000000 -0.492197 -0.340578 0.000000 -0.305703 -0.552672 0.000000 -0.000000 -0.611195 0.000000 0.305703 -0.552672 0.000000 0.492197 -0.340578 0.000000 0.700232 -0.352906 0.000000 0.749569 -0.171066 0.000000 0.983492 -0.957182 0.000000 1.361235 -1.521832 0.000000 0.787757 0.048931 0.000000 1.185776 -0.147329 0.000000 1.587549 -0.670488 0.000000 0.965019 0.027982 0.000000 0.862622 0.204695 0.000000 0.601725 0.448228 0.000000 0.502303 0.789814 0.000000 0.338478 1.207304 0.000000 0.187366 1.489809 0.000000 
-0.000000 1.672831 0.000000 -0.034178 1.541783 0.000000 -0.055867 1.264357 0.000000 -0.123244 0.831652 0.000000 -0.181777 0.547194 0.000000 -0.373770 0.285136 0.000000 -0.508915 0.369882 0.000000 -1.102897 -0.421691 0.000000 -1.506469 -0.648527 0.000000 -0.543341 0.132938 0.000000 -1.090272 -1.084580 0.000000 -1.372941 -1.134105 0.000000 -0.642665 -0.264681 0.000000 -0.694311 -0.426650 0.000000 -0.436406 -0.547664 0.000000 -0.301396 -0.809063 0.000000 -0.000000 -0.944794 0.000000 0.301396 -0.809063 0.000000 0.436406 -0.547664 0.000000 0.694311 -0.426650 0.000000 0.642665 -0.264681 0.000000 1.372941 -1.134105 0.000000 1.090272 -1.084580 0.000000 0.543341 0.132938 0.000000 1.506469 -0.648527 0.000000 1.102897 -0.421691 0.000000 0.508915 0.369882 0.000000 0.373770 0.285136 0.000000 0.181777 0.547194 0.000000 0.123244 0.831652 0.000000 0.055867 1.264357 0.000000 0.034178 1.541783 0.000000 
-0.000000 1.674134 0.000000 0.077409 1.545677 0.000000 0.140358 1.296370 0.000000 0.164979 0.915723 0.000000 0.118005 0.698753 0.000000 0.071381 0.531832 0.000000 -0.128590 0.757109 0.000000 -0.179509 0.327066 0.000000 -1.355268 -0.706886 0.000000 -0.890031 -0.367267 0.000000 -0.769279 -0.692232 0.000000 -1.424959 -1.404789 0.000000 -0.719490 -0.849696 0.000000 -0.678714 -0.559165 0.000000 -0.356580 -0.733493 0.000000 -0.234746 -0.989078 0.000000 -0.000000 -1.213987 0.000000 0.234746 -0.989078 0.000000 0.356580 -0.733493 0.000000 0.678714 -0.559165 0.000000 0.719490 -0.849696 0.000000 1.424959 -1.404789 0.000000 0.769279 -0.692232 0.000000 0.890031 -0.367267 0.000000 1.355268 -0.706886 0.000000 0.179509 0.327066 0.000000 0.128590 0.757109 0.000000 -0.071381 0.531832 0.000000 -0.118005 0.698753 0.000000 -0.164979 0.915723 0.000000 -0.140358 1.296370 0.000000 -0.077409 1.545677 0.000000 
-0.000000 1.518014 0.000000 0.158231 1.401425 0.000000 0.288113 1.176787 0.000000 0.383386 0.854004 0.000000 0.394578 0.640793 0.000000 0.456313 0.531731 0.000000 0.394544 0.620771 0.000000 0.682230 0.804986 0.000000 -0.027754 0.061996 0.000000 -0.521817 -0.453050 0.000000 -0.498996 -0.549652 0.000000 -0.918202 -1.183894 0.000000 -0.655895 -1.010925 0.000000 -0.226908 -0.789560 0.000000 -0.078778 -0.991632 0.000000 -0.078439 -1.165643 0.000000 -0.000000 -1.414286 0.000000 0.078439 -1.165643 0.000000 0.078778 -0.991632 0.000000 0.226908 -0.789560 0.000000 0.655895 -1.010925 0.000000 0.918202 -1.183894 0.000000 0.498996 -0.549652 0.000000 0.521817 -0.453050 0.000000 0.027754 0.061996 0.000000 -0.682230 0.804986 0.000000 -0.394544 0.620771 0.000000 -0.456313 0.531731 0.000000 -0.394578 0.640793 0.000000 -0.383386 0.854004 0.000000 -0.288113 1.176787 0.000000 -0.158231 1.401425 0.000000 
0.000000 1.357673 0.000000 0.199231 1.257564 0.000000 0.361382 1.071215 0.000000 0.484960 0.809258 0.000000 0.528904 0.625827 0.000000 0.593518 0.531866 0.000000 0.614601 0.531192 0.000000 0.798508 0.749364 0.000000 0.895860 0.497161 0.000000 0.314655 0.103976 0.000000 -0.076119 -0.295846 0.000000 -0.797961 -1.247890 0.000000 -1.173140 -1.540990 0.000000 -0.593234 -1.136282 0.000000 -0.045754 -0.881962 0.000000 0.144846 -1.067856 0.000000 -0.000000 -1.370865 0.000000 -0.144846 -1.067856 0.000000 0.045754 -0.881962 0.000000 0.593234 -1.136282 0.000000 1.173140 -1.540990 0.000000 0.797961 -1.247890 0.000000 0.076119 -0.295846 0.000000 -0.314655 0.103976 0.000000 -0.895860 0.497161 0.000000 -0.798508 0.749364 0.000000 -0.614601 0.531192 0.000000 -0.593518 0.531866 0.000000 -0.528904 0.625827 0.000000 -0.484960 0.809258 0.000000 -0.361382 1.071215 0.000000 -0.199231 1.257564 0.000000 
0.000000 1.119552 0.000000 0.219728 1.040043 0.000000 0.401249 0.891058 0.000000 0.548199 0.686482 0.000000 0.630093 0.532234 0.000000 0.726257 0.446035 0.000000 0.817118 0.415782 0.000000 0.982596 0.523727 0.000000 1.323082 0.545848 0.000000 1.276492 0.518929 0.000000 1.357499 0.562964 0.000000 1.049775 -0.086874 0.000000 0.086058 -1.215653 0.000000 -1.096703 -1.916946 0.000000 -1.065703 -1.729712 0.000000 -0.431922 -1.211397 0.000000 0.000000 -1.124593 0.000000 0.431922 -1.211397 0.000000 1.065703 -1.729712 0.000000 1.096703 -1.916946 0.000000 -0.086058 -1.215653 0.000000 -1.049775 -0.086874 0.000000 -1.357499 0.562964 0.000000 -1.276492 0.518929 0.000000 -1.323082 0.545848 0.000000 -0.982596 0.523727 0.000000 -0.817118 0.415782 0.000000 -0.726257 0.446035 0.000000 -0.630093 0.532234 0.000000 -0.548199 0.686482 0.000000 -0.401249 0.891058 0.000000 -0.219728 1.040043 0.000000 
0.000000 0.918216 0.000000 0.209640 0.856315 0.000000 0.385482 0.742743 0.000000 0.529980 0.580413 0.000000 0.626902 0.447769 0.000000 0.728171 0.344842 0.000000 0.844569 0.274853 0.000000 0.999622 0.243400 0.000000 1.314981 0.203265 0.000000 1.565420 0.069558 0.000000 2.046524 -0.069129 0.000000 2.515319 0.023552 0.000000 2.809727 0.605488 0.000000 2.252233 0.015479 0.000000 0.971543 -1.546743 0.000000 0.127472 -2.133559 0.000000 0.000000 -2.234708 0.000000 -0.127472 -2.133559 0.000000 -0.971543 -1.546743 0.000000 -2.252233 0.015479 0.000000 -2.809727 0.605488 0.000000 -2.515319 0.023552 0.000000 -2.046524 -0.069129 0.000000 -1.565420 0.069558 0.000000 -1.314981 0.203265 0.000000 -0.999622 0.243400 0.000000 -0.844569 0.274853 0.000000 -0.728171 0.344842 0.000000 -0.626902 0.447769 0.000000 -0.529980 0.580413 0.000000 -0.385482 0.742743 0.000000 -0.209640 0.856315 0.000000 
0.000000 0.700272 0.000000 0.191204 0.654561 0.000000 0.354367 0.570718 0.000000 0.494352 0.445062 0.000000 0.595156 0.334043 0.000000 0.700427 0.228367 0.000000 0.806019 0.144330 0.000000 0.943323 0.053315 0.000000 1.133158 -0.019950 0.000000 1.337046 -0.212614 0.000000 1.539976 -0.386935 0.000000 1.713499 -0.850077 0.000000 2.119755 -0.952567 0.000000 2.944283 -0.078762 0.000000 2.863476 0.395049 0.000000 1.733898 -0.239853 0.000000 -0.000000 -0.869649 0.000000 -1.733898 -0.239853 0.000000 -2.863476 0.395049 0.000000 -2.944283 -0.078762 0.000000 -2.119755 -0.952567 0.000000 -1.713499 -0.850077 0.000000 -1.539976 -0.386935 0.000000 -1.337046 -0.212614 0.000000 -1.133158 -0.019950 0.000000 -0.943323 0.053315 0.000000 -0.806019 0.144330 0.000000 -0.700427 0.228367 0.000000 -0.595156 0.334043 0.000000 -0.494352 0.445062 0.000000 -0.354367 0.570718 0.000000 -0.191204 0.654561 0.000000 
0.000000 0.535808 0.000000 0.161285 0.501948 0.000000 0.301721 0.439595 0.000000 0.424894 0.339625 0.000000 0.519046 0.241694 0.000000 0.614592 0.133979 0.000000 0.707727 0.031957 0.000000 0.823670 -0.083739 0.000000 0.957403 -0.190459 0.000000 1.117093 -0.337260 0.000000 1.208488 -0.445582 0.000000 1.291433 -0.556227 0.000000 0.999101 -0.625296 0.000000 0.919898 -0.728243 0.000000 1.100191 -0.336358 0.000000 1.010626 0.729917 0.000000 -0.000000 1.233088 0.000000 -1.010626 0.729917 0.000000 -1.100191 -0.336358 0.000000 -0.919898 -0.728243 0.000000 -0.999101 -0.625296 0.000000 -1.291433 -0.556227 0.000000 -1.208488 -0.445582 0.000000 -1.117093 -0.337260 0.000000 -0.957403 -0.190459 0.000000 -0.823670 -0.083739 0.000000 -0.707727 0.031957 0.000000 -0.614592 0.133979 0.000000 -0.519046 0.241694 0.000000 -0.424894 0.339625 0.000000 -0.301721 0.439595 0.000000 -0.161285 0.501948 0.000000 
0.000000 0.377702 0.000000 0.135929 0.352840 0.000000 0.255605 0.307109 0.000000 0.362889 0.227737 0.000000 0.443347 0.144346 0.000000 0.522189 0.039687 0.000000 0.585363 -0.064748 0.000000 0.659510 -0.196360 0.000000 0.722573 -0.313373 0.000000 0.794545 -0.463699 0.000000 0.813763 -0.561275 0.000000 0.825812 -0.640690 0.000000 0.732632 -0.581032 0.000000 0.565476 -0.179852 0.000000 0.124692 0.304321 0.000000 -0.046438 0.860338 0.000000 -0.000000 1.151602 0.000000 0.046438 0.860338 0.000000 -0.124692 0.304321 0.000000 -0.565476 -0.179852 0.000000 -0.732632 -0.581032 0.000000 -0.825812 -0.640690 0.000000 -0.813763 -0.561275 0.000000 -0.794545 -0.463699 0.000000 -0.722573 -0.313373 0.000000 -0.659510 -0.196360 0.000000 -0.585363 -0.064748 0.000000 -0.522189 0.039687 0.000000 -0.443347 0.144346 0.000000 -0.362889 0.227737 0.000000 -0.255605 0.307109 0.000000 -0.135929 0.352840 0.000000 
0.000000 0.263950 0.000000 0.109686 0.246342 0.000000 0.206251 0.212635 0.000000 0.292616 0.151883 0.000000 0.352540 0.082395 0.000000 0.406102 -0.008036 0.000000 0.431362 -0.105365 0.000000 0.456627 -0.220950 0.000000 0.442996 -0.325494 0.000000 0.432392 -0.428450 0.000000 0.343165 -0.476849 0.000000 0.260946 -0.475095 0.000000 0.057160 -0.364960 0.000000 -0.090303 -0.120303 0.000000 -0.165002 0.275556 0.000000 -0.150339 0.854609 0.000000 -0.000000 1.140212 0.000000 0.150339 0.854609 0.000000 0.165002 0.275556 0.000000 0.090303 -0.120303 0.000000 -0.057160 -0.364960 0.000000 -0.260946 -0.475095 0.000000 -0.343165 -0.476849 0.000000 -0.432392 -0.428450 0.000000 -0.442996 -0.325494 0.000000 -0.456627 -0.220950 0.000000 -0.431362 -0.105365 0.000000 -0.406102 -0.008036 0.000000 -0.352540 0.082395 0.000000 -0.292616 0.151883 0.000000 -0.206251 0.212635 0.000000 -0.109686 0.246342 0.000000 
0.000000 0.158330 0.000000 0.093280 0.146589 0.000000 0.174713 0.124179 0.000000 0.245825 0.081448 0.000000 0.288463 0.030859 0.000000 0.317350 -0.039135 0.000000 0.307117 -0.115273 0.000000 0.281057 -0.207994 0.000000 0.204921 -0.289138 0.000000 0.118329 -0.363869 0.000000 -0.024147 -0.389830 0.000000 -0.150525 -0.354685 0.000000 -0.316472 -0.229782 0.000000 -0.409954 0.042309 0.000000 -0.465817 0.364357 0.000000 -0.333648 0.695336 0.000000 0.000000 0.850924 0.000000 0.333648 0.695336 0.000000 0.465817 0.364357 0.000000 0.409954 0.042309 0.000000 0.316472 -0.229782 0.000000 0.150525 -0.354685 0.000000 0.024147 -0.389830 0.000000 -0.118329 -0.363869 0.000000 -0.204921 -0.289138 0.000000 -0.281057 -0.207994 0.000000 -0.307117 -0.115273 0.000000 -0.317350 -0.039135 0.000000 -0.288463 0.030859 0.000000 -0.245825 0.081448 0.000000 -0.174713 0.124179 0.000000 -0.093280 0.146589 0.000000 
-0.000000 0.077390 0.000000 0.079165 0.071630 0.000000 0.146589 0.060090 0.000000 0.203344 0.038133 0.000000 0.228037 0.010870 0.000000 0.234204 -0.026691 0.000000 0.188902 -0.069071 0.000000 0.118931 -0.118754 0.000000 -0.019092 -0.162766 0.000000 -0.170207 -0.199382 0.000000 -0.382961 -0.207995 0.000000 -0.560037 -0.182770 0.000000 -0.737646 -0.105531 0.000000 -0.789819 0.029042 0.000000 -0.695336 0.199249 0.000000 -0.425462 0.388792 0.000000 0.000000 0.472917 0.000000 0.425462 0.388792 0.000000 0.695336 0.199249 0.000000 0.789819 0.029042 0.000000 0.737646 -0.105531 0.000000 0.560037 -0.182770 0.000000 0.382961 -0.207995 0.000000 0.170207 -0.199382 0.000000 0.019092 -0.162766 0.000000 -0.118931 -0.118754 0.000000 -0.188902 -0.069071 0.000000 -0.234204 -0.026691 0.000000 -0.228037 0.010870 0.000000 -0.203344 0.038133 0.000000 -0.146589 0.060090 0.000000 -0.079165 0.071630 0.000000 
