# vtk DataFile Version 2.0
Comment goes here
ASCII

DATASET STRUCTURED_POINTS
FIELD FieldData 1
TIME 1 1 double
1.00000000
DIMENSIONS    32   32   1

ORIGIN    0.000   0.000   0.000
SPACING   0.03125 0.03125   1.000

POINT_DATA   1024
VECTORS u double

-0.000000 -0.000000 0.000000 0.046502 -0.000000 0.000000 0.075100 -0.000000 0.000000 0.079526 -0.000000 0.000000 0.039449 0.000000 0.000000 -0.037543 0.000000 0.000000 -0.167258 0.000000 0.000000 -0.329987 0.000000 0.000000 -0.527013 0.000000 0.000000 -0.730605 0.000000 0.000000 -0.925064 0.000000 0.000000 -1.077775 0.000000 0.000000 -1.155616 0.000000 0.000000 -1.112217 0.000000 0.000000 -0.911429 0.000000 0.000000 -0.525553 0.000000 0.000000 0.000000 0.000000 0.000000 0.525553 -0.000000 0.000000 0.911429 -0.000000 0.000000 1.112217 -0.000000 0.000000 1.155616 -0.000000 0.000000 1.077775 -0.000000 0.000000 0.925064 -0.000000 0.000000 0.730605 -0.000000 0.000000 0.527013 -0.000000 0.000000 0.329987 -0.000000 0.000000 0.167258 -0.000000 0.000000 0.037543 -0.000000 0.000000 -0.039449 -0.000000 0.000000 -0.079526 -0.000000 0.000000 -0.075100 -0.000000 0.000000 -0.046502 -0.000000 0.000000 
-0.000000 -0.046502 0.000000 0.055105 -0.037550 0.000000 0.092319 -0.016512 0.000000 0.106149 0.017825 0.000000 0.076730 0.058534 0.000000 0.013423 0.103354 0.000000 -0.100109 0.146222 0.000000 -0.242922 0.179877 0.000000 -0.419084 0.200309 0.000000 -0.600537 0.199026 0.000000 -0.775408 0.173585 0.000000 -0.915293 0.115276 0.000000 -0.990759 0.017221 0.000000 -0.966743 -0.122093 0.000000 -0.809480 -0.293332 0.000000 -0.479085 -0.455714 0.000000 0.000000 -0.525553 0.000000 0.479085 -0.455714 0.000000 0.809480 -0.293332 0.000000 0.966743 -0.122093 0.000000 0.990759 0.017221 0.000000 0.915293 0.115276 0.000000 0.775408 0.173585 0.000000 0.600537 0.199026 0.000000 0.419084 0.200309 0.000000 0.242922 0.179877 0.000000 0.100109 0.146222 0.000000 -0.013423 0.103354 0.000000 -0.076730 0.058534 0.000000 -0.106149 0.017825 0.000000 -0.092319 -0.016512 0.000000 -0.055105 -0.037550 0.000000 
-0.000000 -0.110209 0.000000 0.074038 -0.092319 0.000000 0.129238 -0.051044 0.000000 0.161724 0.015589 0.000000 0.151944 0.092725 0.000000 0.113492 0.176839 0.000000 0.029602 0.256345 0.000000 -0.077883 0.318975 0.000000 -0.215551 0.357615 0.000000 -0.360146 0.356324 0.000000 -0.502451 0.314756 0.000000 -0.625425 0.215351 0.000000 -0.710096 0.051450 0.000000 -0.725965 -0.181279 0.000000 -0.637659 -0.487658 0.000000 -0.394254 -0.809480 0.000000 0.000000 -0.958170 0.000000 0.394254 -0.809480 0.000000 0.637659 -0.487658 0.000000 0.725965 -0.181279 0.000000 0.710096 0.051450 0.000000 0.625425 0.215351 0.000000 0.502451 0.314756 0.000000 0.360146 0.356324 0.000000 0.215551 0.357615 0.000000 0.077883 0.318975 0.000000 -0.029602 0.256345 0.000000 -0.113492 0.176839 0.000000 -0.151944 0.092725 0.000000 -0.161724 0.015589 0.000000 -0.129238 -0.051044 0.000000 -0.074038 -0.092319 0.000000 
-0.000000 -0.194578 0.000000 0.105477 -0.166788 0.000000 0.190302 -0.104198 0.000000 0.252491 -0.004881 0.000000 0.272841 0.106766 0.000000 0.272069 0.225696 0.000000 0.232656 0.337597 0.000000 0.181974 0.425031 0.000000 0.105983 0.482572 0.000000 0.027576 0.485926 0.000000 -0.055667 0.438865 0.000000 -0.140932 0.322920 0.000000 -0.215117 0.117760 0.000000 -0.290206 -0.194530 0.000000 -0.348828 -0.625042 0.000000 -0.271360 -1.093374 0.000000 -0.000000 -1.314062 0.000000 0.271360 -1.093374 0.000000 0.348828 -0.625042 0.000000 0.290206 -0.194530 0.000000 0.215117 0.117760 0.000000 0.140932 0.322920 0.000000 0.055667 0.438865 0.000000 -0.027576 0.485926 0.000000 -0.105983 0.482572 0.000000 -0.181974 0.425031 0.000000 -0.232656 0.337597 0.000000 -0.272069 0.225696 0.000000 -0.272841 0.106766 0.000000 -0.252491 -0.004881 0.000000 -0.190302 -0.104198 0.000000 -0.105477 -0.166788 0.000000 
0.000000 -0.321163 0.000000 0.141291 -0.282621 0.000000 0.258240 -0.198058 0.000000 0.351057 -0.066950 0.000000 0.397994 0.073147 0.000000 0.429653 0.217024 0.000000 0.425651 0.346440 0.000000 0.420952 0.445647 0.000000 0.395175 0.512013 0.000000 0.363426 0.517973 0.000000 0.321990 0.483264 0.000000 0.248144 0.374801 0.000000 0.141760 0.200724 0.000000 0.012185 -0.047568 0.000000 -0.111033 -0.506504 0.000000 -0.109370 -1.158308 0.000000 -0.000000 -1.500890 0.000000 0.109370 -1.158308 0.000000 0.111033 -0.506504 0.000000 -0.012185 -0.047568 0.000000 -0.141760 0.200724 0.000000 -0.248144 0.374801 0.000000 -0.321990 0.483264 0.000000 -0.363426 0.517973 0.000000 -0.395175 0.512013 0.000000 -0.420952 0.445647 0.000000 -0.425651 0.346440 0.000000 -0.429653 0.217024 0.000000 -0.397994 0.073147 0.000000 -0.351057 -0.066950 0.000000 -0.258240 -0.198058 0.000000 -0.141291 -0.282621 0.000000 
0.000000 -0.477160 0.000000 0.178189 -0.425027 0.000000 0.327796 -0.313964 0.000000 0.450147 -0.144636 0.000000 0.520654 0.028170 0.000000 0.579628 0.198039 0.000000 0.603869 0.346298 0.000000 0.642140 0.455506 0.000000 0.663845 0.540099 0.000000 0.698095 0.559111 0.000000 0.723535 0.554146 0.000000 0.720135 0.503150 0.000000 0.749810 0.353719 0.000000 0.632507 0.058263 0.000000 0.270573 -0.503487 0.000000 0.105062 -1.204407 0.000000 -0.000000 -1.532803 0.000000 -0.105062 -1.204407 0.000000 -0.270573 -0.503487 0.000000 -0.632507 0.058263 0.000000 -0.749810 0.353719 0.000000 -0.720135 0.503150 0.000000 -0.723535 0.554146 0.000000 -0.698095 0.559111 0.000000 -0.663845 0.540099 0.000000 -0.642140 0.455506 0.000000 -0.603869 0.346298 0.000000 -0.579628 0.198039 0.000000 -0.520654 0.028170 0.000000 -0.450147 -0.144636 0.000000 -0.327796 -0.313964 0.000000 -0.178189 -0.425027 0.000000 
0.000000 -0.677541 0.000000 0.208737 -0.610417 0.000000 0.384153 -0.470015 0.000000 0.530762 -0.259807 0.000000 0.616320 -0.056335 0.000000 0.696406 0.133809 0.000000 0.735640 0.283929 0.000000 0.805132 0.385671 0.000000 0.860408 0.456057 0.000000 0.932231 0.458284 0.000000 1.018871 0.461225 0.000000 1.033015 0.348525 0.000000 0.981911 0.288351 0.000000 0.833447 0.431670 0.000000 0.886277 0.020940 0.000000 0.880782 -0.887735 0.000000 0.000000 -1.290765 0.000000 -0.880782 -0.887735 0.000000 -0.886277 0.020940 0.000000 -0.833447 0.431670 0.000000 -0.981911 0.288351 0.000000 -1.033015 0.348525 0.000000 -1.018871 0.461225 0.000000 -0.932231 0.458284 0.000000 -0.860408 0.456057 0.000000 -0.805132 0.385671 0.000000 -0.735640 0.283929 0.000000 -0.696406 0.133809 0.000000 -0.616320 -0.056335 0.000000 -0.530762 -0.259807 0.000000 -0.384153 -0.470015 0.000000 -0.208737 -0.610417 0.000000 
0.000000 -0.894635 0.000000 0.224484 -0.809180 0.000000 0.412765 -0.635989 0.000000 0.570239 -0.376803 0.000000 0.660362 -0.137474 0.000000 0.748025 0.078719 0.000000 0.790592 0.237572 0.000000 0.876258 0.330739 0.000000 0.944698 0.413000 0.000000 1.066725 0.400648 0.000000 1.097449 0.453362 0.000000 1.263270 0.540110 0.000000 1.775892 0.553288 0.000000 2.237204 0.153897 0.000000 2.263177 -0.550822 0.000000 1.403624 -0.318130 0.000000 0.000000 0.228761 0.000000 -1.403624 -0.318130 0.000000 -2.263177 -0.550822 0.000000 -2.237204 0.153897 0.000000 -1.775892 0.553288 0.000000 -1.263270 0.540110 0.000000 -1.097449 0.453362 0.000000 -1.066725 0.400648 0.000000 -0.944698 0.413000 0.000000 -0.876258 0.330739 0.000000 -0.790592 0.237572 0.000000 -0.748025 0.078719 0.000000 -0.660362 -0.137474 0.000000 -0.570239 -0.376803 0.000000 -0.412765 -0.635989 0.000000 -0.224484 -0.809180 0.000000 
0.000000 -1.126510 0.000000 0.220776 -1.023182 0.000000 0.404991 -0.815770 0.000000 0.561557 -0.507405 0.000000 0.645544 -0.234120 0.000000 0.742587 0.003580 0.000000 0.781193 0.155696 0.000000 0.902005 0.231564 0.000000 0.990750 0.265590 0.000000 1.118340 0.305533 0.000000 1.294741 0.264680 0.000000 1.940460 -0.329918 0.000000 2.151240 -0.685583 0.000000 1.682129 -0.055615 0.000000 0.998777 0.854520 0.000000 0.098180 1.375442 0.000000 0.000000 1.516484 0.000000 -0.098180 1.375442 0.000000 -0.998777 0.854520 0.000000 -1.682129 -0.055615 0.000000 -2.151240 -0.685583 0.000000 -1.940460 -0.329918 0.000000 -1.294741 0.264680 0.000000 -1.118340 0.305533 0.000000 -0.990750 0.265590 0.000000 -0.902005 0.231564 0.000000 -0.781193 0.155696 0.000000 -0.742587 0.003580 0.000000 -0.645544 -0.234120 0.000000 -0.561557 -0.507405 0.000000 -0.404991 -0.815770 0.000000 -0.220776 -1.023182 0.000000 
0.000000 -1.336186 0.000000 0.190122 -1.214171 0.000000 0.348175 -0.976770 0.000000 0.481832 -0.617355 0.000000 0.545062 -0.318504 0.000000 0.628384 -0.056930 0.000000 0.654985 0.078154 0.000000 0.769337 0.121182 0.000000 0.922013 0.196665 0.000000 0.779444 0.096657 0.000000 0.894868 -0.368758 0.000000 0.733626 -0.316390 0.000000 -0.234002 0.811619 0.000000 -0.976797 1.306361 0.000000 -0.878431 1.033127 0.000000 -0.447619 0.680647 0.000000 0.000000 0.425121 0.000000 0.447619 0.680647 0.000000 0.878431 1.033127 0.000000 0.976797 1.306361 0.000000 0.234002 0.811619 0.000000 -0.733626 -0.316390 0.000000 -0.894868 -0.368758 0.000000 -0.779444 0.096657 0.000000 -0.922013 0.196665 0.000000 -0.769337 0.121182 0.000000 -0.654985 0.078154 0.000000 -0.628384 -0.056930 0.000000 -0.545062 -0.318504 0.000000 -0.481832 -0.617355 0.000000 -0.348175 -0.976770 0.000000 -0.190122 -1.214171 0.000000 
0.000000 -1.506754 0.000000 0.132452 -1.371356 0.000000 0.244007 -1.107479 0.000000 0.338471 -0.704292 0.000000 0.375288 -0.380673 0.000000 0.451095 -0.106344 0.000000 0.454963 0.014743 0.000000 0.661141 -0.035463 0.000000 0.478947 0.255483 0.000000 -0.122319 0.332678 0.000000 -0.003246 0.310498 0.000000 -0.610698 0.798952 0.000000 -0.815645 1.024841 0.000000 -0.294390 0.588814 0.000000 0.020756 0.325342 0.000000 0.235873 0.497011 0.000000 0.000000 0.621246 0.000000 -0.235873 0.497011 0.000000 -0.020756 0.325342 0.000000 0.294390 0.588814 0.000000 0.815645 1.024841 0.000000 0.610698 0.798952 0.000000 0.003246 0.310498 0.000000 0.122319 0.332678 0.000000 -0.478947 0.255483 0.000000 -0.661141 -0.035463 0.000000 -0.454963 0.014743 0.000000 -0.451095 -0.106344 0.000000 -0.375288 -0.380673 0.000000 -0.338471 -0.704292 0.000000 -0.244007 -1.107479 0.000000 -0.132452 -1.371356 0.000000 
0.000000 -1.601091 0.000000 0.046941 -1.458179 0.000000 0.089199 -1.182788 0.000000 0.124349 -0.748635 0.000000 0.116276 -0.431129 0.000000 0.152055 -0.136605 0.000000 0.032727 -0.131892 0.000000 0.197790 0.097197 0.000000 -0.656042 0.980125 0.000000 -0.660217 0.578850 0.000000 -0.178045 0.119621 0.000000 -0.636764 0.496009 0.000000 -0.166937 0.495311 0.000000 -0.018548 0.469959 0.000000 0.027808 0.502865 0.000000 -0.001343 0.701403 0.000000 0.000000 0.896867 0.000000 0.001343 0.701403 0.000000 -0.027808 0.502865 0.000000 0.018548 0.469959 0.000000 0.166937 0.495311 0.000000 0.636764 0.496009 0.000000 0.178045 0.119621 0.000000 0.660217 0.578850 0.000000 0.656042 0.980125 0.000000 -0.197790 0.097197 0.000000 -0.032727 -0.131892 0.000000 -0.152055 -0.136605 0.000000 -0.116276 -0.431129 0.000000 -0.124349 -0.748635 0.000000 -0.089199 -1.182788 0.000000 -0.046941 -1.458179 0.000000 
0.000000 -1.600636 0.000000 -0.069141 -1.460555 0.000000 -0.117532 -1.184888 0.000000 -0.169901 -0.731369 0.000000 -0.207055 -0.408379 0.000000 -0.290133 -0.022795 0.000000 -0.435292 -0.030992 0.000000 -0.724702 0.653306 0.000000 -1.549797 1.113490 0.000000 -0.457436 -0.145319 0.000000 -0.344978 0.287045 0.000000 -1.088227 0.787844 0.000000 -0.577630 0.406625 0.000000 -0.539046 0.394068 0.000000 -0.300352 0.308136 0.000000 -0.219937 0.524819 0.000000 0.000000 0.618560 0.000000 0.219937 0.524819 0.000000 0.300352 0.308136 0.000000 0.539046 0.394068 0.000000 0.577630 0.406625 0.000000 1.088227 0.787844 0.000000 0.344978 0.287045 0.000000 0.457436 -0.145319 0.000000 1.549797 1.113490 0.000000 0.724702 0.653306 0.000000 0.435292 -0.030992 0.000000 0.290133 -0.022795 0.000000 0.207055 -0.408379 0.000000 0.169901 -0.731369 0.000000 0.117532 -1.184888 0.000000 0.069141 -1.460555 0.000000 
-0.000000 -1.462808 0.000000 -0.214348 -1.340646 0.000000 -0.375064 -1.082028 0.000000 -0.524357 -0.659113 0.000000 -0.554259 -0.310897 0.000000 -0.716188 0.091632 0.000000 -0.644702 0.302677 0.000000 -1.220258 1.211702 0.000000 -0.980015 0.712859 0.000000 0.064982 -0.625969 0.000000 -0.600774 0.750412 0.000000 -0.720937 0.728662 0.000000 -0.501416 -0.053870 0.000000 -0.384172 0.192681 0.000000 -0.281175 0.183756 0.000000 -0.186457 0.401052 0.000000 0.000000 0.456992 0.000000 0.186457 0.401052 0.000000 0.281175 0.183756 0.000000 0.384172 0.192681 0.000000 0.501416 -0.053870 0.000000 0.720937 0.728662 0.000000 0.600774 0.750412 0.000000 -0.064982 -0.625969 0.000000 0.980015 0.712859 0.000000 1.220258 1.211702 0.000000 0.644702 0.302677 0.000000 0.716188 0.091632 0.000000 0.554259 -0.310897 0.000000 0.524357 -0.659113 0.000000 0.375064 -1.082028 0.000000 0.214348 -1.340646 0.000000 
-0.000000 -1.171941 0.000000 -0.393953 -1.085491 0.000000 -0.716190 -0.874879 0.000000 -0.982888 -0.552174 0.000000 -1.078194 -0.216548 0.000000 -1.216902 0.067648 0.000000 -1.072901 0.473077 0.000000 -1.343044 0.988619 0.000000 -0.520852 -0.171749 0.000000 -0.424627 -0.524559 0.000000 -0.923417 1.072964 0.000000 -0.396003 0.688486 0.000000 -0.467553 0.069860 0.000000 -0.354624 0.173827 0.000000 -0.302822 0.110421 0.000000 -0.179840 0.243644 0.000000 0.000000 0.245646 0.000000 0.179840 0.243644 0.000000 0.302822 0.110421 0.000000 0.354624 0.173827 0.000000 0.467553 0.069860 0.000000 0.396003 0.688486 0.000000 0.923417 1.072964 0.000000 0.424627 -0.524559 0.000000 0.520852 -0.171749 0.000000 1.343044 0.988619 0.000000 1.072901 0.473077 0.000000 1.216902 0.067648 0.000000 1.078194 -0.216548 0.000000 0.982888 -0.552174 0.000000 0.716190 -0.874879 0.000000 0.393953 -1.085491 0.000000 
-0.000000 -0.674902 0.000000 -0.585970 -0.624457 0.000000 -1.085491 -0.493093 0.000000 -1.460849 -0.297109 0.000000 -1.637665 -0.076883 0.000000 -1.677397 0.086339 0.000000 -1.570017 0.428819 0.000000 -1.204319 0.659653 0.000000 -0.581399 -0.205559 0.000000 -1.376069 -0.223403 0.000000 -1.105958 0.721788 0.000000 -0.303104 0.272798 0.000000 -0.417472 -0.095249 0.000000 -0.233244 0.027949 0.000000 -0.243644 0.008972 0.000000 -0.122823 0.098229 0.000000 0.000000 0.097313 0.000000 0.122823 0.098229 0.000000 0.243644 0.008972 0.000000 0.233244 0.027949 0.000000 0.417472 -0.095249 0.000000 0.303104 0.272798 0.000000 1.105958 0.721788 0.000000 1.376069 -0.223403 0.000000 0.581399 -0.205559 0.000000 1.204319 0.659653 0.000000 1.570017 0.428819 0.000000 1.677397 0.086339 0.000000 1.637665 -0.076883 0.000000 1.460849 -0.297109 0.000000 1.085491 -0.493093 0.000000 0.585970 -0.624457 0.000000 
-0.000000 -0.000000 0.000000 -0.674902 -0.000000 0.000000 -1.248913 -0.000000 0.000000 -1.661088 -0.000000 0.000000 -1.843130 -0.000000 0.000000 -1.814854 -0.000000 0.000000 -1.670453 0.000000 0.000000 -0.957217 0.000000 0.000000 -0.351146 0.000000 0.000000 -1.368334 0.000000 0.000000 -0.797953 0.000000 0.000000 0.075241 0.000000 0.000000 -0.252358 0.000000 0.000000 -0.115256 0.000000 0.000000 -0.196459 0.000000 0.000000 -0.097313 -0.000000 0.000000 -0.000000 -0.000000 0.000000 0.097313 -0.000000 0.000000 0.196459 -0.000000 0.000000 0.115256 -0.000000 0.000000 0.252358 -0.000000 0.000000 -0.075241 -0.000000 0.000000 0.797953 0.000000 0.000000 1.368334 0.000000 0.000000 0.351146 0.000000 0.000000 0.957217 -0.000000 0.000000 1.670453 -0.000000 0.000000 1.814854 -0.000000 0.000000 1.843130 0.000000 0.000000 1.661088 0.000000 0.000000 1.248913 0.000000 0.000000 0.674902 0.000000 0.000000 
0.000000 0.674902 0.000000 -0.585970 0.624457 0.000000 -1.085491 0.493093 0.000000 -1.460849 0.297109 0.000000 -1.637665 0.076883 0.000000 -1.677397 -0.086339 0.000000 -1.570017 -0.428819 0.000000 -1.204319 -0.659653 0.000000 -0.581399 0.205559 0.000000 -1.376069 0.223403 0.000000 -1.105958 -0.721788 0.000000 -0.303104 -0.272798 0.000000 -0.417472 0.095249 0.000000 -0.233244 -0.027949 0.000000 -0.243644 -0.008972 0.000000 -0.122823 -0.098229 0.000000 -0.000000 -0.097313 0.000000 0.122823 -0.098229 0.000000 0.243644 -0.008972 0.000000 0.233244 -0.027949 0.000000 0.417472 0.095249 0.000000 0.303104 -0.272798 0.000000 1.105958 -0.721788 0.000000 1.376069 0.223403 0.000000 0.581399 0.205559 0.000000 1.204319 -0.659653 0.000000 1.570017 -0.428819 0.000000 1.677397 -0.086339 0.000000 1.637665 0.076883 0.000000 1.460849 0.297109 0.000000 1.085491 0.493093 0.000000 0.585970 0.624457 0.000000 
0.000000 1.171941 0.000000 -0.393953 1.085491 0.000000 -0.716190 0.874879 0.000000 -0.982888 0.552174 0.000000 -1.078194 0.216548 0.000000 -1.216902 -0.067648 0.000000 -1.072901 -0.473077 0.000000 -1.343044 -0.988619 0.000000 -0.520852 0.171749 0.000000 -0.424627 0.524559 0.000000 -0.923417 -1.072964 0.000000 -0.396003 -0.688486 0.000000 -0.467553 -0.069860 0.000000 -0.354624 -0.173827 0.000000 -0.302822 -0.110421 0.000000 -0.179840 -0.243644 0.000000 -0.000000 -0.245646 0.000000 0.179840 -0.243644 0.000000 0.302822 -0.110421 0.000000 0.354624 -0.173827 0.000000 0.467553 -0.069860 0.000000 0.396003 -0.688486 0.000000 0.923417 -1.072964 0.000000 0.424627 0.524559 0.000000 0.520852 0.171749 0.000000 1.343044 -0.988619 0.000000 1.072901 -0.473077 0.000000 1.216902 -0.067648 0.000000 1.078194 0.216548 0.000000 0.982888 0.552174 0.000000 0.716190 0.874879 0.000000 0.393953 1.085491 0.000000 
0.000000 1.462808 0.000000 -0.214348 1.340646 0.000000 -0.375064 1.082028 0.000000 -0.524357 0.659113 0.000000 -0.554259 0.310897 0.000000 -0.716188 -0.091632 0.000000 -0.644702 -0.302677 0.000000 -1.220258 -1.211702 0.000000 -0.980015 -0.712859 0.000000 0.064982 0.625969 0.000000 -0.600774 -0.750412 0.000000 -0.720937 -0.728662 0.000000 -0.501416 0.053870 0.000000 -0.384172 -0.192681 0.000000 -0.281175 -0.183756 0.000000 -0.186457 -0.401052 0.000000 -0.000000 -0.456992 0.000000 0.186457 -0.401052 0.000000 0.281175 -0.183756 0.000000 0.384172 -0.192681 0.000000 0.501416 0.053870 0.000000 0.720937 -0.728662 0.000000 0.600774 -0.750412 0.000000 -0.064982 0.625969 0.000000 0.980015 -0.712859 0.000000 1.220258 -1.211702 0.000000 0.644702 -0.302677 0.000000 0.716188 -0.091632 0.000000 0.554259 0.310897 0.000000 0.524357 0.659113 0.000000 0.375064 1.082028 0.000000 0.214348 1.340646 0.000000 
-0.000000 1.600636 0.000000 -0.069141 1.460555 0.000000 -0.117532 1.184888 0.000000 -0.169901 0.731369 0.000000 -0.207055 0.408379 0.000000 -0.290133 0.022795 0.000000 -0.435292 0.030992 0.000000 -0.724702 -0.653306 0.000000 -1.549797 -1.113490 0.000000 -0.457436 0.145319 0.000000 -0.344978 -0.287045 0.000000 -1.088227 -0.787844 0.000000 -0.577630 -0.406625 0.000000 -0.539046 -0.394068 0.000000 -0.300352 -0.308136 0.000000 -0.219937 -0.524819 0.000000 -0.000000 -0.618560 0.000000 0.219937 -0.524819 0.000000 0.300352 -0.308136 0.000000 0.539046 -0.394068 0.000000 0.577630 -0.406625 0.000000 1.088227 -0.787844 0.000000 0.344978 -0.287045 0.000000 0.457436 0.145319 0.000000 1.549797 -1.113490 0.000000 0.724702 -0.653306 0.000000 0.435292 0.030992 0.000000 0.290133 0.022795 0.000000 0.207055 0.408379 0.000000 0.169901 0.731369 0.000000 0.117532 1.184888 0.000000 0.069141 1.460555 0.000000 
-0.000000 1.601091 0.000000 0.046941 1.458179 0.000000 0.089199 1.182788 0.000000 0.124349 0.748635 0.000000 0.116276 0.431129 0.000000 0.152055 0.136605 0.000000 0.032727 0.131892 0.000000 0.197790 -0.097197 0.000000 -0.656042 -0.980125 0.000000 -0.660217 -0.578850 0.000000 -0.178045 -0.119621 0.000000 -0.636764 -0.496009 0.000000 -0.166937 -0.495311 0.000000 -0.018548 -0.469959 0.000000 0.027808 -0.502865 0.000000 -0.001343 -0.701403 0.000000 0.000000 -0.896867 0.000000 0.001343 -0.701403 0.000000 -0.027808 -0.502865 0.000000 0.018548 -0.469959 0.000000 0.166937 -0.495311 0.000000 0.636764 -0.496009 0.000000 0.178045 -0.119621 0.000000 0.660217 -0.578850 0.000000 0.656042 -0.980125 0.000000 -0.197790 -0.097197 0.000000 -0.032727 0.131892 0.000000 -0.152055 0.136605 0.000000 -0.116276 0.431129 0.000000 -0.124349 0.748635 0.000000 -0.089199 1.182788 0.000000 -0.046941 1.458179 0.000000 
-0.000000 1.506754 0.000000 0.132452 1.371356 0.000000 0.244007 1.107479 0.000000 0.338471 0.704292 0.000000 0.375288 0.380673 0.000000 0.451095 0.106344 0.000000 0.454963 -0.014743 0.000000 0.661141 0.035463 0.000000 0.478947 -0.255483 0.000000 -0.122319 -0.332678 0.000000 -0.003246 -0.310498 0.000000 -0.610698 -0.798952 0.000000 -0.815645 -1.024841 0.000000 -0.294390 -0.588814 0.000000 0.020756 -0.325342 0.000000 0.235873 -0.497011 0.000000 0.000000 -0.621246 0.000000 -0.235873 -0.497011 0.000000 -0.020756 -0.325342 0.000000 0.294390 -0.588814 0.000000 0.815645 -1.024841 0.000000 0.610698 -0.798952 0.000000 0.003246 -0.310498 0.000000 0.122319 -0.332678 0.000000 -0.478947 -0.255483 0.000000 -0.661141 0.035463 0.000000 -0.454963 -0.014743 0.000000 -0.451095 0.106344 0.000000 -0.375288 0.380673 0.000000 -0.338471 0.704292 0.000000 -0.244007 1.107479 0.000000 -0.132452 1.371356 0.000000 
-0.000000 1.336186 0.000000 0.190122 1.214171 0.000000 0.348175 0.976770 0.000000 0.481832 0.617355 0.000000 0.545062 0.318504 0.000000 0.628384 0.056930 0.000000 0.654985 -0.078154 0.000000 0.769337 -0.121182 0.000000 0.922013 -0.196665 0.000000 0.779444 -0.096657 0.000000 0.894868 0.368758 0.000000 0.733626 0.316390 0.000000 -0.234002 -0.811619 0.000000 -0.976797 -1.306361 0.000000 -0.878431 -1.033127 0.000000 -0.447619 -0.680647 0.000000 0.000000 -0.425121 0.000000 0.447619 -0.680647 0.000000 0.878431 -1.033127 0.000000 0.976797 -1.306361 0.000000 0.234002 -0.811619 0.000000 -0.733626 0.316390 0.000000 -0.894868 0.368758 0.000000 -0.779444 -0.096657 0.000000 -0.922013 -0.196665 0.000000 -0.769337 -0.121182 0.000000 -0.654985 -0.078154 0.000000 -0.628384 0.056930 0.000000 -0.545062 0.318504 0.000000 -0.481832 0.617355 0.000000 -0.348175 0.976770 0.000000 -0.190122 1.214171 0.000000 
-0.000000 1.126510 0.000000 0.220776 1.023182 0.000000 0.404991 0.815770 0.000000 0.561557 0.507405 0.000000 0.645544 0.234120 0.000000 0.742587 -0.003580 0.000000 0.781193 -0.155696 0.000000 0.902005 -0.231564 0.000000 0.990750 -0.265590 0.000000 1.118340 -0.305533 0.000000 1.294741 -0.264680 0.000000 1.940460 0.329918 0.000000 2.151240 0.685583 0.000000 1.682129 0.055615 0.000000 0.998777 -0.854520 0.000000 0.098180 -1.375442 0.000000 -0.000000 -1.516484 0.000000 -0.098180 -1.375442 0.000000 -0.998777 -0.854520 0.000000 -1.682129 0.055615 0.000000 -2.151240 0.685583 0.000000 -1.940460 0.329918 0.000000 -1.294741 -0.264680 0.000000 -1.118340 -0.305533 0.000000 -0.990750 -0.265590 0.000000 -0.902005 -0.231564 0.000000 -0.781193 -0.155696 0.000000 -0.742587 -0.003580 0.000000 -0.645544 0.234120 0.000000 -0.561557 0.507405 0.000000 -0.404991 0.815770 0.000000 -0.220776 1.023182 0.000000 
-0.000000 0.894635 0.000000 0.224484 0.809180 0.000000 0.412765 0.635989 0.000000 0.570239 0.376803 0.000000 0.660362 0.137474 0.000000 0.748025 -0.078719 0.000000 0.790592 -0.237572 0.000000 0.876258 -0.330739 0.000000 0.944698 -0.413000 0.000000 1.066725 -0.400648 0.000000 1.097449 -0.453362 0.000000 1.263270 -0.540110 0.000000 1.775892 -0.553288 0.000000 2.237204 -0.153897 0.000000 2.263177 0.550822 0.000000 1.403624 0.318130 0.000000 -0.000000 -0.228761 0.000000 -1.403624 0.318130 0.000000 -2.263177 0.550822 0.000000 -2.237204 -0.153897 0.000000 -1.775892 -0.553288 0.000000 -1.263270 -0.540110 0.000000 -1.097449 -0.453362 0.000000 -1.066725 -0.400648 0.000000 -0.944698 -0.413000 0.000000 -0.876258 -0.330739 0.000000 -0.790592 -0.237572 0.000000 -0.748025 -0.078719 0.000000 -0.660362 0.137474 0.000000 -0.570239 0.376803 0.000000 -0.412765 0.635989 0.000000 -0.224484 0.809180 0.000000 
-0.000000 0.677541 0.000000 0.208737 0.610417 0.000000 0.384153 0.470015 0.000000 0.530762 0.259807 0.000000 0.616320 0.056335 0.000000 0.696406 -0.133809 0.000000 0.735640 -0.283929 0.000000 0.805132 -0.385671 0.000000 0.860408 -0.456057 0.000000 0.932231 -0.458284 0.000000 1.018871 -0.461225 0.000000 1.033015 -0.348525 0.000000 0.981911 -0.288351 0.000000 0.833447 -0.431670 0.000000 0.886277 -0.020940 0.000000 0.880782 0.887735 0.000000 -0.000000 1.290765 0.000000 -0.880782 0.887735 0.000000 -0.886277 -0.020940 0.000000 -0.833447 -0.431670 0.000000 -0.981911 -0.288351 0.000000 -1.033015 -0.348525 0.000000 -1.018871 -0.461225 0.000000 -0.932231 -0.458284 0.000000 -0.860408 -0.456057 0.000000 -0.805132 -0.385671 0.000000 -0.735640 -0.283929 0.000000 -0.696406 -0.133809 0.000000 -0.616320 0.056335 0.000000 -0.530762 0.259807 0.000000 -0.384153 0.470015 0.000000 -0.208737 0.610417 0.000000 
-0.000000 0.477160 0.000000 0.178189 0.425027 0.000000 0.327796 0.313964 0.000000 0.450147 0.144636 0.000000 0.520654 -0.028170 0.000000 0.579628 -0.198039 0.000000 0.603869 -0.346298 0.000000 0.642140 -0.455506 0.000000 0.663845 -0.540099 0.000000 0.698095 -0.559111 0.000000 0.723535 -0.554146 0.000000 0.720135 -0.503150 0.000000 0.749810 -0.353719 0.000000 0.632507 -0.058263 0.000000 0.270573 0.503487 0.000000 0.105062 1.204407 0.000000 -0.000000 1.532803 0.000000 -0.105062 1.204407 0.000000 -0.270573 0.503487 0.000000 -0.632507 -0.058263 0.000000 -0.749810 -0.353719 0.000000 -0.720135 -0.503150 0.000000 -0.723535 -0.554146 0.000000 -0.698095 -0.559111 0.000000 -0.663845 -0.540099 0.000000 -0.642140 -0.455506 0.000000 -0.603869 -0.346298 0.000000 -0.579628 -0.198039 0.000000 -0.520654 -0.028170 0.000000 -0.450147 0.144636 0.000000 -0.327796 0.313964 0.000000 -0.178189 0.425027 0.000000 
-0.000000 0.321163 0.000000 0.141291 0.282621 0.000000 0.258240 0.198058 0.000000 0.351057 0.066950 0.000000 0.397994 -0.073147 0.000000 0.429653 -0.217024 0.000000 0.425651 -0.346440 0.000000 0.420952 -0.445647 0.000000 0.395175 -0.512013 0.000000 0.363426 -0.517973 0.000000 0.321990 -0.483264 0.000000 0.248144 -0.374801 0.000000 0.141760 -0.200724 0.000000 0.012185 0.047568 0.000000 -0.111033 0.506504 0.000000 -0.109370 1.158308 0.000000 0.000000 1.500890 0.000000 0.109370 1.158308 0.000000 0.111033 0.506504 0.000000 -0.012185 0.047568 0.000000 -0.141760 -0.200724 0.000000 -0.248144 -0.374801 0.000000 -0.321990 -0.483264 0.000000 -0.363426 -0.517973 0.000000 -0.395175 -0.512013 0.000000 -0.420952 -0.445647 0.000000 -0.425651 -0.346440 0.000000 -0.429653 -0.217024 0.000000 -0.397994 -0.073147 0.000000 -0.351057 0.066950 0.000000 -0.258240 0.198058 0.000000 -0.141291 0.282621 0.000000 
-0.000000 0.194578 0.000000 0.105477 0.166788 0.000000 0.190302 0.104198 0.000000 0.252491 0.004881 0.000000 0.272841 -0.106766 0.000000 0.272069 -0.225696 0.000000 0.232656 -0.337597 0.000000 0.181974 -0.425031 0.000000 0.105983 -0.482572 0.000000 0.027576 -0.485926 0.000000 -0.055667 -0.438865 0.000000 -0.140932 -0.322920 0.000000 -0.215117 -0.117760 0.000000 -0.290206 0.194530 0.000000 -0.348828 0.625042 0.000000 -0.271360 1.093374 0.000000 0.000000 1.314062 0.000000 0.271360 1.093374 0.000000 0.348828 0.625042 0.000000 0.290206 0.194530 0.000000 0.215117 -0.117760 0.000000 0.140932 -0.322920 0.000000 0.055667 -0.438865 0.000000 -0.027576 -0.485926 0.000000 -0.105983 -0.482572 0.000000 -0.181974 -0.425031 0.000000 -0.232656 -0.337597 0.000000 -0.272069 -0.225696 0.000000 -0.272841 -0.106766 0.000000 -0.252491 0.004881 0.000000 -0.190302 0.104198 0.000000 -0.105477 0.166788 0.000000 
-0.000000 0.110209 0.000000 0.074038 0.092319 0.000000 0.129238 0.051044 0.000000 0.161724 -0.015589 0.000000 0.151944 -0.092725 0.000000 0.113492 -0.176839 0.000000 0.029602 -0.256345 0.000000 -0.077883 -0.318975 0.000000 -0.215551 -0.357615 0.000000 -0.360146 -0.356324 0.000000 -0.502451 -0.314756 0.000000 -0.625425 -0.215351 0.000000 -0.710096 -0.051450 0.000000 -0.725965 0.181279 0.000000 -0.637659 0.487658 0.000000 -0.394254 0.809480 0.000000 0.000000 0.958170 0.000000 0.394254 0.809480 0.000000 0.637659 0.487658 0.000000 0.725965 0.181279 0.000000 0.710096 -0.051450 0.000000 0.625425 -0.215351 0.000000 0.502451 -0.314756 0.000000 0.360146 -0.356324 0.000000 0.215551 -0.357615 0.000000 0.077883 -0.318975 0.000000 -0.029602 -0.256345 0.000000 -0.113492 -0.176839 0.000000 -0.151944 -0.092725 0.000000 -0.161724 -0.015589 0.000000 -0.129238 0.051044 0.000000 -0.074038 0.092319 0.000000 
-0.000000 0.046502 0.000000 0.055105 0.037550 0.000000 0.092319 0.016512 0.000000 0.106149 -0.017825 0.000000 0.076730 -0.058534 0.000000 0.013423 -0.103354 0.000000 -0.100109 -0.146222 0.000000 -0.242922 -0.179877 0.000000 -0.419084 -0.200309 0.000000 -0.600537 -0.199026 0.000000 -0.775408 -0.173585 0.000000 -0.915293 -0.115276 0.000000 -0.990759 -0.017221 0.000000 -0.966743 0.122093 0.000000 -0.809480 0.293332 0.000000 -0.479085 0.455714 0.000000 0.000000 0.525553 0.000000 0.479085 0.455714 0.000000 0.809480 0.293332 0.000000 0.966743 0.122093 0.000000 0.990759 -0.017221 0.000000 0.915293 -0.115276 0.000000 0.775408 -0.173585 0.000000 0.600537 -0.199026 0.000000 0.419084 -0.200309 0.000000 0.242922 -0.179877 0.000000 0.100109 -0.146222 0.000000 -0.013423 -0.103354 0.000000 -0.076730 -0.058534 0.000000 -0.106149 -0.017825 0.000000 -0.092319 0.016512 0.000000 -0.055105 0.037550 0.000000 
