# vtk DataFile Version 2.0
Comment goes here
ASCII

DATASET STRUCTURED_POINTS
FIELD FieldData 1
TIME 1 1 double
0.62000000
DIMENSIONS    32   32   1

ORIGIN    0.000   0.000   0.000
SPACING   0.03125 0.03125   1.000

POINT_DATA   1024
VECTORS u double

-0.000000 -0.000000 0.000000 -0.054752 -0.000000 0.000000 -0.116925 -0.000000 0.000000 -0.195879 -0.000000 0.000000 -0.293578 0.000000 0.000000 -0.422899 0.000000 0.000000 -0.576172 0.000000 0.000000 -0.774328 0.000000 0.000000 -0.982732 0.000000 0.000000 -1.227973 0.000000 0.000000 -1.422500 -0.000000 0.000000 -1.610328 0.000000 0.000000 -1.646646 -0.000000 0.000000 -1.604997 0.000000 0.000000 -1.291989 -0.000000 0.000000 -0.776744 -0.000000 0.000000 0.000000 -0.000000 0.000000 0.776744 -0.000000 0.000000 1.291989 0.000000 0.000000 1.604997 -0.000000 0.000000 1.646646 0.000000 0.000000 1.610328 -0.000000 0.000000 1.422500 0.000000 0.000000 1.227973 -0.000000 0.000000 0.982732 -0.000000 0.000000 0.774328 -0.000000 0.000000 0.576172 -0.000000 0.000000 0.422899 -0.000000 0.000000 0.293578 -0.000000 0.000000 0.195879 -0.000000 0.000000 0.116925 -0.000000 0.000000 0.054752 -0.000000 0.000000 
-0.000000 0.054752 0.000000 -0.051767 0.058462 0.000000 -0.111267 0.070563 0.000000 -0.187246 0.088326 0.000000 -0.282086 0.113510 0.000000 -0.406422 0.141297 0.000000 -0.553667 0.175715 0.000000 -0.741459 0.203280 0.000000 -0.938210 0.226822 0.000000 -1.168928 0.219884 0.000000 -1.348508 0.191177 0.000000 -1.522000 0.112073 0.000000 -1.539764 -0.002665 0.000000 -1.484557 -0.177328 0.000000 -1.164453 -0.414126 0.000000 -0.680171 -0.645995 0.000000 0.000000 -0.776744 0.000000 0.680171 -0.645995 0.000000 1.164453 -0.414126 0.000000 1.484557 -0.177328 0.000000 1.539764 -0.002665 0.000000 1.522000 0.112073 0.000000 1.348508 0.191177 0.000000 1.168928 0.219884 0.000000 0.938210 0.226822 0.000000 0.741459 0.203280 0.000000 0.553667 0.175715 0.000000 0.406422 0.141297 0.000000 0.282086 0.113510 0.000000 0.187246 0.088326 0.000000 0.111267 0.070563 0.000000 0.051767 0.058462 0.000000 
-0.000000 0.103533 0.000000 -0.040083 0.111267 0.000000 -0.089049 0.135479 0.000000 -0.154441 0.170819 0.000000 -0.239265 0.219176 0.000000 -0.349136 0.271581 0.000000 -0.478267 0.335037 0.000000 -0.637239 0.384543 0.000000 -0.798211 0.427469 0.000000 -0.982911 0.410297 0.000000 -1.112794 0.353072 0.000000 -1.235412 0.191257 0.000000 -1.200124 -0.037443 0.000000 -1.135429 -0.375312 0.000000 -0.846141 -0.804386 0.000000 -0.461996 -1.164453 0.000000 0.000000 -1.360342 0.000000 0.461996 -1.164453 0.000000 0.846141 -0.804386 0.000000 1.135429 -0.375312 0.000000 1.200124 -0.037443 0.000000 1.235412 0.191257 0.000000 1.112794 0.353072 0.000000 0.982911 0.410297 0.000000 0.798211 0.427469 0.000000 0.637239 0.384543 0.000000 0.478267 0.335037 0.000000 0.349136 0.271581 0.000000 0.239265 0.219176 0.000000 0.154441 0.170819 0.000000 0.089049 0.135479 0.000000 0.040083 0.111267 0.000000 
-0.000000 0.134919 0.000000 -0.022810 0.147512 0.000000 -0.056922 0.184921 0.000000 -0.108363 0.238542 0.000000 -0.182032 0.308205 0.000000 -0.275545 0.380300 0.000000 -0.387901 0.463817 0.000000 -0.516338 0.523224 0.000000 -0.644770 0.572495 0.000000 -0.783257 0.534466 0.000000 -0.866312 0.443678 0.000000 -0.947963 0.199403 0.000000 -0.854618 -0.102648 0.000000 -0.765650 -0.531311 0.000000 -0.462095 -1.087559 0.000000 -0.207196 -1.492136 0.000000 0.000000 -1.700736 0.000000 0.207196 -1.492136 0.000000 0.462095 -1.087559 0.000000 0.765650 -0.531311 0.000000 0.854618 -0.102648 0.000000 0.947963 0.199403 0.000000 0.866312 0.443678 0.000000 0.783257 0.534466 0.000000 0.644770 0.572495 0.000000 0.516338 0.523224 0.000000 0.387901 0.463817 0.000000 0.275545 0.380300 0.000000 0.182032 0.308205 0.000000 0.108363 0.238542 0.000000 0.056922 0.184921 0.000000 0.022810 0.147512 0.000000 
0.000000 0.149153 0.000000 0.003341 0.168189 0.000000 -0.009195 0.221033 0.000000 -0.042409 0.295929 0.000000 -0.104511 0.386358 0.000000 -0.183697 0.477450 0.000000 -0.285718 0.575830 0.000000 -0.393141 0.641412 0.000000 -0.502508 0.694388 0.000000 -0.611386 0.631840 0.000000 -0.671851 0.517778 0.000000 -0.716275 0.179563 0.000000 -0.534981 -0.219757 0.000000 -0.455207 -0.767835 0.000000 -0.210508 -1.362839 0.000000 -0.087369 -1.626548 0.000000 0.000000 -1.774734 0.000000 0.087369 -1.626548 0.000000 0.210508 -1.362839 0.000000 0.455207 -0.767835 0.000000 0.534981 -0.219757 0.000000 0.716275 0.179563 0.000000 0.671851 0.517778 0.000000 0.611386 0.631840 0.000000 0.502508 0.694388 0.000000 0.393141 0.641412 0.000000 0.285718 0.575830 0.000000 0.183697 0.477450 0.000000 0.104511 0.386358 0.000000 0.042409 0.295929 0.000000 0.009195 0.221033 0.000000 -0.003341 0.168189 0.000000 
-0.000000 0.128237 0.000000 0.034871 0.156707 0.000000 0.047543 0.230671 0.000000 0.033011 0.333857 0.000000 -0.020029 0.449494 0.000000 -0.089800 0.561507 0.000000 -0.193590 0.673261 0.000000 -0.293198 0.740014 0.000000 -0.419450 0.790740 0.000000 -0.534308 0.703809 0.000000 -0.635207 0.548567 0.000000 -0.724107 0.062533 0.000000 -0.457550 -0.363717 0.000000 -0.236152 -0.855783 0.000000 0.136245 -1.455397 0.000000 0.174599 -1.702644 0.000000 -0.000000 -1.875474 0.000000 -0.174599 -1.702644 0.000000 -0.136245 -1.455397 0.000000 0.236152 -0.855783 0.000000 0.457550 -0.363717 0.000000 0.724107 0.062533 0.000000 0.635207 0.548567 0.000000 0.534308 0.703809 0.000000 0.419450 0.790740 0.000000 0.293198 0.740014 0.000000 0.193590 0.673261 0.000000 0.089800 0.561507 0.000000 0.020029 0.449494 0.000000 -0.033011 0.333857 0.000000 -0.047543 0.230671 0.000000 -0.034871 0.156707 0.000000 
-0.000000 0.079411 0.000000 0.075512 0.120645 0.000000 0.120090 0.222892 0.000000 0.128073 0.363501 0.000000 0.082418 0.509170 0.000000 0.016601 0.651011 0.000000 -0.102050 0.779227 0.000000 -0.211287 0.867272 0.000000 -0.373279 0.935498 0.000000 -0.545137 0.847596 0.000000 -0.727600 0.707578 0.000000 -0.513358 0.001907 0.000000 0.281386 -0.707712 0.000000 0.772477 -1.361630 0.000000 0.727524 -1.773590 0.000000 0.428485 -1.490303 0.000000 -0.000000 -1.425536 0.000000 -0.428485 -1.490303 0.000000 -0.727524 -1.773590 0.000000 -0.772477 -1.361630 0.000000 -0.281386 -0.707712 0.000000 0.513358 0.001907 0.000000 0.727600 0.707578 0.000000 0.545137 0.847596 0.000000 0.373279 0.935498 0.000000 0.211287 0.867272 0.000000 0.102050 0.779227 0.000000 -0.016601 0.651011 0.000000 -0.082418 0.509170 0.000000 -0.128073 0.363501 0.000000 -0.120090 0.222892 0.000000 -0.075512 0.120645 0.000000 
-0.000000 -0.022787 0.000000 0.117393 0.036616 0.000000 0.196256 0.178110 0.000000 0.225845 0.371530 0.000000 0.190592 0.560966 0.000000 0.128354 0.745975 0.000000 -0.000206 0.901149 0.000000 -0.111414 1.011243 0.000000 -0.341601 1.124590 0.000000 -0.467842 1.058131 0.000000 -0.413095 0.516788 0.000000 0.522421 -0.946454 0.000000 0.919209 -1.649553 0.000000 0.634678 -1.301920 0.000000 0.046845 -1.111405 0.000000 -0.112266 -0.975121 0.000000 0.000000 -1.018503 0.000000 0.112266 -0.975121 0.000000 -0.046845 -1.111405 0.000000 -0.634678 -1.301920 0.000000 -0.919209 -1.649553 0.000000 -0.522421 -0.946454 0.000000 0.413095 0.516788 0.000000 0.467842 1.058131 0.000000 0.341601 1.124590 0.000000 0.111414 1.011243 0.000000 0.000206 0.901149 0.000000 -0.128354 0.745975 0.000000 -0.190592 0.560966 0.000000 -0.225845 0.371530 0.000000 -0.196256 0.178110 0.000000 -0.117393 0.036616 0.000000 
-0.000000 -0.155375 0.000000 0.161498 -0.075610 0.000000 0.279155 0.114440 0.000000 0.337787 0.369165 0.000000 0.319068 0.606661 0.000000 0.264440 0.841809 0.000000 0.110493 1.018996 0.000000 -0.006334 1.208667 0.000000 -0.207008 1.291925 0.000000 -0.220236 0.919090 0.000000 0.228562 -0.282685 0.000000 0.735860 -1.330397 0.000000 0.006191 -0.819970 0.000000 -0.443046 -0.489266 0.000000 -0.380038 -1.026645 0.000000 -0.134489 -1.443458 0.000000 0.000000 -1.650069 0.000000 0.134489 -1.443458 0.000000 0.380038 -1.026645 0.000000 0.443046 -0.489266 0.000000 -0.006191 -0.819970 0.000000 -0.735860 -1.330397 0.000000 -0.228562 -0.282685 0.000000 0.220236 0.919090 0.000000 0.207008 1.291925 0.000000 0.006334 1.208667 0.000000 -0.110493 1.018996 0.000000 -0.264440 0.841809 0.000000 -0.319068 0.606661 0.000000 -0.337787 0.369165 0.000000 -0.279155 0.114440 0.000000 -0.161498 -0.075610 0.000000 
0.000000 -0.345783 0.000000 0.190767 -0.242538 0.000000 0.340465 0.001821 0.000000 0.419974 0.331616 0.000000 0.428038 0.634312 0.000000 0.365591 0.954551 0.000000 0.209538 1.171923 0.000000 0.118165 1.328743 0.000000 0.016935 1.338492 0.000000 0.040430 0.622562 0.000000 0.624387 -0.439308 0.000000 0.457064 -0.724083 0.000000 0.268766 -0.470647 0.000000 0.871309 -0.915691 0.000000 1.008417 -1.419962 0.000000 0.693519 -1.355159 0.000000 -0.000000 -1.287481 0.000000 -0.693519 -1.355159 0.000000 -1.008417 -1.419962 0.000000 -0.871309 -0.915691 0.000000 -0.268766 -0.470647 0.000000 -0.457064 -0.724083 0.000000 -0.624387 -0.439308 0.000000 -0.040430 0.622562 0.000000 -0.016935 1.338492 0.000000 -0.118165 1.328743 0.000000 -0.209538 1.171923 0.000000 -0.365591 0.954551 0.000000 -0.428038 0.634312 0.000000 -0.419974 0.331616 0.000000 -0.340465 0.001821 0.000000 -0.190767 -0.242538 0.000000 
0.000000 -0.536910 0.000000 0.201640 -0.416075 0.000000 0.377745 -0.114766 0.000000 0.489006 0.281592 0.000000 0.560087 0.661043 0.000000 0.564053 1.060308 0.000000 0.467558 1.266422 0.000000 0.629156 1.401270 0.000000 -0.021828 1.369660 0.000000 0.429219 0.311638 0.000000 0.888572 -0.699319 0.000000 0.779408 -0.974776 0.000000 1.133172 -1.234215 0.000000 1.328919 -1.228917 0.000000 1.077765 -0.848855 0.000000 0.566220 -0.435041 0.000000 -0.000000 -0.263031 0.000000 -0.566220 -0.435041 0.000000 -1.077765 -0.848855 0.000000 -1.328919 -1.228917 0.000000 -1.133172 -1.234215 0.000000 -0.779408 -0.974776 0.000000 -0.888572 -0.699319 0.000000 -0.429219 0.311638 0.000000 0.021828 1.369660 0.000000 -0.629156 1.401270 0.000000 -0.467558 1.266422 0.000000 -0.564053 1.060308 0.000000 -0.560087 0.661043 0.000000 -0.489006 0.281592 0.000000 -0.377745 -0.114766 0.000000 -0.201640 -0.416075 0.000000 
0.000000 -0.749064 0.000000 0.174670 -0.620283 0.000000 0.350099 -0.285544 0.000000 0.476917 0.149273 0.000000 0.619339 0.559265 0.000000 0.602540 1.047080 0.000000 0.665167 1.106821 0.000000 0.593008 1.818129 0.000000 -0.254238 1.538429 0.000000 1.084755 -0.287838 0.000000 1.170115 -0.789496 0.000000 0.710630 -0.968683 0.000000 0.639737 -1.020158 0.000000 0.257868 -0.860284 0.000000 0.102354 -0.657263 0.000000 0.012561 -0.277394 0.000000 0.000000 -0.155041 0.000000 -0.012561 -0.277394 0.000000 -0.102354 -0.657263 0.000000 -0.257868 -0.860284 0.000000 -0.639737 -1.020158 0.000000 -0.710630 -0.968683 0.000000 -1.170115 -0.789496 0.000000 -1.084755 -0.287838 0.000000 0.254238 1.538429 0.000000 -0.593008 1.818129 0.000000 -0.665167 1.106821 0.000000 -0.602540 1.047080 0.000000 -0.619339 0.559265 0.000000 -0.476917 0.149273 0.000000 -0.350099 -0.285544 0.000000 -0.174670 -0.620283 0.000000 
0.000000 -0.886249 0.000000 0.096358 -0.766174 0.000000 0.232082 -0.417014 0.000000 0.343852 0.012353 0.000000 0.567274 0.535420 0.000000 0.496804 1.014480 0.000000 0.928165 1.275954 0.000000 -0.195792 2.320675 0.000000 0.298465 0.877913 0.000000 1.368459 -1.112714 0.000000 0.866118 -0.325194 0.000000 0.539249 -0.444398 0.000000 0.225469 -0.781453 0.000000 0.102112 -0.691534 0.000000 -0.033760 -0.603548 0.000000 -0.046893 -0.332688 0.000000 -0.000000 -0.237909 0.000000 0.046893 -0.332688 0.000000 0.033760 -0.603548 0.000000 -0.102112 -0.691534 0.000000 -0.225469 -0.781453 0.000000 -0.539249 -0.444398 0.000000 -0.866118 -0.325194 0.000000 -1.368459 -1.112714 0.000000 -0.298465 0.877913 0.000000 0.195792 2.320675 0.000000 -0.928165 1.275954 0.000000 -0.496804 1.014480 0.000000 -0.567274 0.535420 0.000000 -0.343852 0.012353 0.000000 -0.232082 -0.417014 0.000000 -0.096358 -0.766174 0.000000 
0.000000 -0.941780 0.000000 -0.027571 -0.852365 0.000000 0.012500 -0.533038 0.000000 0.128822 -0.185918 0.000000 0.375159 0.406313 0.000000 0.579670 0.686188 0.000000 0.757903 1.799417 0.000000 -0.298307 2.447830 0.000000 1.339698 -0.025823 0.000000 1.175679 -0.855491 0.000000 0.534380 0.039714 0.000000 0.618582 -0.328034 0.000000 0.310964 -0.583022 0.000000 0.218991 -0.601055 0.000000 0.059714 -0.508258 0.000000 0.002377 -0.311154 0.000000 0.000000 -0.248827 0.000000 -0.002377 -0.311154 0.000000 -0.059714 -0.508258 0.000000 -0.218991 -0.601055 0.000000 -0.310964 -0.583022 0.000000 -0.618582 -0.328034 0.000000 -0.534380 0.039714 0.000000 -1.175679 -0.855491 0.000000 -1.339698 -0.025823 0.000000 0.298307 2.447830 0.000000 -0.757903 1.799417 0.000000 -0.579670 0.686188 0.000000 -0.375159 0.406313 0.000000 -0.128822 -0.185918 0.000000 -0.012500 -0.533038 0.000000 0.027571 -0.852365 0.000000 
0.000000 -0.831106 0.000000 -0.204576 -0.778675 0.000000 -0.340330 -0.573407 0.000000 -0.301803 -0.350306 0.000000 -0.221272 0.084573 0.000000 0.116199 0.631736 0.000000 -0.186871 2.153930 0.000000 0.454531 1.738879 0.000000 1.527394 -0.596072 0.000000 0.835023 -0.307395 0.000000 0.671337 0.231903 0.000000 0.705333 -0.220982 0.000000 0.480222 -0.381862 0.000000 0.335319 -0.440284 0.000000 0.144920 -0.386934 0.000000 0.053281 -0.272974 0.000000 -0.000000 -0.233155 0.000000 -0.053281 -0.272974 0.000000 -0.144920 -0.386934 0.000000 -0.335319 -0.440284 0.000000 -0.480222 -0.381862 0.000000 -0.705333 -0.220982 0.000000 -0.671337 0.231903 0.000000 -0.835023 -0.307395 0.000000 -1.527394 -0.596072 0.000000 -0.454531 1.738879 0.000000 0.186871 2.153930 0.000000 -0.116199 0.631736 0.000000 0.221272 0.084573 0.000000 0.301803 -0.350306 0.000000 0.340330 -0.573407 0.000000 0.204576 -0.778675 0.000000 
0.000000 -0.532629 0.000000 -0.415553 -0.512035 0.000000 -0.778675 -0.435811 0.000000 -0.988960 -0.304976 0.000000 -1.128981 -0.011689 0.000000 -0.904388 0.651787 0.000000 -0.497245 1.461085 0.000000 1.249543 0.733564 0.000000 1.241635 -0.406315 0.000000 0.653470 0.000566 0.000000 0.934240 0.169404 0.000000 0.885373 -0.136919 0.000000 0.713257 -0.213008 0.000000 0.503511 -0.265753 0.000000 0.272974 -0.226219 0.000000 0.116578 -0.166234 0.000000 -0.000000 -0.142265 0.000000 -0.116578 -0.166234 0.000000 -0.272974 -0.226219 0.000000 -0.503511 -0.265753 0.000000 -0.713257 -0.213008 0.000000 -0.885373 -0.136919 0.000000 -0.934240 0.169404 0.000000 -0.653470 0.000566 0.000000 -1.241635 -0.406315 0.000000 -1.249543 0.733564 0.000000 0.497245 1.461085 0.000000 0.904388 0.651787 0.000000 1.128981 -0.011689 0.000000 0.988960 -0.304976 0.000000 0.778675 -0.435811 0.000000 0.415553 -0.512035 0.000000 
-0.000000 0.000000 0.000000 -0.532629 0.000000 0.000000 -1.024070 0.000000 0.000000 -1.404250 0.000000 0.000000 -1.634022 0.000000 0.000000 -1.427629 0.000000 0.000000 -0.330448 0.000000 0.000000 1.494542 -0.000000 0.000000 1.136680 -0.000000 0.000000 0.681912 -0.000000 0.000000 1.137812 0.000000 0.000000 1.020720 0.000000 0.000000 0.863974 0.000000 0.000000 0.594704 0.000000 0.000000 0.332468 -0.000000 0.000000 0.142265 -0.000000 0.000000 -0.000000 -0.000000 0.000000 -0.142265 -0.000000 0.000000 -0.332468 -0.000000 0.000000 -0.594704 -0.000000 0.000000 -0.863974 -0.000000 0.000000 -1.020720 -0.000000 0.000000 -1.137812 -0.000000 0.000000 -0.681912 0.000000 0.000000 -1.136680 0.000000 0.000000 -1.494542 -0.000000 0.000000 0.330448 -0.000000 0.000000 1.427629 -0.000000 0.000000 1.634022 -0.000000 0.000000 1.404250 0.000000 0.000000 1.024070 0.000000 0.000000 0.532629 0.000000 0.000000 
-0.000000 0.532629 0.000000 -0.415553 0.512035 0.000000 -0.778675 0.435811 0.000000 -0.988960 0.304976 0.000000 -1.128981 0.011689 0.000000 -0.904388 -0.651787 0.000000 -0.497245 -1.461085 0.000000 1.249543 -0.733564 0.000000 1.241635 0.406315 0.000000 0.653470 -0.000566 0.000000 0.934240 -0.169404 0.000000 0.885373 0.136919 0.000000 0.713257 0.213008 0.000000 0.503511 0.265753 0.000000 0.272974 0.226219 0.000000 0.116578 0.166234 0.000000 -0.000000 0.142265 0.000000 -0.116578 0.166234 0.000000 -0.272974 0.226219 0.000000 -0.503511 0.265753 0.000000 -0.713257 0.213008 0.000000 -0.885373 0.136919 0.000000 -0.934240 -0.169404 0.000000 -0.653470 -0.000566 0.000000 -1.241635 0.406315 0.000000 -1.249543 -0.733564 0.000000 0.497245 -1.461085 0.000000 0.904388 -0.651787 0.000000 1.128981 0.011689 0.000000 0.988960 0.304976 0.000000 0.778675 0.435811 0.000000 0.415553 0.512035 0.000000 
-0.000000 0.831106 0.000000 -0.204576 0.778675 0.000000 -0.340330 0.573407 0.000000 -0.301803 0.350306 0.000000 -0.221272 -0.084573 0.000000 0.116199 -0.631736 0.000000 -0.186871 -2.153930 0.000000 0.454531 -1.738879 0.000000 1.527394 0.596072 0.000000 0.835023 0.307395 0.000000 0.671337 -0.231903 0.000000 0.705333 0.220982 0.000000 0.480222 0.381862 0.000000 0.335319 0.440284 0.000000 0.144920 0.386934 0.000000 0.053281 0.272974 0.000000 -0.000000 0.233155 0.000000 -0.053281 0.272974 0.000000 -0.144920 0.386934 0.000000 -0.335319 0.440284 0.000000 -0.480222 0.381862 0.000000 -0.705333 0.220982 0.000000 -0.671337 -0.231903 0.000000 -0.835023 0.307395 0.000000 -1.527394 0.596072 0.000000 -0.454531 -1.738879 0.000000 0.186871 -2.153930 0.000000 -0.116199 -0.631736 0.000000 0.221272 -0.084573 0.000000 0.301803 0.350306 0.000000 0.340330 0.573407 0.000000 0.204576 0.778675 0.000000 
-0.000000 0.941780 0.000000 -0.027571 0.852365 0.000000 0.012500 0.533038 0.000000 0.128822 0.185918 0.000000 0.375159 -0.406313 0.000000 0.579670 -0.686188 0.000000 0.757903 -1.799417 0.000000 -0.298307 -2.447830 0.000000 1.339698 0.025823 0.000000 1.175679 0.855491 0.000000 0.534380 -0.039714 0.000000 0.618582 0.328034 0.000000 0.310964 0.583022 0.000000 0.218991 0.601055 0.000000 0.059714 0.508258 0.000000 0.002377 0.311154 0.000000 -0.000000 0.248827 0.000000 -0.002377 0.311154 0.000000 -0.059714 0.508258 0.000000 -0.218991 0.601055 0.000000 -0.310964 0.583022 0.000000 -0.618582 0.328034 0.000000 -0.534380 -0.039714 0.000000 -1.175679 0.855491 0.000000 -1.339698 0.025823 0.000000 0.298307 -2.447830 0.000000 -0.757903 -1.799417 0.000000 -0.579670 -0.686188 0.000000 -0.375159 -0.406313 0.000000 -0.128822 0.185918 0.000000 -0.012500 0.533038 0.000000 0.027571 0.852365 0.000000 
-0.000000 0.886249 0.000000 0.096358 0.766174 0.000000 0.232082 0.417014 0.000000 0.343852 -0.012353 0.000000 0.567274 -0.535420 0.000000 0.496804 -1.014480 0.000000 0.928165 -1.275954 0.000000 -0.195792 -2.320675 0.000000 0.298465 -0.877913 0.000000 1.368459 1.112714 0.000000 0.866118 0.325194 0.000000 0.539249 0.444398 0.000000 0.225469 0.781453 0.000000 0.102112 0.691534 0.000000 -0.033760 0.603548 0.000000 -0.046893 0.332688 0.000000 -0.000000 0.237909 0.000000 0.046893 0.332688 0.000000 0.033760 0.603548 0.000000 -0.102112 0.691534 0.000000 -0.225469 0.781453 0.000000 -0.539249 0.444398 0.000000 -0.866118 0.325194 0.000000 -1.368459 1.112714 0.000000 -0.298465 -0.877913 0.000000 0.195792 -2.320675 0.000000 -0.928165 -1.275954 0.000000 -0.496804 -1.014480 0.000000 -0.567274 -0.535420 0.000000 -0.343852 -0.012353 0.000000 -0.232082 0.417014 0.000000 -0.096358 0.766174 0.000000 
-0.000000 0.749064 0.000000 0.174670 0.620283 0.000000 0.350099 0.285544 0.000000 0.476917 -0.149273 0.000000 0.619339 -0.559265 0.000000 0.602540 -1.047080 0.000000 0.665167 -1.106821 0.000000 0.593008 -1.818129 0.000000 -0.254238 -1.538429 0.000000 1.084755 0.287838 0.000000 1.170115 0.789496 0.000000 0.710630 0.968683 0.000000 0.639737 1.020158 0.000000 0.257868 0.860284 0.000000 0.102354 0.657263 0.000000 0.012561 0.277394 0.000000 -0.000000 0.155041 0.000000 -0.012561 0.277394 0.000000 -0.102354 0.657263 0.000000 -0.257868 0.860284 0.000000 -0.639737 1.020158 0.000000 -0.710630 0.968683 0.000000 -1.170115 0.789496 0.000000 -1.084755 0.287838 0.000000 0.254238 -1.538429 0.000000 -0.593008 -1.818129 0.000000 -0.665167 -1.106821 0.000000 -0.602540 -1.047080 0.000000 -0.619339 -0.559265 0.000000 -0.476917 -0.149273 0.000000 -0.350099 0.285544 0.000000 -0.174670 0.620283 0.000000 
0.000000 0.536910 0.000000 0.201640 0.416075 0.000000 0.377745 0.114766 0.000000 0.489006 -0.281592 0.000000 0.560087 -0.661043 0.000000 0.564053 -1.060308 0.000000 0.467558 -1.266422 0.000000 0.629156 -1.401270 0.000000 -0.021828 -1.369660 0.000000 0.429219 -0.311638 0.000000 0.888572 0.699319 0.000000 0.779408 0.974776 0.000000 1.133172 1.234215 0.000000 1.328919 1.228917 0.000000 1.077765 0.848855 0.000000 0.566220 0.435041 0.000000 -0.000000 0.263031 0.000000 -0.566220 0.435041 0.000000 -1.077765 0.848855 0.000000 -1.328919 1.228917 0.000000 -1.133172 1.234215 0.000000 -0.779408 0.974776 0.000000 -0.888572 0.699319 0.000000 -0.429219 -0.311638 0.000000 0.021828 -1.369660 0.000000 -0.629156 -1.401270 0.000000 -0.467558 -1.266422 0.000000 -0.564053 -1.060308 0.000000 -0.560087 -0.661043 0.000000 -0.489006 -0.281592 0.000000 -0.377745 0.114766 0.000000 -0.201640 0.416075 0.000000 
-0.000000 0.345783 0.000000 0.190767 0.242538 0.000000 0.340465 -0.001821 0.000000 0.419974 -0.331616 0.000000 0.428038 -0.634312 0.000000 0.365591 -0.954551 0.000000 0.209538 -1.171923 0.000000 0.118165 -1.328743 0.000000 0.016935 -1.338492 0.000000 0.040430 -0.622562 0.000000 0.624387 0.439308 0.000000 0.457064 0.724083 0.000000 0.268766 0.470647 0.000000 0.871309 0.915691 0.000000 1.008417 1.419962 0.000000 0.693519 1.355159 0.000000 -0.000000 1.287481 0.000000 -0.693519 1.355159 0.000000 -1.008417 1.419962 0.000000 -0.871309 0.915691 0.000000 -0.268766 0.470647 0.000000 -0.457064 0.724083 0.000000 -0.624387 0.439308 0.000000 -0.040430 -0.622562 0.000000 -0.016935 -1.338492 0.000000 -0.118165 -1.328743 0.000000 -0.209538 -1.171923 0.000000 -0.365591 -0.954551 0.000000 -0.428038 -0.634312 0.000000 -0.419974 -0.331616 0.000000 -0.340465 -0.001821 0.000000 -0.190767 0.242538 0.000000 
0.000000 0.155375 0.000000 0.161498 0.075610 0.000000 0.279155 -0.114440 0.000000 0.337787 -0.369165 0.000000 0.319068 -0.606661 0.000000 0.264440 -0.841809 0.000000 0.110493 -1.018996 0.000000 -0.006334 -1.208667 0.000000 -0.207008 -1.291925 0.000000 -0.220236 -0.919090 0.000000 0.228562 0.282685 0.000000 0.735860 1.330397 0.000000 0.006191 0.819970 0.000000 -0.443046 0.489266 0.000000 -0.380038 1.026645 0.000000 -0.134489 1.443458 0.000000 0.000000 1.650069 0.000000 0.134489 1.443458 0.000000 0.380038 1.026645 0.000000 0.443046 0.489266 0.000000 -0.006191 0.819970 0.000000 -0.735860 1.330397 0.000000 -0.228562 0.282685 0.000000 0.220236 -0.919090 0.000000 0.207008 -1.291925 0.000000 0.006334 -1.208667 0.000000 -0.110493 -1.018996 0.000000 -0.264440 -0.841809 0.000000 -0.319068 -0.606661 0.000000 -0.337787 -0.369165 0.000000 -0.279155 -0.114440 0.000000 -0.161498 0.075610 0.000000 
-0.000000 0.022787 0.000000 0.117393 -0.036616 0.000000 0.196256 -0.178110 0.000000 0.225845 -0.371530 0.000000 0.190592 -0.560966 0.000000 0.128354 -0.745975 0.000000 -0.000206 -0.901149 0.000000 -0.111414 -1.011243 0.000000 -0.341601 -1.124590 0.000000 -0.467842 -1.058131 0.000000 -0.413095 -0.516788 0.000000 0.522421 0.946454 0.000000 0.919209 1.649553 0.000000 0.634678 1.301920 0.000000 0.046845 1.111405 0.000000 -0.112266 0.975121 0.000000 0.000000 1.018503 0.000000 0.112266 0.975121 0.000000 -0.046845 1.111405 0.000000 -0.634678 1.301920 0.000000 -0.919209 1.649553 0.000000 -0.522421 0.946454 0.000000 0.413095 -0.516788 0.000000 0.467842 -1.058131 0.000000 0.341601 -1.124590 0.000000 0.111414 -1.011243 0.000000 0.000206 -0.901149 0.000000 -0.128354 -0.745975 0.000000 -0.190592 -0.560966 0.000000 -0.225845 -0.371530 0.000000 -0.196256 -0.178110 0.000000 -0.117393 -0.036616 0.000000 
0.000000 -0.079411 0.000000 0.075512 -0.120645 0.000000 0.120090 -0.222892 0.000000 0.128073 -0.363501 0.000000 0.082418 -0.509170 0.000000 0.016601 -0.651011 0.000000 -0.102050 -0.779227 0.000000 -0.211287 -0.867272 0.000000 -0.373279 -0.935498 0.000000 -0.545137 -0.847596 0.000000 -0.727600 -0.707578 0.000000 -0.513358 -0.001907 0.000000 0.281386 0.707712 0.000000 0.772477 1.361630 0.000000 0.727524 1.773590 0.000000 0.428485 1.490303 0.000000 -0.000000 1.425536 0.000000 -0.428485 1.490303 0.000000 -0.727524 1.773590 0.000000 -0.772477 1.361630 0.000000 -0.281386 0.707712 0.000000 0.513358 -0.001907 0.000000 0.727600 -0.707578 0.000000 0.545137 -0.847596 0.000000 0.373279 -0.935498 0.000000 0.211287 -0.867272 0.000000 0.102050 -0.779227 0.000000 -0.016601 -0.651011 0.000000 -0.082418 -0.509170 0.000000 -0.128073 -0.363501 0.000000 -0.120090 -0.222892 0.000000 -0.075512 -0.120645 0.000000 
-0.000000 -0.128237 0.000000 0.034871 -0.156707 0.000000 0.047543 -0.230671 0.000000 0.033011 -0.333857 0.000000 -0.020029 -0.449494 0.000000 -0.089800 -0.561507 0.000000 -0.193590 -0.673261 0.000000 -0.293198 -0.740014 0.000000 -0.419450 -0.790740 0.000000 -0.534308 -0.703809 0.000000 -0.635207 -0.548567 0.000000 -0.724107 -0.062533 0.000000 -0.457550 0.363717 0.000000 -0.236152 0.855783 0.000000 0.136245 1.455397 0.000000 0.174599 1.702644 0.000000 -0.000000 1.875474 0.000000 -0.174599 1.702644 0.000000 -0.136245 1.455397 0.000000 0.236152 0.855783 0.000000 0.457550 0.363717 0.000000 0.724107 -0.062533 0.000000 0.635207 -0.548567 0.000000 0.534308 -0.703809 0.000000 0.419450 -0.790740 0.000000 0.293198 -0.740014 0.000000 0.193590 -0.673261 0.000000 0.089800 -0.561507 0.000000 0.020029 -0.449494 0.000000 -0.033011 -0.333857 0.000000 -0.047543 -0.230671 0.000000 -0.034871 -0.156707 0.000000 
-0.000000 -0.149153 0.000000 0.003341 -0.168189 0.000000 -0.009195 -0.221033 0.000000 -0.042409 -0.295929 0.000000 -0.104511 -0.386358 0.000000 -0.183697 -0.477450 0.000000 -0.285718 -0.575830 0.000000 -0.393141 -0.641412 0.000000 -0.502508 -0.694388 0.000000 -0.611386 -0.631840 0.000000 -0.671851 -0.517778 0.000000 -0.716275 -0.179563 0.000000 -0.534981 0.219757 0.000000 -0.455207 0.767835 0.000000 -0.210508 1.362839 0.000000 -0.087369 1.626548 0.000000 -0.000000 1.774734 0.000000 0.087369 1.626548 0.000000 0.210508 1.362839 0.000000 0.455207 0.767835 0.000000 0.534981 0.219757 0.000000 0.716275 -0.179563 0.000000 0.671851 -0.517778 0.000000 0.611386 -0.631840 0.000000 0.502508 -0.694388 0.000000 0.393141 -0.641412 0.000000 0.285718 -0.575830 0.000000 0.183697 -0.477450 0.000000 0.104511 -0.386358 0.000000 0.042409 -0.295929 0.000000 0.009195 -0.221033 0.000000 -0.003341 -0.168189 0.000000 
-0.000000 -0.134919 0.000000 -0.022810 -0.147512 0.000000 -0.056922 -0.184921 0.000000 -0.108363 -0.238542 0.000000 -0.182032 -0.308205 0.000000 -0.275545 -0.380300 0.000000 -0.387901 -0.463817 0.000000 -0.516338 -0.523224 0.000000 -0.644770 -0.572495 0.000000 -0.783257 -0.534466 0.000000 -0.866312 -0.443678 0.000000 -0.947963 -0.199403 0.000000 -0.854618 0.102648 0.000000 -0.765650 0.531311 0.000000 -0.462095 1.087559 0.000000 -0.207196 1.492136 0.000000 0.000000 1.700736 0.000000 0.207196 1.492136 0.000000 0.462095 1.087559 0.000000 0.765650 0.531311 0.000000 0.854618 0.102648 0.000000 0.947963 -0.199403 0.000000 0.866312 -0.443678 0.000000 0.783257 -0.534466 0.000000 0.644770 -0.572495 0.000000 0.516338 -0.523224 0.000000 0.387901 -0.463817 0.000000 0.275545 -0.380300 0.000000 0.182032 -0.308205 0.000000 0.108363 -0.238542 0.000000 0.056922 -0.184921 0.000000 0.022810 -0.147512 0.000000 
-0.000000 -0.103533 0.000000 -0.040083 -0.111267 0.000000 -0.089049 -0.135479 0.000000 -0.154441 -0.170819 0.000000 -0.239265 -0.219176 0.000000 -0.349136 -0.271581 0.000000 -0.478267 -0.335037 0.000000 -0.637239 -0.384543 0.000000 -0.798211 -0.427469 0.000000 -0.982911 -0.410297 0.000000 -1.112794 -0.353072 0.000000 -1.235412 -0.191257 0.000000 -1.200124 0.037443 0.000000 -1.135429 0.375312 0.000000 -0.846141 0.804386 0.000000 -0.461996 1.164453 0.000000 0.000000 1.360342 0.000000 0.461996 1.164453 0.000000 0.846141 0.804386 0.000000 1.135429 0.375312 0.000000 1.200124 0.037443 0.000000 1.235412 -0.191257 0.000000 1.112794 -0.353072 0.000000 0.982911 -0.410297 0.000000 0.798211 -0.427469 0.000000 0.637239 -0.384543 0.000000 0.478267 -0.335037 0.000000 0.349136 -0.271581 0.000000 0.239265 -0.219176 0.000000 0.154441 -0.170819 0.000000 0.089049 -0.135479 0.000000 0.040083 -0.111267 0.000000 
-0.000000 -0.054752 0.000000 -0.051767 -0.058462 0.000000 -0.111267 -0.070563 0.000000 -0.187246 -0.088326 0.000000 -0.282086 -0.113510 0.000000 -0.406422 -0.141297 0.000000 -0.553667 -0.175715 0.000000 -0.741459 -0.203280 0.000000 -0.938210 -0.226822 0.000000 -1.168928 -0.219884 0.000000 -1.348508 -0.191177 0.000000 -1.522000 -0.112073 0.000000 -1.539764 0.002665 0.000000 -1.484557 0.177328 0.000000 -1.164453 0.414126 0.000000 -0.680171 0.645995 0.000000 0.000000 0.776744 0.000000 0.680171 0.645995 0.000000 1.164453 0.414126 0.000000 1.484557 0.177328 0.000000 1.539764 0.002665 0.000000 1.522000 -0.112073 0.000000 1.348508 -0.191177 0.000000 1.168928 -0.219884 0.000000 0.938210 -0.226822 0.000000 0.741459 -0.203280 0.000000 0.553667 -0.175715 0.000000 0.406422 -0.141297 0.000000 0.282086 -0.113510 0.000000 0.187246 -0.088326 0.000000 0.111267 -0.070563 0.000000 0.051767 -0.058462 0.000000 
