# vtk DataFile Version 2.0
Comment goes here
ASCII

DATASET STRUCTURED_POINTS
FIELD FieldData 1
TIME 1 1 double
0.58000000
DIMENSIONS    32   32   1

ORIGIN    0.000   0.000   0.000
SPACING   0.03125 0.03125   1.000

POINT_DATA   1024
VECTORS u double

-0.000000 -0.000000 0.000000 -0.026129 0.000000 0.000000 -0.056286 -0.000000 0.000000 -0.104802 0.000000 0.000000 -0.158939 -0.000000 0.000000 -0.250770 0.000000 0.000000 -0.339151 -0.000000 0.000000 -0.491298 0.000000 0.000000 -0.620901 0.000000 0.000000 -0.837531 0.000000 0.000000 -0.985496 0.000000 0.000000 -1.203504 0.000000 0.000000 -1.268174 -0.000000 0.000000 -1.320267 -0.000000 0.000000 -1.120252 -0.000000 0.000000 -0.756868 -0.000000 0.000000 0.000000 0.000000 0.000000 0.756868 0.000000 0.000000 1.120252 0.000000 0.000000 1.320267 0.000000 0.000000 1.268174 0.000000 0.000000 1.203504 0.000000 0.000000 0.985496 0.000000 0.000000 0.837531 -0.000000 0.000000 0.620901 -0.000000 0.000000 0.491298 -0.000000 0.000000 0.339151 -0.000000 0.000000 0.250770 -0.000000 0.000000 0.158939 -0.000000 0.000000 0.104802 -0.000000 0.000000 0.056286 -0.000000 0.000000 0.026129 0.000000 0.000000 
-0.000000 0.026129 0.000000 -0.022541 0.028143 0.000000 -0.050005 0.039336 0.000000 -0.094561 0.051327 0.000000 -0.146337 0.072984 0.000000 -0.231996 0.090106 0.000000 -0.314521 0.120264 0.000000 -0.453641 0.140875 0.000000 -0.567908 0.173116 0.000000 -0.761749 0.182298 0.000000 -0.886659 0.182987 0.000000 -1.083681 0.141339 0.000000 -1.140054 0.058381 0.000000 -1.200615 -0.073961 0.000000 -1.030530 -0.281699 0.000000 -0.698917 -0.560126 0.000000 0.000000 -0.756868 0.000000 0.698917 -0.560126 0.000000 1.030530 -0.281699 0.000000 1.200615 -0.073961 0.000000 1.140054 0.058381 0.000000 1.083681 0.141339 0.000000 0.886659 0.182987 0.000000 0.761749 0.182298 0.000000 0.567908 0.173116 0.000000 0.453641 0.140875 0.000000 0.314521 0.120264 0.000000 0.231996 0.090106 0.000000 0.146337 0.072984 0.000000 0.094561 0.051327 0.000000 0.050005 0.039336 0.000000 0.022541 0.028143 0.000000 
-0.000000 0.045083 0.000000 -0.014058 0.050005 0.000000 -0.035205 0.072020 0.000000 -0.073599 0.096333 0.000000 -0.122193 0.137435 0.000000 -0.201547 0.168183 0.000000 -0.275994 0.221645 0.000000 -0.398571 0.253388 0.000000 -0.486257 0.308108 0.000000 -0.645971 0.318751 0.000000 -0.725939 0.321932 0.000000 -0.899041 0.253395 0.000000 -0.927780 0.116935 0.000000 -0.991648 -0.109524 0.000000 -0.853487 -0.501698 0.000000 -0.562348 -1.030530 0.000000 0.000000 -1.397834 0.000000 0.562348 -1.030530 0.000000 0.853487 -0.501698 0.000000 0.991648 -0.109524 0.000000 0.927780 0.116935 0.000000 0.899041 0.253395 0.000000 0.725939 0.321932 0.000000 0.645971 0.318751 0.000000 0.486257 0.308108 0.000000 0.398571 0.253388 0.000000 0.275994 0.221645 0.000000 0.201547 0.168183 0.000000 0.122193 0.137435 0.000000 0.073599 0.096333 0.000000 0.035205 0.072020 0.000000 0.014058 0.050005 0.000000 
-0.000000 0.054246 0.000000 0.001384 0.063348 0.000000 -0.009094 0.098877 0.000000 -0.035555 0.138315 0.000000 -0.080654 0.200932 0.000000 -0.148203 0.243907 0.000000 -0.214910 0.317288 0.000000 -0.312335 0.351138 0.000000 -0.367065 0.420516 0.000000 -0.471629 0.421980 0.000000 -0.471865 0.436057 0.000000 -0.568987 0.343180 0.000000 -0.518239 0.150988 0.000000 -0.567153 -0.148254 0.000000 -0.476209 -0.710999 0.000000 -0.278721 -1.413613 0.000000 0.000000 -1.881565 0.000000 0.278721 -1.413613 0.000000 0.476209 -0.710999 0.000000 0.567153 -0.148254 0.000000 0.518239 0.150988 0.000000 0.568987 0.343180 0.000000 0.471865 0.436057 0.000000 0.471629 0.421980 0.000000 0.367065 0.420516 0.000000 0.312335 0.351138 0.000000 0.214910 0.317288 0.000000 0.148203 0.243907 0.000000 0.080654 0.200932 0.000000 0.035555 0.138315 0.000000 0.009094 0.098877 0.000000 -0.001384 0.063348 0.000000 
0.000000 0.042314 0.000000 0.023512 0.059099 0.000000 0.027655 0.108959 0.000000 0.014294 0.167893 0.000000 -0.030695 0.250083 0.000000 -0.093467 0.302439 0.000000 -0.162726 0.385777 0.000000 -0.250491 0.405543 0.000000 -0.290040 0.467401 0.000000 -0.358833 0.423551 0.000000 -0.302163 0.419290 0.000000 -0.388971 0.299769 0.000000 -0.254577 0.115101 0.000000 -0.265595 -0.151554 0.000000 -0.120408 -0.790131 0.000000 0.012124 -1.506739 0.000000 0.000000 -1.955276 0.000000 -0.012124 -1.506739 0.000000 0.120408 -0.790131 0.000000 0.265595 -0.151554 0.000000 0.254577 0.115101 0.000000 0.388971 0.299769 0.000000 0.302163 0.419290 0.000000 0.358833 0.423551 0.000000 0.290040 0.467401 0.000000 0.250491 0.405543 0.000000 0.162726 0.385777 0.000000 0.093467 0.302439 0.000000 0.030695 0.250083 0.000000 -0.014294 0.167893 0.000000 -0.027655 0.108959 0.000000 -0.023512 0.059099 0.000000 
-0.000000 0.007223 0.000000 0.051984 0.035693 0.000000 0.073399 0.108095 0.000000 0.075844 0.196665 0.000000 0.025027 0.308693 0.000000 -0.035195 0.375937 0.000000 -0.122883 0.474312 0.000000 -0.212847 0.478452 0.000000 -0.267464 0.528858 0.000000 -0.325244 0.434102 0.000000 -0.208957 0.466195 0.000000 -0.219232 0.295594 0.000000 0.072072 0.027612 0.000000 0.095014 -0.282423 0.000000 0.342560 -0.988718 0.000000 0.327157 -1.534021 0.000000 0.000000 -1.857318 0.000000 -0.327157 -1.534021 0.000000 -0.342560 -0.988718 0.000000 -0.095014 -0.282423 0.000000 -0.072072 0.027612 0.000000 0.219232 0.295594 0.000000 0.208957 0.466195 0.000000 0.325244 0.434102 0.000000 0.267464 0.528858 0.000000 0.212847 0.478452 0.000000 0.122883 0.474312 0.000000 0.035195 0.375937 0.000000 -0.025027 0.308693 0.000000 -0.075844 0.196665 0.000000 -0.073399 0.108095 0.000000 -0.051984 0.035693 0.000000 
-0.000000 -0.061654 0.000000 0.088545 -0.014300 0.000000 0.131738 0.085099 0.000000 0.152838 0.216265 0.000000 0.091680 0.361123 0.000000 0.025810 0.450349 0.000000 -0.093772 0.563429 0.000000 -0.207999 0.550124 0.000000 -0.290347 0.579797 0.000000 -0.327310 0.365044 0.000000 -0.227088 0.313278 0.000000 -0.389619 0.018739 0.000000 -0.091089 -0.199144 0.000000 0.039951 -0.422042 0.000000 0.491557 -1.022273 0.000000 0.394499 -1.164179 0.000000 0.000000 -1.300963 0.000000 -0.394499 -1.164179 0.000000 -0.491557 -1.022273 0.000000 -0.039951 -0.422042 0.000000 0.091089 -0.199144 0.000000 0.389619 0.018739 0.000000 0.227088 0.313278 0.000000 0.327310 0.365044 0.000000 0.290347 0.579797 0.000000 0.207999 0.550124 0.000000 0.093772 0.563429 0.000000 -0.025810 0.450349 0.000000 -0.091680 0.361123 0.000000 -0.152838 0.216265 0.000000 -0.131738 0.085099 0.000000 -0.088545 -0.014300 0.000000 
-0.000000 -0.169867 0.000000 0.124771 -0.096045 0.000000 0.188361 0.043802 0.000000 0.228296 0.236723 0.000000 0.150776 0.435721 0.000000 0.081601 0.561390 0.000000 -0.088062 0.708120 0.000000 -0.242269 0.675027 0.000000 -0.443288 0.648169 0.000000 -0.626329 0.370844 0.000000 -0.564786 0.528505 0.000000 -0.320362 0.159595 0.000000 0.398290 -0.401958 0.000000 0.665045 -0.865068 0.000000 0.639337 -1.343265 0.000000 0.277613 -1.042464 0.000000 -0.000000 -1.068320 0.000000 -0.277613 -1.042464 0.000000 -0.639337 -1.343265 0.000000 -0.665045 -0.865068 0.000000 -0.398290 -0.401958 0.000000 0.320362 0.159595 0.000000 0.564786 0.528505 0.000000 0.626329 0.370844 0.000000 0.443288 0.648169 0.000000 0.242269 0.675027 0.000000 0.088062 0.708120 0.000000 -0.081601 0.561390 0.000000 -0.150776 0.435721 0.000000 -0.228296 0.236723 0.000000 -0.188361 0.043802 0.000000 -0.124771 -0.096045 0.000000 
0.000000 -0.311197 0.000000 0.162673 -0.202660 0.000000 0.246855 -0.018425 0.000000 0.313537 0.253849 0.000000 0.219382 0.507817 0.000000 0.148906 0.689187 0.000000 -0.093628 0.887299 0.000000 -0.369267 0.905350 0.000000 -0.686653 0.963858 0.000000 -0.599133 0.486541 0.000000 -0.157385 0.007311 0.000000 0.488992 -0.944337 0.000000 0.583506 -1.184552 0.000000 0.525101 -0.663088 0.000000 0.063350 -0.634841 0.000000 -0.014050 -0.524842 0.000000 -0.000000 -0.745738 0.000000 0.014050 -0.524842 0.000000 -0.063350 -0.634841 0.000000 -0.525101 -0.663088 0.000000 -0.583506 -1.184552 0.000000 -0.488992 -0.944337 0.000000 0.157385 0.007311 0.000000 0.599133 0.486541 0.000000 0.686653 0.963858 0.000000 0.369267 0.905350 0.000000 0.093628 0.887299 0.000000 -0.148906 0.689187 0.000000 -0.219382 0.507817 0.000000 -0.313537 0.253849 0.000000 -0.246855 -0.018425 0.000000 -0.162673 -0.202660 0.000000 
0.000000 -0.495214 0.000000 0.181796 -0.342899 0.000000 0.275732 -0.107062 0.000000 0.360154 0.264195 0.000000 0.252763 0.600352 0.000000 0.212241 0.874400 0.000000 -0.081079 1.226293 0.000000 -0.379625 1.268052 0.000000 -0.701904 0.878035 0.000000 -0.129442 -0.158425 0.000000 0.082715 -0.559620 0.000000 0.039662 -0.581296 0.000000 -0.525099 -0.438067 0.000000 -0.448352 -0.344912 0.000000 -0.327836 -0.804115 0.000000 -0.048507 -0.979115 0.000000 -0.000000 -1.096420 0.000000 0.048507 -0.979115 0.000000 0.327836 -0.804115 0.000000 0.448352 -0.344912 0.000000 0.525099 -0.438067 0.000000 -0.039662 -0.581296 0.000000 -0.082715 -0.559620 0.000000 0.129442 -0.158425 0.000000 0.701904 0.878035 0.000000 0.379625 1.268052 0.000000 0.081079 1.226293 0.000000 -0.212241 0.874400 0.000000 -0.252763 0.600352 0.000000 -0.360154 0.264195 0.000000 -0.275732 -0.107062 0.000000 -0.181796 -0.342899 0.000000 
0.000000 -0.674790 0.000000 0.188605 -0.478392 0.000000 0.284703 -0.196783 0.000000 0.408810 0.276818 0.000000 0.306999 0.655731 0.000000 0.373894 1.023029 0.000000 0.015269 1.479165 0.000000 -0.503048 1.526175 0.000000 -0.209675 0.713675 0.000000 0.357993 -0.298077 0.000000 0.227850 -0.161793 0.000000 0.367763 -0.336523 0.000000 0.652490 -0.696537 0.000000 1.002932 -0.860351 0.000000 1.006213 -1.034687 0.000000 0.558276 -0.852678 0.000000 -0.000000 -0.842751 0.000000 -0.558276 -0.852678 0.000000 -1.006213 -1.034687 0.000000 -1.002932 -0.860351 0.000000 -0.652490 -0.696537 0.000000 -0.367763 -0.336523 0.000000 -0.227850 -0.161793 0.000000 -0.357993 -0.298077 0.000000 0.209675 0.713675 0.000000 0.503048 1.526175 0.000000 -0.015269 1.479165 0.000000 -0.373894 1.023029 0.000000 -0.306999 0.655731 0.000000 -0.408810 0.276818 0.000000 -0.284703 -0.196783 0.000000 -0.188605 -0.478392 0.000000 
0.000000 -0.872424 0.000000 0.147460 -0.627602 0.000000 0.224932 -0.327266 0.000000 0.337095 0.241899 0.000000 0.223815 0.635268 0.000000 0.301448 1.166130 0.000000 -0.475112 2.103235 0.000000 -1.043006 1.492995 0.000000 0.473661 0.016993 0.000000 0.616220 -0.595950 0.000000 0.938019 -0.569389 0.000000 1.093844 -1.005936 0.000000 1.053484 -1.073237 0.000000 0.924048 -0.698635 0.000000 0.649172 -0.359458 0.000000 0.327336 0.027098 0.000000 -0.000000 0.020132 0.000000 -0.327336 0.027098 0.000000 -0.649172 -0.359458 0.000000 -0.924048 -0.698635 0.000000 -1.053484 -1.073237 0.000000 -1.093844 -1.005936 0.000000 -0.938019 -0.569389 0.000000 -0.616220 -0.595950 0.000000 -0.473661 0.016993 0.000000 1.043006 1.492995 0.000000 0.475112 2.103235 0.000000 -0.301448 1.166130 0.000000 -0.223815 0.635268 0.000000 -0.337095 0.241899 0.000000 -0.224932 -0.327266 0.000000 -0.147460 -0.627602 0.000000 
0.000000 -0.969709 0.000000 0.063990 -0.703325 0.000000 0.100191 -0.386419 0.000000 0.209267 0.277935 0.000000 0.098949 0.691379 0.000000 0.325689 1.721956 0.000000 -1.112349 2.823619 0.000000 -0.142003 0.577403 0.000000 1.638553 -0.945551 0.000000 0.883188 -0.762436 0.000000 0.854573 -0.639418 0.000000 0.448485 -0.451987 0.000000 0.209845 -0.526741 0.000000 0.031624 -0.456040 0.000000 -0.056768 -0.437976 0.000000 -0.018858 -0.203506 0.000000 -0.000000 -0.188078 0.000000 0.018858 -0.203506 0.000000 0.056768 -0.437976 0.000000 -0.031624 -0.456040 0.000000 -0.209845 -0.526741 0.000000 -0.448485 -0.451987 0.000000 -0.854573 -0.639418 0.000000 -0.883188 -0.762436 0.000000 -1.638553 -0.945551 0.000000 0.142003 0.577403 0.000000 1.112349 2.823619 0.000000 -0.325689 1.721956 0.000000 -0.098949 0.691379 0.000000 -0.209267 0.277935 0.000000 -0.100191 -0.386419 0.000000 -0.063990 -0.703325 0.000000 
0.000000 -1.000403 0.000000 -0.075054 -0.727793 0.000000 -0.083912 -0.472543 0.000000 -0.063532 0.243141 0.000000 0.072045 0.518846 0.000000 0.080991 2.377428 0.000000 -0.591475 2.570927 0.000000 1.709491 -1.257906 0.000000 1.828055 -1.008198 0.000000 0.896994 0.188030 0.000000 0.425504 -0.134687 0.000000 0.256655 -0.361207 0.000000 0.195027 -0.656376 0.000000 0.168480 -0.432022 0.000000 0.062995 -0.308976 0.000000 0.025222 -0.029670 0.000000 -0.000000 -0.017584 0.000000 -0.025222 -0.029670 0.000000 -0.062995 -0.308976 0.000000 -0.168480 -0.432022 0.000000 -0.195027 -0.656376 0.000000 -0.256655 -0.361207 0.000000 -0.425504 -0.134687 0.000000 -0.896994 0.188030 0.000000 -1.828055 -1.008198 0.000000 -1.709491 -1.257906 0.000000 0.591475 2.570927 0.000000 -0.080991 2.377428 0.000000 -0.072045 0.518846 0.000000 0.063532 0.243141 0.000000 0.083912 -0.472543 0.000000 0.075054 -0.727793 0.000000 
0.000000 -0.819600 0.000000 -0.270837 -0.619413 0.000000 -0.359966 -0.397940 0.000000 -0.541957 0.121978 0.000000 -0.118956 0.546855 0.000000 -0.549572 2.385476 0.000000 0.842921 1.195119 0.000000 1.784389 -1.842127 0.000000 0.556314 -0.133055 0.000000 0.624990 0.640115 0.000000 0.372213 0.000922 0.000000 0.480449 -0.221510 0.000000 0.187954 -0.438565 0.000000 0.122817 -0.324009 0.000000 -0.032531 -0.294718 0.000000 -0.020946 -0.140510 0.000000 -0.000000 -0.137635 0.000000 0.020946 -0.140510 0.000000 0.032531 -0.294718 0.000000 -0.122817 -0.324009 0.000000 -0.187954 -0.438565 0.000000 -0.480449 -0.221510 0.000000 -0.372213 0.000922 0.000000 -0.624990 0.640115 0.000000 -0.556314 -0.133055 0.000000 -1.784389 -1.842127 0.000000 -0.842921 1.195119 0.000000 0.549572 2.385476 0.000000 0.118956 0.546855 0.000000 0.541957 0.121978 0.000000 0.359966 -0.397940 0.000000 0.270837 -0.619413 0.000000 
0.000000 -0.458730 0.000000 -0.409800 -0.367827 0.000000 -0.619413 -0.201423 0.000000 -0.807741 0.002130 0.000000 -0.497435 0.526461 0.000000 -0.260885 1.415551 0.000000 1.888041 0.236966 0.000000 0.934233 -0.971299 0.000000 0.045914 0.151201 0.000000 0.801179 0.372132 0.000000 0.686029 0.009854 0.000000 0.802100 -0.176949 0.000000 0.464519 -0.298744 0.000000 0.363535 -0.211537 0.000000 0.140510 -0.165213 0.000000 0.068817 -0.062201 0.000000 -0.000000 -0.059475 0.000000 -0.068817 -0.062201 0.000000 -0.140510 -0.165213 0.000000 -0.363535 -0.211537 0.000000 -0.464519 -0.298744 0.000000 -0.802100 -0.176949 0.000000 -0.686029 0.009854 0.000000 -0.801179 0.372132 0.000000 -0.045914 0.151201 0.000000 -0.934233 -0.971299 0.000000 -1.888041 0.236966 0.000000 0.260885 1.415551 0.000000 0.497435 0.526461 0.000000 0.807741 0.002130 0.000000 0.619413 -0.201423 0.000000 0.409800 -0.367827 0.000000 
-0.000000 0.000000 0.000000 -0.458730 0.000000 0.000000 -0.735654 0.000000 0.000000 -0.861576 0.000000 0.000000 -0.731393 0.000000 0.000000 0.191346 0.000000 0.000000 2.099708 -0.000000 0.000000 0.665279 -0.000000 0.000000 0.157110 -0.000000 0.000000 0.967681 0.000000 0.000000 0.901373 0.000000 0.000000 0.987388 0.000000 0.000000 0.547476 0.000000 0.000000 0.389901 0.000000 0.000000 0.124402 -0.000000 0.000000 0.059475 0.000000 0.000000 -0.000000 -0.000000 0.000000 -0.059475 -0.000000 0.000000 -0.124402 -0.000000 0.000000 -0.389901 -0.000000 0.000000 -0.547476 -0.000000 0.000000 -0.987388 -0.000000 0.000000 -0.901373 -0.000000 0.000000 -0.967681 -0.000000 0.000000 -0.157110 0.000000 0.000000 -0.665279 0.000000 0.000000 -2.099708 -0.000000 0.000000 -0.191346 -0.000000 0.000000 0.731393 -0.000000 0.000000 0.861576 0.000000 0.000000 0.735654 0.000000 0.000000 0.458730 0.000000 0.000000 
-0.000000 0.458730 0.000000 -0.409800 0.367827 0.000000 -0.619413 0.201423 0.000000 -0.807741 -0.002130 0.000000 -0.497435 -0.526461 0.000000 -0.260885 -1.415551 0.000000 1.888041 -0.236966 0.000000 0.934233 0.971299 0.000000 0.045914 -0.151201 0.000000 0.801179 -0.372132 0.000000 0.686029 -0.009854 0.000000 0.802100 0.176949 0.000000 0.464519 0.298744 0.000000 0.363535 0.211537 0.000000 0.140510 0.165213 0.000000 0.068817 0.062201 0.000000 -0.000000 0.059475 0.000000 -0.068817 0.062201 0.000000 -0.140510 0.165213 0.000000 -0.363535 0.211537 0.000000 -0.464519 0.298744 0.000000 -0.802100 0.176949 0.000000 -0.686029 -0.009854 0.000000 -0.801179 -0.372132 0.000000 -0.045914 -0.151201 0.000000 -0.934233 0.971299 0.000000 -1.888041 -0.236966 0.000000 0.260885 -1.415551 0.000000 0.497435 -0.526461 0.000000 0.807741 -0.002130 0.000000 0.619413 0.201423 0.000000 0.409800 0.367827 0.000000 
-0.000000 0.819600 0.000000 -0.270837 0.619413 0.000000 -0.359966 0.397940 0.000000 -0.541957 -0.121978 0.000000 -0.118956 -0.546855 0.000000 -0.549572 -2.385476 0.000000 0.842921 -1.195119 0.000000 1.784389 1.842127 0.000000 0.556314 0.133055 0.000000 0.624990 -0.640115 0.000000 0.372213 -0.000922 0.000000 0.480449 0.221510 0.000000 0.187954 0.438565 0.000000 0.122817 0.324009 0.000000 -0.032531 0.294718 0.000000 -0.020946 0.140510 0.000000 -0.000000 0.137635 0.000000 0.020946 0.140510 0.000000 0.032531 0.294718 0.000000 -0.122817 0.324009 0.000000 -0.187954 0.438565 0.000000 -0.480449 0.221510 0.000000 -0.372213 -0.000922 0.000000 -0.624990 -0.640115 0.000000 -0.556314 0.133055 0.000000 -1.784389 1.842127 0.000000 -0.842921 -1.195119 0.000000 0.549572 -2.385476 0.000000 0.118956 -0.546855 0.000000 0.541957 -0.121978 0.000000 0.359966 0.397940 0.000000 0.270837 0.619413 0.000000 
-0.000000 1.000403 0.000000 -0.075054 0.727793 0.000000 -0.083912 0.472543 0.000000 -0.063532 -0.243141 0.000000 0.072045 -0.518846 0.000000 0.080991 -2.377428 0.000000 -0.591475 -2.570927 0.000000 1.709491 1.257906 0.000000 1.828055 1.008198 0.000000 0.896994 -0.188030 0.000000 0.425504 0.134687 0.000000 0.256655 0.361207 0.000000 0.195027 0.656376 0.000000 0.168480 0.432022 0.000000 0.062995 0.308976 0.000000 0.025222 0.029670 0.000000 -0.000000 0.017584 0.000000 -0.025222 0.029670 0.000000 -0.062995 0.308976 0.000000 -0.168480 0.432022 0.000000 -0.195027 0.656376 0.000000 -0.256655 0.361207 0.000000 -0.425504 0.134687 0.000000 -0.896994 -0.188030 0.000000 -1.828055 1.008198 0.000000 -1.709491 1.257906 0.000000 0.591475 -2.570927 0.000000 -0.080991 -2.377428 0.000000 -0.072045 -0.518846 0.000000 0.063532 -0.243141 0.000000 0.083912 0.472543 0.000000 0.075054 0.727793 0.000000 
-0.000000 0.969709 0.000000 0.063990 0.703325 0.000000 0.100191 0.386419 0.000000 0.209267 -0.277935 0.000000 0.098949 -0.691379 0.000000 0.325689 -1.721956 0.000000 -1.112349 -2.823619 0.000000 -0.142003 -0.577403 0.000000 1.638553 0.945551 0.000000 0.883188 0.762436 0.000000 0.854573 0.639418 0.000000 0.448485 0.451987 0.000000 0.209845 0.526741 0.000000 0.031624 0.456040 0.000000 -0.056768 0.437976 0.000000 -0.018858 0.203506 0.000000 -0.000000 0.188078 0.000000 0.018858 0.203506 0.000000 0.056768 0.437976 0.000000 -0.031624 0.456040 0.000000 -0.209845 0.526741 0.000000 -0.448485 0.451987 0.000000 -0.854573 0.639418 0.000000 -0.883188 0.762436 0.000000 -1.638553 0.945551 0.000000 0.142003 -0.577403 0.000000 1.112349 -2.823619 0.000000 -0.325689 -1.721956 0.000000 -0.098949 -0.691379 0.000000 -0.209267 -0.277935 0.000000 -0.100191 0.386419 0.000000 -0.063990 0.703325 0.000000 
-0.000000 0.872424 0.000000 0.147460 0.627602 0.000000 0.224932 0.327266 0.000000 0.337095 -0.241899 0.000000 0.223815 -0.635268 0.000000 0.301448 -1.166130 0.000000 -0.475112 -2.103235 0.000000 -1.043006 -1.492995 0.000000 0.473661 -0.016993 0.000000 0.616220 0.595950 0.000000 0.938019 0.569389 0.000000 1.093844 1.005936 0.000000 1.053484 1.073237 0.000000 0.924048 0.698635 0.000000 0.649172 0.359458 0.000000 0.327336 -0.027098 0.000000 -0.000000 -0.020132 0.000000 -0.327336 -0.027098 0.000000 -0.649172 0.359458 0.000000 -0.924048 0.698635 0.000000 -1.053484 1.073237 0.000000 -1.093844 1.005936 0.000000 -0.938019 0.569389 0.000000 -0.616220 0.595950 0.000000 -0.473661 -0.016993 0.000000 1.043006 -1.492995 0.000000 0.475112 -2.103235 0.000000 -0.301448 -1.166130 0.000000 -0.223815 -0.635268 0.000000 -0.337095 -0.241899 0.000000 -0.224932 0.327266 0.000000 -0.147460 0.627602 0.000000 
-0.000000 0.674790 0.000000 0.188605 0.478392 0.000000 0.284703 0.196783 0.000000 0.408810 -0.276818 0.000000 0.306999 -0.655731 0.000000 0.373894 -1.023029 0.000000 0.015269 -1.479165 0.000000 -0.503048 -1.526175 0.000000 -0.209675 -0.713675 0.000000 0.357993 0.298077 0.000000 0.227850 0.161793 0.000000 0.367763 0.336523 0.000000 0.652490 0.696537 0.000000 1.002932 0.860351 0.000000 1.006213 1.034687 0.000000 0.558276 0.852678 0.000000 0.000000 0.842751 0.000000 -0.558276 0.852678 0.000000 -1.006213 1.034687 0.000000 -1.002932 0.860351 0.000000 -0.652490 0.696537 0.000000 -0.367763 0.336523 0.000000 -0.227850 0.161793 0.000000 -0.357993 0.298077 0.000000 0.209675 -0.713675 0.000000 0.503048 -1.526175 0.000000 -0.015269 -1.479165 0.000000 -0.373894 -1.023029 0.000000 -0.306999 -0.655731 0.000000 -0.408810 -0.276818 0.000000 -0.284703 0.196783 0.000000 -0.188605 0.478392 0.000000 
-0.000000 0.495214 0.000000 0.181796 0.342899 0.000000 0.275732 0.107062 0.000000 0.360154 -0.264195 0.000000 0.252763 -0.600352 0.000000 0.212241 -0.874400 0.000000 -0.081079 -1.226293 0.000000 -0.379625 -1.268052 0.000000 -0.701904 -0.878035 0.000000 -0.129442 0.158425 0.000000 0.082715 0.559620 0.000000 0.039662 0.581296 0.000000 -0.525099 0.438067 0.000000 -0.448352 0.344912 0.000000 -0.327836 0.804115 0.000000 -0.048507 0.979115 0.000000 0.000000 1.096420 0.000000 0.048507 0.979115 0.000000 0.327836 0.804115 0.000000 0.448352 0.344912 0.000000 0.525099 0.438067 0.000000 -0.039662 0.581296 0.000000 -0.082715 0.559620 0.000000 0.129442 0.158425 0.000000 0.701904 -0.878035 0.000000 0.379625 -1.268052 0.000000 0.081079 -1.226293 0.000000 -0.212241 -0.874400 0.000000 -0.252763 -0.600352 0.000000 -0.360154 -0.264195 0.000000 -0.275732 0.107062 0.000000 -0.181796 0.342899 0.000000 
0.000000 0.311197 0.000000 0.162673 0.202660 0.000000 0.246855 0.018425 0.000000 0.313537 -0.253849 0.000000 0.219382 -0.507817 0.000000 0.148906 -0.689187 0.000000 -0.093628 -0.887299 0.000000 -0.369267 -0.905350 0.000000 -0.686653 -0.963858 0.000000 -0.599133 -0.486541 0.000000 -0.157385 -0.007311 0.000000 0.488992 0.944337 0.000000 0.583506 1.184552 0.000000 0.525101 0.663088 0.000000 0.063350 0.634841 0.000000 -0.014050 0.524842 0.000000 -0.000000 0.745738 0.000000 0.014050 0.524842 0.000000 -0.063350 0.634841 0.000000 -0.525101 0.663088 0.000000 -0.583506 1.184552 0.000000 -0.488992 0.944337 0.000000 0.157385 -0.007311 0.000000 0.599133 -0.486541 0.000000 0.686653 -0.963858 0.000000 0.369267 -0.905350 0.000000 0.093628 -0.887299 0.000000 -0.148906 -0.689187 0.000000 -0.219382 -0.507817 0.000000 -0.313537 -0.253849 0.000000 -0.246855 0.018425 0.000000 -0.162673 0.202660 0.000000 
-0.000000 0.169867 0.000000 0.124771 0.096045 0.000000 0.188361 -0.043802 0.000000 0.228296 -0.236723 0.000000 0.150776 -0.435721 0.000000 0.081601 -0.561390 0.000000 -0.088062 -0.708120 0.000000 -0.242269 -0.675027 0.000000 -0.443288 -0.648169 0.000000 -0.626329 -0.370844 0.000000 -0.564786 -0.528505 0.000000 -0.320362 -0.159595 0.000000 0.398290 0.401958 0.000000 0.665045 0.865068 0.000000 0.639337 1.343265 0.000000 0.277613 1.042464 0.000000 -0.000000 1.068320 0.000000 -0.277613 1.042464 0.000000 -0.639337 1.343265 0.000000 -0.665045 0.865068 0.000000 -0.398290 0.401958 0.000000 0.320362 -0.159595 0.000000 0.564786 -0.528505 0.000000 0.626329 -0.370844 0.000000 0.443288 -0.648169 0.000000 0.242269 -0.675027 0.000000 0.088062 -0.708120 0.000000 -0.081601 -0.561390 0.000000 -0.150776 -0.435721 0.000000 -0.228296 -0.236723 0.000000 -0.188361 -0.043802 0.000000 -0.124771 0.096045 0.000000 
-0.000000 0.061654 0.000000 0.088545 0.014300 0.000000 0.131738 -0.085099 0.000000 0.152838 -0.216265 0.000000 0.091680 -0.361123 0.000000 0.025810 -0.450349 0.000000 -0.093772 -0.563429 0.000000 -0.207999 -0.550124 0.000000 -0.290347 -0.579797 0.000000 -0.327310 -0.365044 0.000000 -0.227088 -0.313278 0.000000 -0.389619 -0.018739 0.000000 -0.091089 0.199144 0.000000 0.039951 0.422042 0.000000 0.491557 1.022273 0.000000 0.394499 1.164179 0.000000 -0.000000 1.300963 0.000000 -0.394499 1.164179 0.000000 -0.491557 1.022273 0.000000 -0.039951 0.422042 0.000000 0.091089 0.199144 0.000000 0.389619 -0.018739 0.000000 0.227088 -0.313278 0.000000 0.327310 -0.365044 0.000000 0.290347 -0.579797 0.000000 0.207999 -0.550124 0.000000 0.093772 -0.563429 0.000000 -0.025810 -0.450349 0.000000 -0.091680 -0.361123 0.000000 -0.152838 -0.216265 0.000000 -0.131738 -0.085099 0.000000 -0.088545 0.014300 0.000000 
-0.000000 -0.007223 0.000000 0.051984 -0.035693 0.000000 0.073399 -0.108095 0.000000 0.075844 -0.196665 0.000000 0.025027 -0.308693 0.000000 -0.035195 -0.375937 0.000000 -0.122883 -0.474312 0.000000 -0.212847 -0.478452 0.000000 -0.267464 -0.528858 0.000000 -0.325244 -0.434102 0.000000 -0.208957 -0.466195 0.000000 -0.219232 -0.295594 0.000000 0.072072 -0.027612 0.000000 0.095014 0.282423 0.000000 0.342560 0.988718 0.000000 0.327157 1.534021 0.000000 -0.000000 1.857318 0.000000 -0.327157 1.534021 0.000000 -0.342560 0.988718 0.000000 -0.095014 0.282423 0.000000 -0.072072 -0.027612 0.000000 0.219232 -0.295594 0.000000 0.208957 -0.466195 0.000000 0.325244 -0.434102 0.000000 0.267464 -0.528858 0.000000 0.212847 -0.478452 0.000000 0.122883 -0.474312 0.000000 0.035195 -0.375937 0.000000 -0.025027 -0.308693 0.000000 -0.075844 -0.196665 0.000000 -0.073399 -0.108095 0.000000 -0.051984 -0.035693 0.000000 
-0.000000 -0.042314 0.000000 0.023512 -0.059099 0.000000 0.027655 -0.108959 0.000000 0.014294 -0.167893 0.000000 -0.030695 -0.250083 0.000000 -0.093467 -0.302439 0.000000 -0.162726 -0.385777 0.000000 -0.250491 -0.405543 0.000000 -0.290040 -0.467401 0.000000 -0.358833 -0.423551 0.000000 -0.302163 -0.419290 0.000000 -0.388971 -0.299769 0.000000 -0.254577 -0.115101 0.000000 -0.265595 0.151554 0.000000 -0.120408 0.790131 0.000000 0.012124 1.506739 0.000000 0.000000 1.955276 0.000000 -0.012124 1.506739 0.000000 0.120408 0.790131 0.000000 0.265595 0.151554 0.000000 0.254577 -0.115101 0.000000 0.388971 -0.299769 0.000000 0.302163 -0.419290 0.000000 0.358833 -0.423551 0.000000 0.290040 -0.467401 0.000000 0.250491 -0.405543 0.000000 0.162726 -0.385777 0.000000 0.093467 -0.302439 0.000000 0.030695 -0.250083 0.000000 -0.014294 -0.167893 0.000000 -0.027655 -0.108959 0.000000 -0.023512 -0.059099 0.000000 
-0.000000 -0.054246 0.000000 0.001384 -0.063348 0.000000 -0.009094 -0.098877 0.000000 -0.035555 -0.138315 0.000000 -0.080654 -0.200932 0.000000 -0.148203 -0.243907 0.000000 -0.214910 -0.317288 0.000000 -0.312335 -0.351138 0.000000 -0.367065 -0.420516 0.000000 -0.471629 -0.421980 0.000000 -0.471865 -0.436057 0.000000 -0.568987 -0.343180 0.000000 -0.518239 -0.150988 0.000000 -0.567153 0.148254 0.000000 -0.476209 0.710999 0.000000 -0.278721 1.413613 0.000000 0.000000 1.881565 0.000000 0.278721 1.413613 0.000000 0.476209 0.710999 0.000000 0.567153 0.148254 0.000000 0.518239 -0.150988 0.000000 0.568987 -0.343180 0.000000 0.471865 -0.436057 0.000000 0.471629 -0.421980 0.000000 0.367065 -0.420516 0.000000 0.312335 -0.351138 0.000000 0.214910 -0.317288 0.000000 0.148203 -0.243907 0.000000 0.080654 -0.200932 0.000000 0.035555 -0.138315 0.000000 0.009094 -0.098877 0.000000 -0.001384 -0.063348 0.000000 
-0.000000 -0.045083 0.000000 -0.014058 -0.050005 0.000000 -0.035205 -0.072020 0.000000 -0.073599 -0.096333 0.000000 -0.122193 -0.137435 0.000000 -0.201547 -0.168183 0.000000 -0.275994 -0.221645 0.000000 -0.398571 -0.253388 0.000000 -0.486257 -0.308108 0.000000 -0.645971 -0.318751 0.000000 -0.725939 -0.321932 0.000000 -0.899041 -0.253395 0.000000 -0.927780 -0.116935 0.000000 -0.991648 0.109524 0.000000 -0.853487 0.501698 0.000000 -0.562348 1.030530 0.000000 0.000000 1.397834 0.000000 0.562348 1.030530 0.000000 0.853487 0.501698 0.000000 0.991648 0.109524 0.000000 0.927780 -0.116935 0.000000 0.899041 -0.253395 0.000000 0.725939 -0.321932 0.000000 0.645971 -0.318751 0.000000 0.486257 -0.308108 0.000000 0.398571 -0.253388 0.000000 0.275994 -0.221645 0.000000 0.201547 -0.168183 0.000000 0.122193 -0.137435 0.000000 0.073599 -0.096333 0.000000 0.035205 -0.072020 0.000000 0.014058 -0.050005 0.000000 
-0.000000 -0.026129 0.000000 -0.022541 -0.028143 0.000000 -0.050005 -0.039336 0.000000 -0.094561 -0.051327 0.000000 -0.146337 -0.072984 0.000000 -0.231996 -0.090106 0.000000 -0.314521 -0.120264 0.000000 -0.453641 -0.140875 0.000000 -0.567908 -0.173116 0.000000 -0.761749 -0.182298 0.000000 -0.886659 -0.182987 0.000000 -1.083681 -0.141339 0.000000 -1.140054 -0.058381 0.000000 -1.200615 0.073961 0.000000 -1.030530 0.281699 0.000000 -0.698917 0.560126 0.000000 0.000000 0.756868 0.000000 0.698917 0.560126 0.000000 1.030530 0.281699 0.000000 1.200615 0.073961 0.000000 1.140054 -0.058381 0.000000 1.083681 -0.141339 0.000000 0.886659 -0.182987 0.000000 0.761749 -0.182298 0.000000 0.567908 -0.173116 0.000000 0.453641 -0.140875 0.000000 0.314521 -0.120264 0.000000 0.231996 -0.090106 0.000000 0.146337 -0.072984 0.000000 0.094561 -0.051327 0.000000 0.050005 -0.039336 0.000000 0.022541 -0.028143 0.000000 
