# vtk DataFile Version 2.0
Comment goes here
ASCII

DATASET STRUCTURED_POINTS
FIELD FieldData 1
TIME 1 1 double
0.46000000
DIMENSIONS    32   32   1

ORIGIN    0.000   0.000   0.000
SPACING   0.03125 0.03125   1.000

POINT_DATA   1024
VECTORS u double

-0.000000 -0.000000 0.000000 -0.080653 0.000000 0.000000 -0.165439 -0.000000 0.000000 -0.261848 0.000000 0.000000 -0.369215 0.000000 0.000000 -0.496880 0.000000 0.000000 -0.640833 0.000000 0.000000 -0.811181 0.000000 0.000000 -0.999564 0.000000 0.000000 -1.208823 0.000000 0.000000 -1.410092 -0.000000 0.000000 -1.581504 -0.000000 0.000000 -1.661775 -0.000000 0.000000 -1.611369 -0.000000 0.000000 -1.338090 -0.000000 0.000000 -0.790541 -0.000000 0.000000 -0.000000 -0.000000 0.000000 0.790541 0.000000 0.000000 1.338090 0.000000 0.000000 1.611369 0.000000 0.000000 1.661775 0.000000 0.000000 1.581504 0.000000 0.000000 1.410092 0.000000 0.000000 1.208823 -0.000000 0.000000 0.999564 -0.000000 0.000000 0.811181 -0.000000 0.000000 0.640833 -0.000000 0.000000 0.496880 -0.000000 0.000000 0.369215 -0.000000 0.000000 0.261848 -0.000000 0.000000 0.165439 -0.000000 0.000000 0.080653 -0.000000 0.000000 
0.000000 0.080653 0.000000 -0.079065 0.082719 0.000000 -0.162475 0.090597 0.000000 -0.257494 0.101888 0.000000 -0.363691 0.117516 0.000000 -0.489390 0.135809 0.000000 -0.630709 0.157151 0.000000 -0.795910 0.179365 0.000000 -0.976165 0.198821 0.000000 -1.173337 0.205264 0.000000 -1.358136 0.186341 0.000000 -1.509346 0.125841 0.000000 -1.566576 0.014933 0.000000 -1.488024 -0.161842 0.000000 -1.208397 -0.410414 0.000000 -0.690446 -0.669045 0.000000 -0.000000 -0.790541 0.000000 0.690446 -0.669045 0.000000 1.208397 -0.410414 0.000000 1.488024 -0.161842 0.000000 1.566576 0.014933 0.000000 1.509346 0.125841 0.000000 1.358136 0.186341 0.000000 1.173337 0.205264 0.000000 0.976165 0.198821 0.000000 0.795910 0.179365 0.000000 0.630709 0.157151 0.000000 0.489390 0.135809 0.000000 0.363691 0.117516 0.000000 0.257494 0.101888 0.000000 0.162475 0.090597 0.000000 0.079065 0.082719 0.000000 
0.000000 0.158130 0.000000 -0.071274 0.162475 0.000000 -0.147468 0.178429 0.000000 -0.236825 0.201217 0.000000 -0.337632 0.231897 0.000000 -0.458587 0.267017 0.000000 -0.592787 0.306519 0.000000 -0.746829 0.345456 0.000000 -0.908048 0.377428 0.000000 -1.074976 0.381972 0.000000 -1.218924 0.336009 0.000000 -1.319240 0.208440 0.000000 -1.325380 -0.021322 0.000000 -1.224545 -0.358179 0.000000 -0.940621 -0.797578 0.000000 -0.489265 -1.208397 0.000000 -0.000000 -1.380892 0.000000 0.489265 -1.208397 0.000000 0.940621 -0.797578 0.000000 1.224545 -0.358179 0.000000 1.325380 -0.021322 0.000000 1.319240 0.208440 0.000000 1.218924 0.336009 0.000000 1.074976 0.381972 0.000000 0.908048 0.377428 0.000000 0.746829 0.345456 0.000000 0.592787 0.306519 0.000000 0.458587 0.267017 0.000000 0.337632 0.231897 0.000000 0.236825 0.201217 0.000000 0.147468 0.178429 0.000000 0.071274 0.162475 0.000000 
0.000000 0.223202 0.000000 -0.060232 0.230187 0.000000 -0.126761 0.256148 0.000000 -0.208717 0.292053 0.000000 -0.303915 0.339278 0.000000 -0.419904 0.390963 0.000000 -0.549017 0.445392 0.000000 -0.693769 0.494627 0.000000 -0.840254 0.526968 0.000000 -0.983072 0.516139 0.000000 -1.089275 0.430605 0.000000 -1.142240 0.232298 0.000000 -1.077918 -0.079762 0.000000 -0.891048 -0.546602 0.000000 -0.570593 -1.145694 0.000000 -0.238340 -1.609666 0.000000 0.000000 -1.769071 0.000000 0.238340 -1.609666 0.000000 0.570593 -1.145694 0.000000 0.891048 -0.546602 0.000000 1.077918 -0.079762 0.000000 1.142240 0.232298 0.000000 1.089275 0.430605 0.000000 0.983072 0.516139 0.000000 0.840254 0.526968 0.000000 0.693769 0.494627 0.000000 0.549017 0.445392 0.000000 0.419904 0.390963 0.000000 0.303915 0.339278 0.000000 0.208717 0.292053 0.000000 0.126761 0.256148 0.000000 0.060232 0.230187 0.000000 
0.000000 0.278593 0.000000 -0.041447 0.289236 0.000000 -0.091713 0.326915 0.000000 -0.162751 0.378370 0.000000 -0.250281 0.443084 0.000000 -0.364236 0.512119 0.000000 -0.492979 0.580383 0.000000 -0.640436 0.636693 0.000000 -0.790226 0.666731 0.000000 -0.933563 0.630993 0.000000 -1.034942 0.495177 0.000000 -1.046352 0.197083 0.000000 -0.932643 -0.272514 0.000000 -0.745966 -0.865505 0.000000 -0.412576 -1.450286 0.000000 -0.152112 -1.778990 0.000000 0.000000 -1.857573 0.000000 0.152112 -1.778990 0.000000 0.412576 -1.450286 0.000000 0.745966 -0.865505 0.000000 0.932643 -0.272514 0.000000 1.046352 0.197083 0.000000 1.034942 0.495177 0.000000 0.933563 0.630993 0.000000 0.790226 0.666731 0.000000 0.640436 0.636693 0.000000 0.492979 0.580383 0.000000 0.364236 0.512119 0.000000 0.250281 0.443084 0.000000 0.162751 0.378370 0.000000 0.091713 0.326915 0.000000 0.041447 0.289236 0.000000 
0.000000 0.306095 0.000000 -0.018318 0.321900 0.000000 -0.049483 0.377452 0.000000 -0.109044 0.450621 0.000000 -0.190746 0.540764 0.000000 -0.305290 0.633661 0.000000 -0.442442 0.721592 0.000000 -0.603262 0.791874 0.000000 -0.785010 0.820094 0.000000 -0.978667 0.760855 0.000000 -1.149009 0.543395 0.000000 -1.211095 0.129999 0.000000 -0.958052 -0.380148 0.000000 -0.476522 -1.066668 0.000000 -0.054720 -1.739548 0.000000 0.080052 -2.022242 0.000000 -0.000000 -2.073296 0.000000 -0.080052 -2.022242 0.000000 0.054720 -1.739548 0.000000 0.476522 -1.066668 0.000000 0.958052 -0.380148 0.000000 1.211095 0.129999 0.000000 1.149009 0.543395 0.000000 0.978667 0.760855 0.000000 0.785010 0.820094 0.000000 0.603262 0.791874 0.000000 0.442442 0.721592 0.000000 0.305290 0.633661 0.000000 0.190746 0.540764 0.000000 0.109044 0.450621 0.000000 0.049483 0.377452 0.000000 0.018318 0.321900 0.000000 
0.000000 0.315229 0.000000 0.016671 0.338719 0.000000 0.014324 0.417641 0.000000 -0.028099 0.519633 0.000000 -0.099985 0.639330 0.000000 -0.218461 0.763815 0.000000 -0.365896 0.878355 0.000000 -0.558391 0.979261 0.000000 -0.807280 1.042136 0.000000 -1.119743 0.994991 0.000000 -1.280641 0.727605 0.000000 -0.872741 0.006125 0.000000 -0.166585 -1.007087 0.000000 0.279262 -1.768836 0.000000 0.206332 -2.006860 0.000000 0.142378 -1.833710 0.000000 0.000000 -1.697469 0.000000 -0.142378 -1.833710 0.000000 -0.206332 -2.006860 0.000000 -0.279262 -1.768836 0.000000 0.166585 -1.007087 0.000000 0.872741 0.006125 0.000000 1.280641 0.727605 0.000000 1.119743 0.994991 0.000000 0.807280 1.042136 0.000000 0.558391 0.979261 0.000000 0.365896 0.878355 0.000000 0.218461 0.763815 0.000000 0.099985 0.639330 0.000000 0.028099 0.519633 0.000000 -0.014324 0.417641 0.000000 -0.016671 0.338719 0.000000 
0.000000 0.272753 0.000000 0.057010 0.307576 0.000000 0.088100 0.422222 0.000000 0.063213 0.564930 0.000000 0.002053 0.731126 0.000000 -0.119212 0.899572 0.000000 -0.283761 1.061522 0.000000 -0.504816 1.233258 0.000000 -0.816543 1.381446 0.000000 -1.008503 1.234216 0.000000 -0.682138 0.296392 0.000000 0.078680 -0.984056 0.000000 0.262024 -1.532151 0.000000 0.021592 -1.439585 0.000000 -0.309319 -1.602664 0.000000 -0.257946 -1.815910 0.000000 0.000000 -1.788539 0.000000 0.257946 -1.815910 0.000000 0.309319 -1.602664 0.000000 -0.021592 -1.439585 0.000000 -0.262024 -1.532151 0.000000 -0.078680 -0.984056 0.000000 0.682138 0.296392 0.000000 1.008503 1.234216 0.000000 0.816543 1.381446 0.000000 0.504816 1.233258 0.000000 0.283761 1.061522 0.000000 0.119212 0.899572 0.000000 -0.002053 0.731126 0.000000 -0.063213 0.564930 0.000000 -0.088100 0.422222 0.000000 -0.057010 0.307576 0.000000 
0.000000 0.201210 0.000000 0.110876 0.250619 0.000000 0.188176 0.411438 0.000000 0.194751 0.605680 0.000000 0.157508 0.821754 0.000000 0.041506 1.049629 0.000000 -0.111659 1.263960 0.000000 -0.336627 1.512043 0.000000 -0.520641 1.545822 0.000000 -0.398005 0.860586 0.000000 0.172715 -0.359577 0.000000 0.247384 -0.938037 0.000000 -0.144499 -0.950000 0.000000 -0.002535 -1.197493 0.000000 0.255100 -1.727322 0.000000 0.202787 -2.143029 0.000000 0.000000 -2.213361 0.000000 -0.202787 -2.143029 0.000000 -0.255100 -1.727322 0.000000 0.002535 -1.197493 0.000000 0.144499 -0.950000 0.000000 -0.247384 -0.938037 0.000000 -0.172715 -0.359577 0.000000 0.398005 0.860586 0.000000 0.520641 1.545822 0.000000 0.336627 1.512043 0.000000 0.111659 1.263960 0.000000 -0.041506 1.049629 0.000000 -0.157508 0.821754 0.000000 -0.194751 0.605680 0.000000 -0.188176 0.411438 0.000000 -0.110876 0.250619 0.000000 
0.000000 0.051002 0.000000 0.160598 0.119400 0.000000 0.287011 0.338347 0.000000 0.323067 0.595598 0.000000 0.318214 0.884371 0.000000 0.197494 1.168739 0.000000 0.062219 1.439654 0.000000 0.008541 1.642239 0.000000 -0.140508 1.442825 0.000000 0.217884 0.540860 0.000000 0.546303 -0.348997 0.000000 0.500928 -0.666842 0.000000 0.958545 -1.282232 0.000000 1.465285 -1.839184 0.000000 1.443057 -1.807986 0.000000 0.874334 -1.560811 0.000000 -0.000000 -1.382965 0.000000 -0.874334 -1.560811 0.000000 -1.443057 -1.807986 0.000000 -1.465285 -1.839184 0.000000 -0.958545 -1.282232 0.000000 -0.500928 -0.666842 0.000000 -0.546303 -0.348997 0.000000 -0.217884 0.540860 0.000000 0.140508 1.442825 0.000000 -0.008541 1.642239 0.000000 -0.062219 1.439654 0.000000 -0.197494 1.168739 0.000000 -0.318214 0.884371 0.000000 -0.323067 0.595598 0.000000 -0.287011 0.338347 0.000000 -0.160598 0.119400 0.000000 
0.000000 -0.119987 0.000000 0.205943 -0.036392 0.000000 0.382944 0.248969 0.000000 0.476712 0.574478 0.000000 0.531656 0.947327 0.000000 0.460653 1.305625 0.000000 0.434324 1.452913 0.000000 0.471395 1.714770 0.000000 -0.001032 1.336479 0.000000 0.622371 0.173775 0.000000 0.942134 -0.642621 0.000000 1.183670 -1.350279 0.000000 1.608408 -1.914357 0.000000 1.406502 -1.682004 0.000000 1.041829 -1.136371 0.000000 0.530884 -0.699972 0.000000 -0.000000 -0.464693 0.000000 -0.530884 -0.699972 0.000000 -1.041829 -1.136371 0.000000 -1.406502 -1.682004 0.000000 -1.608408 -1.914357 0.000000 -1.183670 -1.350279 0.000000 -0.942134 -0.642621 0.000000 -0.622371 0.173775 0.000000 0.001032 1.336479 0.000000 -0.471395 1.714770 0.000000 -0.434324 1.452913 0.000000 -0.460653 1.305625 0.000000 -0.531656 0.947327 0.000000 -0.476712 0.574478 0.000000 -0.382944 0.248969 0.000000 -0.205943 -0.036392 0.000000 
0.000000 -0.360885 0.000000 0.215928 -0.263544 0.000000 0.427178 0.067578 0.000000 0.570272 0.446886 0.000000 0.722658 0.900430 0.000000 0.609707 1.266072 0.000000 0.938575 1.428912 0.000000 0.281378 2.077596 0.000000 0.313452 1.291849 0.000000 1.194115 -0.402306 0.000000 1.171243 -0.910296 0.000000 1.062947 -1.333116 0.000000 0.664875 -1.505065 0.000000 0.238536 -1.272605 0.000000 0.085057 -0.932368 0.000000 0.008580 -0.518982 0.000000 0.000000 -0.321196 0.000000 -0.008580 -0.518982 0.000000 -0.085057 -0.932368 0.000000 -0.238536 -1.272605 0.000000 -0.664875 -1.505065 0.000000 -1.062947 -1.333116 0.000000 -1.171243 -0.910296 0.000000 -1.194115 -0.402306 0.000000 -0.313452 1.291849 0.000000 -0.281378 2.077596 0.000000 -0.938575 1.428912 0.000000 -0.609707 1.266072 0.000000 -0.722658 0.900430 0.000000 -0.570272 0.446886 0.000000 -0.427178 0.067578 0.000000 -0.215928 -0.263544 0.000000 
0.000000 -0.551842 0.000000 0.178918 -0.463570 0.000000 0.376211 -0.105376 0.000000 0.574426 0.278997 0.000000 0.765701 0.907892 0.000000 0.848576 1.089708 0.000000 1.106105 1.781242 0.000000 -0.065751 2.339893 0.000000 1.133912 0.423743 0.000000 1.564434 -0.684017 0.000000 0.925362 -0.511453 0.000000 0.741014 -0.843911 0.000000 0.319940 -1.089945 0.000000 0.148874 -1.102186 0.000000 -0.008020 -0.906416 0.000000 -0.041305 -0.614915 0.000000 -0.000000 -0.447533 0.000000 0.041305 -0.614915 0.000000 0.008020 -0.906416 0.000000 -0.148874 -1.102186 0.000000 -0.319940 -1.089945 0.000000 -0.741014 -0.843911 0.000000 -0.925362 -0.511453 0.000000 -1.564434 -0.684017 0.000000 -1.133912 0.423743 0.000000 0.065751 2.339893 0.000000 -1.106105 1.781242 0.000000 -0.848576 1.089708 0.000000 -0.765701 0.907892 0.000000 -0.574426 0.278997 0.000000 -0.376211 -0.105376 0.000000 -0.178918 -0.463570 0.000000 
0.000000 -0.718721 0.000000 0.075701 -0.639755 0.000000 0.190144 -0.327930 0.000000 0.435397 0.057396 0.000000 0.673769 0.626281 0.000000 1.091431 0.925668 0.000000 0.480625 2.343239 0.000000 0.436880 2.049788 0.000000 1.702754 -0.338336 0.000000 1.403316 -0.193757 0.000000 0.940956 -0.086877 0.000000 0.855720 -0.727693 0.000000 0.567818 -0.912924 0.000000 0.364083 -0.944646 0.000000 0.156533 -0.742190 0.000000 0.035961 -0.527002 0.000000 -0.000000 -0.403805 0.000000 -0.035961 -0.527002 0.000000 -0.156533 -0.742190 0.000000 -0.364083 -0.944646 0.000000 -0.567818 -0.912924 0.000000 -0.855720 -0.727693 0.000000 -0.940956 -0.086877 0.000000 -1.403316 -0.193757 0.000000 -1.702754 -0.338336 0.000000 -0.436880 2.049788 0.000000 -0.480625 2.343239 0.000000 -1.091431 0.925668 0.000000 -0.673769 0.626281 0.000000 -0.435397 0.057396 0.000000 -0.190144 -0.327930 0.000000 -0.075701 -0.639755 0.000000 
0.000000 -0.703244 0.000000 -0.096701 -0.653713 0.000000 -0.125645 -0.465071 0.000000 0.015980 -0.204629 0.000000 0.202470 0.251858 0.000000 0.421547 1.282852 0.000000 -0.082835 2.435792 0.000000 1.323373 1.117765 0.000000 1.683953 -0.542693 0.000000 1.252550 0.077781 0.000000 1.299321 0.036143 0.000000 1.094903 -0.470773 0.000000 0.815591 -0.598308 0.000000 0.508827 -0.690901 0.000000 0.266275 -0.578294 0.000000 0.094461 -0.458382 0.000000 -0.000000 -0.375610 0.000000 -0.094461 -0.458382 0.000000 -0.266275 -0.578294 0.000000 -0.508827 -0.690901 0.000000 -0.815591 -0.598308 0.000000 -1.094903 -0.470773 0.000000 -1.299321 0.036143 0.000000 -1.252550 0.077781 0.000000 -1.683953 -0.542693 0.000000 -1.323373 1.117765 0.000000 0.082835 2.435792 0.000000 -0.421547 1.282852 0.000000 -0.202470 0.251858 0.000000 -0.015980 -0.204629 0.000000 0.125645 -0.465071 0.000000 0.096701 -0.653713 0.000000 
0.000000 -0.525318 0.000000 -0.351622 -0.514110 0.000000 -0.653713 -0.440611 0.000000 -0.816694 -0.270720 0.000000 -0.858342 0.220714 0.000000 -0.564835 1.210973 0.000000 0.424510 1.441412 0.000000 1.870957 0.283001 0.000000 1.542275 -0.267512 0.000000 1.328264 0.190874 0.000000 1.620056 0.070770 0.000000 1.364407 -0.243963 0.000000 1.149283 -0.326849 0.000000 0.766099 -0.395329 0.000000 0.458382 -0.327824 0.000000 0.187805 -0.260727 0.000000 -0.000000 -0.214883 0.000000 -0.187805 -0.260727 0.000000 -0.458382 -0.327824 0.000000 -0.766099 -0.395329 0.000000 -1.149283 -0.326849 0.000000 -1.364407 -0.243963 0.000000 -1.620056 0.070770 0.000000 -1.328264 0.190874 0.000000 -1.542275 -0.267512 0.000000 -1.870957 0.283001 0.000000 -0.424510 1.441412 0.000000 0.564835 1.210973 0.000000 0.858342 0.220714 0.000000 0.816694 -0.270720 0.000000 0.653713 -0.440611 0.000000 0.351622 -0.514110 0.000000 
-0.000000 -0.000000 0.000000 -0.525318 -0.000000 0.000000 -1.028220 -0.000000 0.000000 -1.406541 0.000000 0.000000 -1.569659 0.000000 0.000000 -0.965113 0.000000 0.000000 0.852287 0.000000 0.000000 1.917711 0.000000 0.000000 1.418289 0.000000 0.000000 1.382687 -0.000000 0.000000 1.800038 -0.000000 0.000000 1.524228 -0.000000 0.000000 1.312113 0.000000 0.000000 0.870531 -0.000000 0.000000 0.521454 -0.000000 0.000000 0.214883 -0.000000 0.000000 -0.000000 -0.000000 0.000000 -0.214883 -0.000000 0.000000 -0.521454 -0.000000 0.000000 -0.870531 -0.000000 0.000000 -1.312113 -0.000000 0.000000 -1.524228 0.000000 0.000000 -1.800038 0.000000 0.000000 -1.382687 0.000000 0.000000 -1.418289 -0.000000 0.000000 -1.917711 -0.000000 0.000000 -0.852287 -0.000000 0.000000 0.965113 -0.000000 0.000000 1.569659 -0.000000 0.000000 1.406541 -0.000000 0.000000 1.028220 0.000000 0.000000 0.525318 0.000000 0.000000 
-0.000000 0.525318 0.000000 -0.351622 0.514110 0.000000 -0.653713 0.440611 0.000000 -0.816694 0.270720 0.000000 -0.858342 -0.220714 0.000000 -0.564835 -1.210973 0.000000 0.424510 -1.441412 0.000000 1.870957 -0.283001 0.000000 1.542275 0.267512 0.000000 1.328264 -0.190874 0.000000 1.620056 -0.070770 0.000000 1.364407 0.243963 0.000000 1.149283 0.326849 0.000000 0.766099 0.395329 0.000000 0.458382 0.327824 0.000000 0.187805 0.260727 0.000000 -0.000000 0.214883 0.000000 -0.187805 0.260727 0.000000 -0.458382 0.327824 0.000000 -0.766099 0.395329 0.000000 -1.149283 0.326849 0.000000 -1.364407 0.243963 0.000000 -1.620056 -0.070770 0.000000 -1.328264 -0.190874 0.000000 -1.542275 0.267512 0.000000 -1.870957 -0.283001 0.000000 -0.424510 -1.441412 0.000000 0.564835 -1.210973 0.000000 0.858342 -0.220714 0.000000 0.816694 0.270720 0.000000 0.653713 0.440611 0.000000 0.351622 0.514110 0.000000 
-0.000000 0.703244 0.000000 -0.096701 0.653713 0.000000 -0.125645 0.465071 0.000000 0.015980 0.204629 0.000000 0.202470 -0.251858 0.000000 0.421547 -1.282852 0.000000 -0.082835 -2.435792 0.000000 1.323373 -1.117765 0.000000 1.683953 0.542693 0.000000 1.252550 -0.077781 0.000000 1.299321 -0.036143 0.000000 1.094903 0.470773 0.000000 0.815591 0.598308 0.000000 0.508827 0.690901 0.000000 0.266275 0.578294 0.000000 0.094461 0.458382 0.000000 0.000000 0.375610 0.000000 -0.094461 0.458382 0.000000 -0.266275 0.578294 0.000000 -0.508827 0.690901 0.000000 -0.815591 0.598308 0.000000 -1.094903 0.470773 0.000000 -1.299321 -0.036143 0.000000 -1.252550 -0.077781 0.000000 -1.683953 0.542693 0.000000 -1.323373 -1.117765 0.000000 0.082835 -2.435792 0.000000 -0.421547 -1.282852 0.000000 -0.202470 -0.251858 0.000000 -0.015980 0.204629 0.000000 0.125645 0.465071 0.000000 0.096701 0.653713 0.000000 
-0.000000 0.718721 0.000000 0.075701 0.639755 0.000000 0.190144 0.327930 0.000000 0.435397 -0.057396 0.000000 0.673769 -0.626281 0.000000 1.091431 -0.925668 0.000000 0.480625 -2.343239 0.000000 0.436880 -2.049788 0.000000 1.702754 0.338336 0.000000 1.403316 0.193757 0.000000 0.940956 0.086877 0.000000 0.855720 0.727693 0.000000 0.567818 0.912924 0.000000 0.364083 0.944646 0.000000 0.156533 0.742190 0.000000 0.035961 0.527002 0.000000 0.000000 0.403805 0.000000 -0.035961 0.527002 0.000000 -0.156533 0.742190 0.000000 -0.364083 0.944646 0.000000 -0.567818 0.912924 0.000000 -0.855720 0.727693 0.000000 -0.940956 0.086877 0.000000 -1.403316 0.193757 0.000000 -1.702754 0.338336 0.000000 -0.436880 -2.049788 0.000000 -0.480625 -2.343239 0.000000 -1.091431 -0.925668 0.000000 -0.673769 -0.626281 0.000000 -0.435397 -0.057396 0.000000 -0.190144 0.327930 0.000000 -0.075701 0.639755 0.000000 
-0.000000 0.551842 0.000000 0.178918 0.463570 0.000000 0.376211 0.105376 0.000000 0.574426 -0.278997 0.000000 0.765701 -0.907892 0.000000 0.848576 -1.089708 0.000000 1.106105 -1.781242 0.000000 -0.065751 -2.339893 0.000000 1.133912 -0.423743 0.000000 1.564434 0.684017 0.000000 0.925362 0.511453 0.000000 0.741014 0.843911 0.000000 0.319940 1.089945 0.000000 0.148874 1.102186 0.000000 -0.008020 0.906416 0.000000 -0.041305 0.614915 0.000000 0.000000 0.447533 0.000000 0.041305 0.614915 0.000000 0.008020 0.906416 0.000000 -0.148874 1.102186 0.000000 -0.319940 1.089945 0.000000 -0.741014 0.843911 0.000000 -0.925362 0.511453 0.000000 -1.564434 0.684017 0.000000 -1.133912 -0.423743 0.000000 0.065751 -2.339893 0.000000 -1.106105 -1.781242 0.000000 -0.848576 -1.089708 0.000000 -0.765701 -0.907892 0.000000 -0.574426 -0.278997 0.000000 -0.376211 0.105376 0.000000 -0.178918 0.463570 0.000000 
-0.000000 0.360885 0.000000 0.215928 0.263544 0.000000 0.427178 -0.067578 0.000000 0.570272 -0.446886 0.000000 0.722658 -0.900430 0.000000 0.609707 -1.266072 0.000000 0.938575 -1.428912 0.000000 0.281378 -2.077596 0.000000 0.313452 -1.291849 0.000000 1.194115 0.402306 0.000000 1.171243 0.910296 0.000000 1.062947 1.333116 0.000000 0.664875 1.505065 0.000000 0.238536 1.272605 0.000000 0.085057 0.932368 0.000000 0.008580 0.518982 0.000000 0.000000 0.321196 0.000000 -0.008580 0.518982 0.000000 -0.085057 0.932368 0.000000 -0.238536 1.272605 0.000000 -0.664875 1.505065 0.000000 -1.062947 1.333116 0.000000 -1.171243 0.910296 0.000000 -1.194115 0.402306 0.000000 -0.313452 -1.291849 0.000000 -0.281378 -2.077596 0.000000 -0.938575 -1.428912 0.000000 -0.609707 -1.266072 0.000000 -0.722658 -0.900430 0.000000 -0.570272 -0.446886 0.000000 -0.427178 -0.067578 0.000000 -0.215928 0.263544 0.000000 
0.000000 0.119987 0.000000 0.205943 0.036392 0.000000 0.382944 -0.248969 0.000000 0.476712 -0.574478 0.000000 0.531656 -0.947327 0.000000 0.460653 -1.305625 0.000000 0.434324 -1.452913 0.000000 0.471395 -1.714770 0.000000 -0.001032 -1.336479 0.000000 0.622371 -0.173775 0.000000 0.942134 0.642621 0.000000 1.183670 1.350279 0.000000 1.608408 1.914357 0.000000 1.406502 1.682004 0.000000 1.041829 1.136371 0.000000 0.530884 0.699972 0.000000 0.000000 0.464693 0.000000 -0.530884 0.699972 0.000000 -1.041829 1.136371 0.000000 -1.406502 1.682004 0.000000 -1.608408 1.914357 0.000000 -1.183670 1.350279 0.000000 -0.942134 0.642621 0.000000 -0.622371 -0.173775 0.000000 0.001032 -1.336479 0.000000 -0.471395 -1.714770 0.000000 -0.434324 -1.452913 0.000000 -0.460653 -1.305625 0.000000 -0.531656 -0.947327 0.000000 -0.476712 -0.574478 0.000000 -0.382944 -0.248969 0.000000 -0.205943 0.036392 0.000000 
-0.000000 -0.051002 0.000000 0.160598 -0.119400 0.000000 0.287011 -0.338347 0.000000 0.323067 -0.595598 0.000000 0.318214 -0.884371 0.000000 0.197494 -1.168739 0.000000 0.062219 -1.439654 0.000000 0.008541 -1.642239 0.000000 -0.140508 -1.442825 0.000000 0.217884 -0.540860 0.000000 0.546303 0.348997 0.000000 0.500928 0.666842 0.000000 0.958545 1.282232 0.000000 1.465285 1.839184 0.000000 1.443057 1.807986 0.000000 0.874334 1.560811 0.000000 -0.000000 1.382965 0.000000 -0.874334 1.560811 0.000000 -1.443057 1.807986 0.000000 -1.465285 1.839184 0.000000 -0.958545 1.282232 0.000000 -0.500928 0.666842 0.000000 -0.546303 0.348997 0.000000 -0.217884 -0.540860 0.000000 0.140508 -1.442825 0.000000 -0.008541 -1.642239 0.000000 -0.062219 -1.439654 0.000000 -0.197494 -1.168739 0.000000 -0.318214 -0.884371 0.000000 -0.323067 -0.595598 0.000000 -0.287011 -0.338347 0.000000 -0.160598 -0.119400 0.000000 
0.000000 -0.201210 0.000000 0.110876 -0.250619 0.000000 0.188176 -0.411438 0.000000 0.194751 -0.605680 0.000000 0.157508 -0.821754 0.000000 0.041506 -1.049629 0.000000 -0.111659 -1.263960 0.000000 -0.336627 -1.512043 0.000000 -0.520641 -1.545822 0.000000 -0.398005 -0.860586 0.000000 0.172715 0.359577 0.000000 0.247384 0.938037 0.000000 -0.144499 0.950000 0.000000 -0.002535 1.197493 0.000000 0.255100 1.727322 0.000000 0.202787 2.143029 0.000000 -0.000000 2.213361 0.000000 -0.202787 2.143029 0.000000 -0.255100 1.727322 0.000000 0.002535 1.197493 0.000000 0.144499 0.950000 0.000000 -0.247384 0.938037 0.000000 -0.172715 0.359577 0.000000 0.398005 -0.860586 0.000000 0.520641 -1.545822 0.000000 0.336627 -1.512043 0.000000 0.111659 -1.263960 0.000000 -0.041506 -1.049629 0.000000 -0.157508 -0.821754 0.000000 -0.194751 -0.605680 0.000000 -0.188176 -0.411438 0.000000 -0.110876 -0.250619 0.000000 
-0.000000 -0.272753 0.000000 0.057010 -0.307576 0.000000 0.088100 -0.422222 0.000000 0.063213 -0.564930 0.000000 0.002053 -0.731126 0.000000 -0.119212 -0.899572 0.000000 -0.283761 -1.061522 0.000000 -0.504816 -1.233258 0.000000 -0.816543 -1.381446 0.000000 -1.008503 -1.234216 0.000000 -0.682138 -0.296392 0.000000 0.078680 0.984056 0.000000 0.262024 1.532151 0.000000 0.021592 1.439585 0.000000 -0.309319 1.602664 0.000000 -0.257946 1.815910 0.000000 -0.000000 1.788539 0.000000 0.257946 1.815910 0.000000 0.309319 1.602664 0.000000 -0.021592 1.439585 0.000000 -0.262024 1.532151 0.000000 -0.078680 0.984056 0.000000 0.682138 -0.296392 0.000000 1.008503 -1.234216 0.000000 0.816543 -1.381446 0.000000 0.504816 -1.233258 0.000000 0.283761 -1.061522 0.000000 0.119212 -0.899572 0.000000 -0.002053 -0.731126 0.000000 -0.063213 -0.564930 0.000000 -0.088100 -0.422222 0.000000 -0.057010 -0.307576 0.000000 
-0.000000 -0.315229 0.000000 0.016671 -0.338719 0.000000 0.014324 -0.417641 0.000000 -0.028099 -0.519633 0.000000 -0.099985 -0.639330 0.000000 -0.218461 -0.763815 0.000000 -0.365896 -0.878355 0.000000 -0.558391 -0.979261 0.000000 -0.807280 -1.042136 0.000000 -1.119743 -0.994991 0.000000 -1.280641 -0.727605 0.000000 -0.872741 -0.006125 0.000000 -0.166585 1.007087 0.000000 0.279262 1.768836 0.000000 0.206332 2.006860 0.000000 0.142378 1.833710 0.000000 -0.000000 1.697469 0.000000 -0.142378 1.833710 0.000000 -0.206332 2.006860 0.000000 -0.279262 1.768836 0.000000 0.166585 1.007087 0.000000 0.872741 -0.006125 0.000000 1.280641 -0.727605 0.000000 1.119743 -0.994991 0.000000 0.807280 -1.042136 0.000000 0.558391 -0.979261 0.000000 0.365896 -0.878355 0.000000 0.218461 -0.763815 0.000000 0.099985 -0.639330 0.000000 0.028099 -0.519633 0.000000 -0.014324 -0.417641 0.000000 -0.016671 -0.338719 0.000000 
-0.000000 -0.306095 0.000000 -0.018318 -0.321900 0.000000 -0.049483 -0.377452 0.000000 -0.109044 -0.450621 0.000000 -0.190746 -0.540764 0.000000 -0.305290 -0.633661 0.000000 -0.442442 -0.721592 0.000000 -0.603262 -0.791874 0.000000 -0.785010 -0.820094 0.000000 -0.978667 -0.760855 0.000000 -1.149009 -0.543395 0.000000 -1.211095 -0.129999 0.000000 -0.958052 0.380148 0.000000 -0.476522 1.066668 0.000000 -0.054720 1.739548 0.000000 0.080052 2.022242 0.000000 0.000000 2.073296 0.000000 -0.080052 2.022242 0.000000 0.054720 1.739548 0.000000 0.476522 1.066668 0.000000 0.958052 0.380148 0.000000 1.211095 -0.129999 0.000000 1.149009 -0.543395 0.000000 0.978667 -0.760855 0.000000 0.785010 -0.820094 0.000000 0.603262 -0.791874 0.000000 0.442442 -0.721592 0.000000 0.305290 -0.633661 0.000000 0.190746 -0.540764 0.000000 0.109044 -0.450621 0.000000 0.049483 -0.377452 0.000000 0.018318 -0.321900 0.000000 
-0.000000 -0.278593 0.000000 -0.041447 -0.289236 0.000000 -0.091713 -0.326915 0.000000 -0.162751 -0.378370 0.000000 -0.250281 -0.443084 0.000000 -0.364236 -0.512119 0.000000 -0.492979 -0.580383 0.000000 -0.640436 -0.636693 0.000000 -0.790226 -0.666731 0.000000 -0.933563 -0.630993 0.000000 -1.034942 -0.495177 0.000000 -1.046352 -0.197083 0.000000 -0.932643 0.272514 0.000000 -0.745966 0.865505 0.000000 -0.412576 1.450286 0.000000 -0.152112 1.778990 0.000000 0.000000 1.857573 0.000000 0.152112 1.778990 0.000000 0.412576 1.450286 0.000000 0.745966 0.865505 0.000000 0.932643 0.272514 0.000000 1.046352 -0.197083 0.000000 1.034942 -0.495177 0.000000 0.933563 -0.630993 0.000000 0.790226 -0.666731 0.000000 0.640436 -0.636693 0.000000 0.492979 -0.580383 0.000000 0.364236 -0.512119 0.000000 0.250281 -0.443084 0.000000 0.162751 -0.378370 0.000000 0.091713 -0.326915 0.000000 0.041447 -0.289236 0.000000 
-0.000000 -0.223202 0.000000 -0.060232 -0.230187 0.000000 -0.126761 -0.256148 0.000000 -0.208717 -0.292053 0.000000 -0.303915 -0.339278 0.000000 -0.419904 -0.390963 0.000000 -0.549017 -0.445392 0.000000 -0.693769 -0.494627 0.000000 -0.840254 -0.526968 0.000000 -0.983072 -0.516139 0.000000 -1.089275 -0.430605 0.000000 -1.142240 -0.232298 0.000000 -1.077918 0.079762 0.000000 -0.891048 0.546602 0.000000 -0.570593 1.145694 0.000000 -0.238340 1.609666 0.000000 0.000000 1.769071 0.000000 0.238340 1.609666 0.000000 0.570593 1.145694 0.000000 0.891048 0.546602 0.000000 1.077918 0.079762 0.000000 1.142240 -0.232298 0.000000 1.089275 -0.430605 0.000000 0.983072 -0.516139 0.000000 0.840254 -0.526968 0.000000 0.693769 -0.494627 0.000000 0.549017 -0.445392 0.000000 0.419904 -0.390963 0.000000 0.303915 -0.339278 0.000000 0.208717 -0.292053 0.000000 0.126761 -0.256148 0.000000 0.060232 -0.230187 0.000000 
-0.000000 -0.158130 0.000000 -0.071274 -0.162475 0.000000 -0.147468 -0.178429 0.000000 -0.236825 -0.201217 0.000000 -0.337632 -0.231897 0.000000 -0.458587 -0.267017 0.000000 -0.592787 -0.306519 0.000000 -0.746829 -0.345456 0.000000 -0.908048 -0.377428 0.000000 -1.074976 -0.381972 0.000000 -1.218924 -0.336009 0.000000 -1.319240 -0.208440 0.000000 -1.325380 0.021322 0.000000 -1.224545 0.358179 0.000000 -0.940621 0.797578 0.000000 -0.489265 1.208397 0.000000 0.000000 1.380892 0.000000 0.489265 1.208397 0.000000 0.940621 0.797578 0.000000 1.224545 0.358179 0.000000 1.325380 0.021322 0.000000 1.319240 -0.208440 0.000000 1.218924 -0.336009 0.000000 1.074976 -0.381972 0.000000 0.908048 -0.377428 0.000000 0.746829 -0.345456 0.000000 0.592787 -0.306519 0.000000 0.458587 -0.267017 0.000000 0.337632 -0.231897 0.000000 0.236825 -0.201217 0.000000 0.147468 -0.178429 0.000000 0.071274 -0.162475 0.000000 
-0.000000 -0.080653 0.000000 -0.079065 -0.082719 0.000000 -0.162475 -0.090597 0.000000 -0.257494 -0.101888 0.000000 -0.363691 -0.117516 0.000000 -0.489390 -0.135809 0.000000 -0.630709 -0.157151 0.000000 -0.795910 -0.179365 0.000000 -0.976165 -0.198821 0.000000 -1.173337 -0.205264 0.000000 -1.358136 -0.186341 0.000000 -1.509346 -0.125841 0.000000 -1.566576 -0.014933 0.000000 -1.488024 0.161842 0.000000 -1.208397 0.410414 0.000000 -0.690446 0.669045 0.000000 0.000000 0.790541 0.000000 0.690446 0.669045 0.000000 1.208397 0.410414 0.000000 1.488024 0.161842 0.000000 1.566576 -0.014933 0.000000 1.509346 -0.125841 0.000000 1.358136 -0.186341 0.000000 1.173337 -0.205264 0.000000 0.976165 -0.198821 0.000000 0.795910 -0.179365 0.000000 0.630709 -0.157151 0.000000 0.489390 -0.135809 0.000000 0.363691 -0.117516 0.000000 0.257494 -0.101888 0.000000 0.162475 -0.090597 0.000000 0.079065 -0.082719 0.000000 
