# vtk DataFile Version 2.0
Comment goes here
ASCII

DATASET STRUCTURED_POINTS
FIELD FieldData 1
TIME 1 1 double
1.14000000
DIMENSIONS    32   32   1

ORIGIN    0.000   0.000   0.000
SPACING   0.03125 0.03125   1.000

POINT_DATA   1024
VECTORS u double

-0.000000 -0.000000 0.000000 0.038104 -0.000000 0.000000 0.062340 -0.000000 0.000000 0.049778 -0.000000 0.000000 0.006575 -0.000000 0.000000 -0.094215 -0.000000 0.000000 -0.219967 -0.000000 0.000000 -0.402799 -0.000000 0.000000 -0.576886 0.000000 0.000000 -0.786472 0.000000 0.000000 -0.934313 0.000000 0.000000 -1.084986 0.000000 0.000000 -1.113933 0.000000 0.000000 -1.087718 0.000000 0.000000 -0.874236 0.000000 0.000000 -0.507945 0.000000 0.000000 0.000000 0.000000 0.000000 0.507945 -0.000000 0.000000 0.874236 -0.000000 0.000000 1.087718 -0.000000 0.000000 1.113933 -0.000000 0.000000 1.084986 -0.000000 0.000000 0.934313 -0.000000 0.000000 0.786472 -0.000000 0.000000 0.576886 -0.000000 0.000000 0.402799 -0.000000 0.000000 0.219967 -0.000000 0.000000 0.094215 -0.000000 0.000000 -0.006575 -0.000000 0.000000 -0.049778 -0.000000 0.000000 -0.062340 -0.000000 0.000000 -0.038104 -0.000000 0.000000 
-0.000000 -0.038104 0.000000 0.046618 -0.031170 0.000000 0.079220 -0.005837 0.000000 0.076481 0.027882 0.000000 0.043439 0.071996 0.000000 -0.043044 0.113271 0.000000 -0.154295 0.154292 0.000000 -0.317099 0.178460 0.000000 -0.473904 0.191836 0.000000 -0.662214 0.178714 0.000000 -0.795432 0.149257 0.000000 -0.933699 0.089810 0.000000 -0.960850 0.001366 0.000000 -0.950515 -0.119849 0.000000 -0.770411 -0.289887 0.000000 -0.455132 -0.437118 0.000000 0.000000 -0.507945 0.000000 0.455132 -0.437118 0.000000 0.770411 -0.289887 0.000000 0.950515 -0.119849 0.000000 0.960850 0.001366 0.000000 0.933699 0.089810 0.000000 0.795432 0.149257 0.000000 0.662214 0.178714 0.000000 0.473904 0.191836 0.000000 0.317099 0.178460 0.000000 0.154295 0.154292 0.000000 0.043044 0.113271 0.000000 -0.043439 0.071996 0.000000 -0.076481 0.027882 0.000000 -0.079220 -0.005837 0.000000 -0.046618 -0.031170 0.000000 
-0.000000 -0.093237 0.000000 0.067737 -0.079220 0.000000 0.120960 -0.029863 0.000000 0.138920 0.035782 0.000000 0.128170 0.119525 0.000000 0.066639 0.197734 0.000000 -0.014743 0.274055 0.000000 -0.146705 0.319609 0.000000 -0.268491 0.345114 0.000000 -0.428439 0.321528 0.000000 -0.532711 0.271486 0.000000 -0.660820 0.165418 0.000000 -0.687576 0.016816 0.000000 -0.719312 -0.190440 0.000000 -0.603573 -0.495384 0.000000 -0.360492 -0.770411 0.000000 -0.000000 -0.910264 0.000000 0.360492 -0.770411 0.000000 0.603573 -0.495384 0.000000 0.719312 -0.190440 0.000000 0.687576 0.016816 0.000000 0.660820 0.165418 0.000000 0.532711 0.271486 0.000000 0.428439 0.321528 0.000000 0.268491 0.345114 0.000000 0.146705 0.319609 0.000000 0.014743 0.274055 0.000000 -0.066639 0.197734 0.000000 -0.128170 0.119525 0.000000 -0.138920 0.035782 0.000000 -0.120960 -0.029863 0.000000 -0.067737 -0.079220 0.000000 
-0.000000 -0.173579 0.000000 0.099878 -0.152130 0.000000 0.183842 -0.077020 0.000000 0.233536 0.020672 0.000000 0.254572 0.144277 0.000000 0.232590 0.256184 0.000000 0.194109 0.367636 0.000000 0.116893 0.432208 0.000000 0.048494 0.473570 0.000000 -0.051281 0.442934 0.000000 -0.106743 0.381638 0.000000 -0.198835 0.244674 0.000000 -0.207015 0.059858 0.000000 -0.296742 -0.203851 0.000000 -0.298670 -0.648707 0.000000 -0.210050 -1.040691 0.000000 -0.000000 -1.228928 0.000000 0.210050 -1.040691 0.000000 0.298670 -0.648707 0.000000 0.296742 -0.203851 0.000000 0.207015 0.059858 0.000000 0.198835 0.244674 0.000000 0.106743 0.381638 0.000000 0.051281 0.442934 0.000000 -0.048494 0.473570 0.000000 -0.116893 0.432208 0.000000 -0.194109 0.367636 0.000000 -0.232590 0.256184 0.000000 -0.254572 0.144277 0.000000 -0.233536 0.020672 0.000000 -0.183842 -0.077020 0.000000 -0.099878 -0.152130 0.000000 
-0.000000 -0.292993 0.000000 0.137295 -0.263062 0.000000 0.256066 -0.163521 0.000000 0.339573 -0.034949 0.000000 0.391962 0.120471 0.000000 0.405181 0.258197 0.000000 0.405484 0.389752 0.000000 0.371726 0.465224 0.000000 0.350668 0.513289 0.000000 0.289475 0.476766 0.000000 0.267832 0.419039 0.000000 0.180941 0.265690 0.000000 0.171634 0.114724 0.000000 -0.017678 -0.098785 0.000000 -0.103614 -0.582076 0.000000 -0.071454 -1.069080 0.000000 -0.000000 -1.330364 0.000000 0.071454 -1.069080 0.000000 0.103614 -0.582076 0.000000 0.017678 -0.098785 0.000000 -0.171634 0.114724 0.000000 -0.180941 0.265690 0.000000 -0.267832 0.419039 0.000000 -0.289475 0.476766 0.000000 -0.350668 0.513289 0.000000 -0.371726 0.465224 0.000000 -0.405484 0.389752 0.000000 -0.405181 0.258197 0.000000 -0.391962 0.120471 0.000000 -0.339573 -0.034949 0.000000 -0.256066 -0.163521 0.000000 -0.137295 -0.263062 0.000000 
-0.000000 -0.448169 0.000000 0.172089 -0.408195 0.000000 0.322825 -0.279298 0.000000 0.436952 -0.115224 0.000000 0.515965 0.078670 0.000000 0.560251 0.242662 0.000000 0.591848 0.401091 0.000000 0.603654 0.487024 0.000000 0.624513 0.555821 0.000000 0.626132 0.525770 0.000000 0.644301 0.490172 0.000000 0.618314 0.340872 0.000000 0.738112 0.258477 0.000000 0.551287 0.071397 0.000000 0.338279 -0.594931 0.000000 0.149958 -1.144305 0.000000 0.000000 -1.371835 0.000000 -0.149958 -1.144305 0.000000 -0.338279 -0.594931 0.000000 -0.551287 0.071397 0.000000 -0.738112 0.258477 0.000000 -0.618314 0.340872 0.000000 -0.644301 0.490172 0.000000 -0.626132 0.525770 0.000000 -0.624513 0.555821 0.000000 -0.603654 0.487024 0.000000 -0.591848 0.401091 0.000000 -0.560251 0.242662 0.000000 -0.515965 0.078670 0.000000 -0.436952 -0.115224 0.000000 -0.322825 -0.279298 0.000000 -0.172089 -0.408195 0.000000 
-0.000000 -0.637172 0.000000 0.201488 -0.585887 0.000000 0.377819 -0.428384 0.000000 0.518472 -0.228089 0.000000 0.616821 -0.002827 0.000000 0.686104 0.182314 0.000000 0.739510 0.346349 0.000000 0.781926 0.432559 0.000000 0.838228 0.490811 0.000000 0.873467 0.456977 0.000000 0.916772 0.426857 0.000000 0.951952 0.171879 0.000000 1.062441 0.181751 0.000000 0.667372 0.301047 0.000000 0.710805 -0.180747 0.000000 0.664441 -0.730801 0.000000 0.000000 -1.030448 0.000000 -0.664441 -0.730801 0.000000 -0.710805 -0.180747 0.000000 -0.667372 0.301047 0.000000 -1.062441 0.181751 0.000000 -0.951952 0.171879 0.000000 -0.916772 0.426857 0.000000 -0.873467 0.456977 0.000000 -0.838228 0.490811 0.000000 -0.781926 0.432559 0.000000 -0.739510 0.346349 0.000000 -0.686104 0.182314 0.000000 -0.616821 -0.002827 0.000000 -0.518472 -0.228089 0.000000 -0.377819 -0.428384 0.000000 -0.201488 -0.585887 0.000000 
0.000000 -0.851144 0.000000 0.212421 -0.786014 0.000000 0.397556 -0.596282 0.000000 0.547364 -0.354226 0.000000 0.652063 -0.088963 0.000000 0.731051 0.119973 0.000000 0.795481 0.305269 0.000000 0.859750 0.388306 0.000000 0.936973 0.464280 0.000000 1.035017 0.447226 0.000000 1.002152 0.411687 0.000000 1.217843 0.195203 0.000000 1.563782 0.543057 0.000000 1.983156 0.423033 0.000000 2.133676 -0.592001 0.000000 1.249401 -0.433500 0.000000 0.000000 -0.042953 0.000000 -1.249401 -0.433500 0.000000 -2.133676 -0.592001 0.000000 -1.983156 0.423033 0.000000 -1.563782 0.543057 0.000000 -1.217843 0.195203 0.000000 -1.002152 0.411687 0.000000 -1.035017 0.447226 0.000000 -0.936973 0.464280 0.000000 -0.859750 0.388306 0.000000 -0.795481 0.305269 0.000000 -0.731051 0.119973 0.000000 -0.652063 -0.088963 0.000000 -0.547364 -0.354226 0.000000 -0.397556 -0.596282 0.000000 -0.212421 -0.786014 0.000000 
0.000000 -1.062013 0.000000 0.208755 -0.983443 0.000000 0.387266 -0.763328 0.000000 0.539263 -0.482596 0.000000 0.638064 -0.186514 0.000000 0.730665 0.038896 0.000000 0.799014 0.217650 0.000000 0.891265 0.291067 0.000000 1.011700 0.315544 0.000000 1.107374 0.391798 0.000000 1.239397 0.244031 0.000000 1.856604 -0.389751 0.000000 1.951184 -0.583561 0.000000 2.019075 -0.268847 0.000000 1.171595 0.553008 0.000000 0.260017 1.402875 0.000000 0.000000 1.468354 0.000000 -0.260017 1.402875 0.000000 -1.171595 0.553008 0.000000 -2.019075 -0.268847 0.000000 -1.951184 -0.583561 0.000000 -1.856604 -0.389751 0.000000 -1.239397 0.244031 0.000000 -1.107374 0.391798 0.000000 -1.011700 0.315544 0.000000 -0.891265 0.291067 0.000000 -0.799014 0.217650 0.000000 -0.730665 0.038896 0.000000 -0.638064 -0.186514 0.000000 -0.539263 -0.482596 0.000000 -0.387266 -0.763328 0.000000 -0.208755 -0.983443 0.000000 
0.000000 -1.268654 0.000000 0.175495 -1.173280 0.000000 0.322339 -0.926790 0.000000 0.448858 -0.605024 0.000000 0.523121 -0.280365 0.000000 0.597578 -0.040976 0.000000 0.661248 0.144669 0.000000 0.742458 0.175620 0.000000 0.971788 0.248172 0.000000 1.021562 0.219529 0.000000 1.126253 -0.337543 0.000000 0.894913 -0.516585 0.000000 0.040177 0.380587 0.000000 -0.756790 1.202622 0.000000 -1.100173 1.167058 0.000000 -0.495135 0.738095 0.000000 -0.000000 0.477081 0.000000 0.495135 0.738095 0.000000 1.100173 1.167058 0.000000 0.756790 1.202622 0.000000 -0.040177 0.380587 0.000000 -0.894913 -0.516585 0.000000 -1.126253 -0.337543 0.000000 -1.021562 0.219529 0.000000 -0.971788 0.248172 0.000000 -0.742458 0.175620 0.000000 -0.661248 0.144669 0.000000 -0.597578 -0.040976 0.000000 -0.523121 -0.280365 0.000000 -0.448858 -0.605024 0.000000 -0.322339 -0.926790 0.000000 -0.175495 -1.173280 0.000000 
0.000000 -1.413003 0.000000 0.123458 -1.305782 0.000000 0.222384 -1.036691 0.000000 0.321023 -0.683379 0.000000 0.360371 -0.335234 0.000000 0.438659 -0.099231 0.000000 0.469432 0.072770 0.000000 0.604272 -0.019472 0.000000 0.700141 0.036440 0.000000 0.198517 0.237333 0.000000 0.006736 0.370681 0.000000 -0.392644 0.696326 0.000000 -0.747896 1.068142 0.000000 -0.518191 0.871503 0.000000 -0.034292 0.291353 0.000000 0.222347 0.302703 0.000000 -0.000000 0.478084 0.000000 -0.222347 0.302703 0.000000 0.034292 0.291353 0.000000 0.518191 0.871503 0.000000 0.747896 1.068142 0.000000 0.392644 0.696326 0.000000 -0.006736 0.370681 0.000000 -0.198517 0.237333 0.000000 -0.700141 0.036440 0.000000 -0.604272 -0.019472 0.000000 -0.469432 0.072770 0.000000 -0.438659 -0.099231 0.000000 -0.360371 -0.335234 0.000000 -0.321023 -0.683379 0.000000 -0.222384 -1.036691 0.000000 -0.123458 -1.305782 0.000000 
0.000000 -1.515571 0.000000 0.038948 -1.395664 0.000000 0.065188 -1.124355 0.000000 0.108031 -0.743012 0.000000 0.090242 -0.398000 0.000000 0.118030 -0.150037 0.000000 0.012922 -0.020944 0.000000 0.030167 -0.055089 0.000000 -0.352422 0.653927 0.000000 -0.911228 0.912934 0.000000 -0.410542 0.253617 0.000000 -0.387223 0.238048 0.000000 -0.386134 0.506133 0.000000 0.014813 0.489017 0.000000 0.139039 0.426520 0.000000 0.040190 0.703804 0.000000 -0.000000 0.921774 0.000000 -0.040190 0.703804 0.000000 -0.139039 0.426520 0.000000 -0.014813 0.489017 0.000000 0.386134 0.506133 0.000000 0.387223 0.238048 0.000000 0.410542 0.253617 0.000000 0.911228 0.912934 0.000000 0.352422 0.653927 0.000000 -0.030167 -0.055089 0.000000 -0.012922 -0.020944 0.000000 -0.118030 -0.150037 0.000000 -0.090242 -0.398000 0.000000 -0.108031 -0.743012 0.000000 -0.065188 -1.124355 0.000000 -0.038948 -1.395664 0.000000 
0.000000 -1.490900 0.000000 -0.066315 -1.370970 0.000000 -0.124321 -1.105773 0.000000 -0.139378 -0.708432 0.000000 -0.192975 -0.345233 0.000000 -0.167566 -0.021911 0.000000 -0.356890 0.160632 0.000000 -0.276217 0.345872 0.000000 -1.144905 0.977835 0.000000 -0.915435 0.295453 0.000000 0.117449 -0.153324 0.000000 -0.644749 0.671917 0.000000 -0.623453 0.666105 0.000000 -0.425478 0.346329 0.000000 -0.310694 0.265976 0.000000 -0.221553 0.441742 0.000000 0.000000 0.558463 0.000000 0.221553 0.441742 0.000000 0.310694 0.265976 0.000000 0.425478 0.346329 0.000000 0.623453 0.666105 0.000000 0.644749 0.671917 0.000000 -0.117449 -0.153324 0.000000 0.915435 0.295453 0.000000 1.144905 0.977835 0.000000 0.276217 0.345872 0.000000 0.356890 0.160632 0.000000 0.167566 -0.021911 0.000000 0.192975 -0.345233 0.000000 0.139378 -0.708432 0.000000 0.124321 -1.105773 0.000000 0.066315 -1.370970 0.000000 
0.000000 -1.382942 0.000000 -0.200871 -1.271343 0.000000 -0.365379 -1.051291 0.000000 -0.460019 -0.674357 0.000000 -0.530519 -0.369813 0.000000 -0.506649 0.013877 0.000000 -0.648273 0.087707 0.000000 -0.513769 0.732926 0.000000 -1.232237 1.293145 0.000000 -0.379916 -0.349421 0.000000 -0.173011 -0.017069 0.000000 -0.852543 0.978950 0.000000 -0.385791 0.286863 0.000000 -0.325806 0.176259 0.000000 -0.225620 0.222595 0.000000 -0.165990 0.393110 0.000000 0.000000 0.478667 0.000000 0.165990 0.393110 0.000000 0.225620 0.222595 0.000000 0.325806 0.176259 0.000000 0.385791 0.286863 0.000000 0.852543 0.978950 0.000000 0.173011 -0.017069 0.000000 0.379916 -0.349421 0.000000 1.232237 1.293145 0.000000 0.513769 0.732926 0.000000 0.648273 0.087707 0.000000 0.506649 0.013877 0.000000 0.530519 -0.369813 0.000000 0.460019 -0.674357 0.000000 0.365379 -1.051291 0.000000 0.200871 -1.271343 0.000000 
0.000000 -1.089159 0.000000 -0.369160 -1.005592 0.000000 -0.674085 -0.846625 0.000000 -0.916218 -0.543292 0.000000 -1.028839 -0.298602 0.000000 -1.130749 0.095842 0.000000 -1.110164 0.167752 0.000000 -1.228288 0.929836 0.000000 -0.997712 0.843982 0.000000 -0.236137 -0.763773 0.000000 -0.903259 0.319302 0.000000 -0.745111 0.884697 0.000000 -0.407840 0.139368 0.000000 -0.390415 0.186159 0.000000 -0.290368 0.106161 0.000000 -0.186701 0.216122 0.000000 0.000000 0.226482 0.000000 0.186701 0.216122 0.000000 0.290368 0.106161 0.000000 0.390415 0.186159 0.000000 0.407840 0.139368 0.000000 0.745111 0.884697 0.000000 0.903259 0.319302 0.000000 0.236137 -0.763773 0.000000 0.997712 0.843982 0.000000 1.228288 0.929836 0.000000 1.110164 0.167752 0.000000 1.130749 0.095842 0.000000 1.028839 -0.298602 0.000000 0.916218 -0.543292 0.000000 0.674085 -0.846625 0.000000 0.369160 -1.005592 0.000000 
0.000000 -0.644621 0.000000 -0.544580 -0.597258 0.000000 -1.005592 -0.504233 0.000000 -1.391205 -0.319604 0.000000 -1.548883 -0.155282 0.000000 -1.689807 0.095202 0.000000 -1.453041 0.185245 0.000000 -1.522055 0.620474 0.000000 -0.523205 0.300994 0.000000 -0.678072 -0.443874 0.000000 -1.286978 0.491906 0.000000 -0.358770 0.483531 0.000000 -0.402281 -0.067833 0.000000 -0.219402 0.058786 0.000000 -0.216122 0.018881 0.000000 -0.113241 0.102742 0.000000 0.000000 0.105265 0.000000 0.113241 0.102742 0.000000 0.216122 0.018881 0.000000 0.219402 0.058786 0.000000 0.402281 -0.067833 0.000000 0.358770 0.483531 0.000000 1.286978 0.491906 0.000000 0.678072 -0.443874 0.000000 0.523205 0.300994 0.000000 1.522055 0.620474 0.000000 1.453041 0.185245 0.000000 1.689807 0.095202 0.000000 1.548883 -0.155282 0.000000 1.391205 -0.319604 0.000000 1.005592 -0.504233 0.000000 0.544580 -0.597258 0.000000 
0.000000 0.000000 0.000000 -0.644621 0.000000 0.000000 -1.194516 -0.000000 0.000000 -1.653088 -0.000000 0.000000 -1.833724 -0.000000 0.000000 -1.963651 0.000000 0.000000 -1.643319 0.000000 0.000000 -1.593161 0.000000 0.000000 -0.402371 0.000000 0.000000 -0.991172 -0.000000 0.000000 -1.290118 0.000000 0.000000 -0.007361 0.000000 0.000000 -0.323056 0.000000 0.000000 -0.143027 0.000000 0.000000 -0.205484 0.000000 0.000000 -0.105265 -0.000000 0.000000 -0.000000 -0.000000 0.000000 0.105265 -0.000000 0.000000 0.205484 -0.000000 0.000000 0.143027 -0.000000 0.000000 0.323056 -0.000000 0.000000 0.007361 0.000000 0.000000 1.290118 0.000000 0.000000 0.991172 0.000000 0.000000 0.402371 -0.000000 0.000000 1.593161 -0.000000 0.000000 1.643319 -0.000000 0.000000 1.963651 -0.000000 0.000000 1.833724 0.000000 0.000000 1.653088 0.000000 0.000000 1.194516 0.000000 0.000000 0.644621 0.000000 0.000000 
-0.000000 0.644621 0.000000 -0.544580 0.597258 0.000000 -1.005592 0.504233 0.000000 -1.391205 0.319604 0.000000 -1.548883 0.155282 0.000000 -1.689807 -0.095202 0.000000 -1.453041 -0.185245 0.000000 -1.522055 -0.620474 0.000000 -0.523205 -0.300994 0.000000 -0.678072 0.443874 0.000000 -1.286978 -0.491906 0.000000 -0.358770 -0.483531 0.000000 -0.402281 0.067833 0.000000 -0.219402 -0.058786 0.000000 -0.216122 -0.018881 0.000000 -0.113241 -0.102742 0.000000 -0.000000 -0.105265 0.000000 0.113241 -0.102742 0.000000 0.216122 -0.018881 0.000000 0.219402 -0.058786 0.000000 0.402281 0.067833 0.000000 0.358770 -0.483531 0.000000 1.286978 -0.491906 0.000000 0.678072 0.443874 0.000000 0.523205 -0.300994 0.000000 1.522055 -0.620474 0.000000 1.453041 -0.185245 0.000000 1.689807 -0.095202 0.000000 1.548883 0.155282 0.000000 1.391205 0.319604 0.000000 1.005592 0.504233 0.000000 0.544580 0.597258 0.000000 
-0.000000 1.089159 0.000000 -0.369160 1.005592 0.000000 -0.674085 0.846625 0.000000 -0.916218 0.543292 0.000000 -1.028839 0.298602 0.000000 -1.130749 -0.095842 0.000000 -1.110164 -0.167752 0.000000 -1.228288 -0.929836 0.000000 -0.997712 -0.843982 0.000000 -0.236137 0.763773 0.000000 -0.903259 -0.319302 0.000000 -0.745111 -0.884697 0.000000 -0.407840 -0.139368 0.000000 -0.390415 -0.186159 0.000000 -0.290368 -0.106161 0.000000 -0.186701 -0.216122 0.000000 -0.000000 -0.226482 0.000000 0.186701 -0.216122 0.000000 0.290368 -0.106161 0.000000 0.390415 -0.186159 0.000000 0.407840 -0.139368 0.000000 0.745111 -0.884697 0.000000 0.903259 -0.319302 0.000000 0.236137 0.763773 0.000000 0.997712 -0.843982 0.000000 1.228288 -0.929836 0.000000 1.110164 -0.167752 0.000000 1.130749 -0.095842 0.000000 1.028839 0.298602 0.000000 0.916218 0.543292 0.000000 0.674085 0.846625 0.000000 0.369160 1.005592 0.000000 
-0.000000 1.382942 0.000000 -0.200871 1.271343 0.000000 -0.365379 1.051291 0.000000 -0.460019 0.674357 0.000000 -0.530519 0.369813 0.000000 -0.506649 -0.013877 0.000000 -0.648273 -0.087707 0.000000 -0.513769 -0.732926 0.000000 -1.232237 -1.293145 0.000000 -0.379916 0.349421 0.000000 -0.173011 0.017069 0.000000 -0.852543 -0.978950 0.000000 -0.385791 -0.286863 0.000000 -0.325806 -0.176259 0.000000 -0.225620 -0.222595 0.000000 -0.165990 -0.393110 0.000000 -0.000000 -0.478667 0.000000 0.165990 -0.393110 0.000000 0.225620 -0.222595 0.000000 0.325806 -0.176259 0.000000 0.385791 -0.286863 0.000000 0.852543 -0.978950 0.000000 0.173011 0.017069 0.000000 0.379916 0.349421 0.000000 1.232237 -1.293145 0.000000 0.513769 -0.732926 0.000000 0.648273 -0.087707 0.000000 0.506649 -0.013877 0.000000 0.530519 0.369813 0.000000 0.460019 0.674357 0.000000 0.365379 1.051291 0.000000 0.200871 1.271343 0.000000 
-0.000000 1.490900 0.000000 -0.066315 1.370970 0.000000 -0.124321 1.105773 0.000000 -0.139378 0.708432 0.000000 -0.192975 0.345233 0.000000 -0.167566 0.021911 0.000000 -0.356890 -0.160632 0.000000 -0.276217 -0.345872 0.000000 -1.144905 -0.977835 0.000000 -0.915435 -0.295453 0.000000 0.117449 0.153324 0.000000 -0.644749 -0.671917 0.000000 -0.623453 -0.666105 0.000000 -0.425478 -0.346329 0.000000 -0.310694 -0.265976 0.000000 -0.221553 -0.441742 0.000000 -0.000000 -0.558463 0.000000 0.221553 -0.441742 0.000000 0.310694 -0.265976 0.000000 0.425478 -0.346329 0.000000 0.623453 -0.666105 0.000000 0.644749 -0.671917 0.000000 -0.117449 0.153324 0.000000 0.915435 -0.295453 0.000000 1.144905 -0.977835 0.000000 0.276217 -0.345872 0.000000 0.356890 -0.160632 0.000000 0.167566 0.021911 0.000000 0.192975 0.345233 0.000000 0.139378 0.708432 0.000000 0.124321 1.105773 0.000000 0.066315 1.370970 0.000000 
-0.000000 1.515571 0.000000 0.038948 1.395664 0.000000 0.065188 1.124355 0.000000 0.108031 0.743012 0.000000 0.090242 0.398000 0.000000 0.118030 0.150037 0.000000 0.012922 0.020944 0.000000 0.030167 0.055089 0.000000 -0.352422 -0.653927 0.000000 -0.911228 -0.912934 0.000000 -0.410542 -0.253617 0.000000 -0.387223 -0.238048 0.000000 -0.386134 -0.506133 0.000000 0.014813 -0.489017 0.000000 0.139039 -0.426520 0.000000 0.040190 -0.703804 0.000000 0.000000 -0.921774 0.000000 -0.040190 -0.703804 0.000000 -0.139039 -0.426520 0.000000 -0.014813 -0.489017 0.000000 0.386134 -0.506133 0.000000 0.387223 -0.238048 0.000000 0.410542 -0.253617 0.000000 0.911228 -0.912934 0.000000 0.352422 -0.653927 0.000000 -0.030167 0.055089 0.000000 -0.012922 0.020944 0.000000 -0.118030 0.150037 0.000000 -0.090242 0.398000 0.000000 -0.108031 0.743012 0.000000 -0.065188 1.124355 0.000000 -0.038948 1.395664 0.000000 
-0.000000 1.413003 0.000000 0.123458 1.305782 0.000000 0.222384 1.036691 0.000000 0.321023 0.683379 0.000000 0.360371 0.335234 0.000000 0.438659 0.099231 0.000000 0.469432 -0.072770 0.000000 0.604272 0.019472 0.000000 0.700141 -0.036440 0.000000 0.198517 -0.237333 0.000000 0.006736 -0.370681 0.000000 -0.392644 -0.696326 0.000000 -0.747896 -1.068142 0.000000 -0.518191 -0.871503 0.000000 -0.034292 -0.291353 0.000000 0.222347 -0.302703 0.000000 0.000000 -0.478084 0.000000 -0.222347 -0.302703 0.000000 0.034292 -0.291353 0.000000 0.518191 -0.871503 0.000000 0.747896 -1.068142 0.000000 0.392644 -0.696326 0.000000 -0.006736 -0.370681 0.000000 -0.198517 -0.237333 0.000000 -0.700141 -0.036440 0.000000 -0.604272 0.019472 0.000000 -0.469432 -0.072770 0.000000 -0.438659 0.099231 0.000000 -0.360371 0.335234 0.000000 -0.321023 0.683379 0.000000 -0.222384 1.036691 0.000000 -0.123458 1.305782 0.000000 
-0.000000 1.268654 0.000000 0.175495 1.173280 0.000000 0.322339 0.926790 0.000000 0.448858 0.605024 0.000000 0.523121 0.280365 0.000000 0.597578 0.040976 0.000000 0.661248 -0.144669 0.000000 0.742458 -0.175620 0.000000 0.971788 -0.248172 0.000000 1.021562 -0.219529 0.000000 1.126253 0.337543 0.000000 0.894913 0.516585 0.000000 0.040177 -0.380587 0.000000 -0.756790 -1.202622 0.000000 -1.100173 -1.167058 0.000000 -0.495135 -0.738095 0.000000 0.000000 -0.477081 0.000000 0.495135 -0.738095 0.000000 1.100173 -1.167058 0.000000 0.756790 -1.202622 0.000000 -0.040177 -0.380587 0.000000 -0.894913 0.516585 0.000000 -1.126253 0.337543 0.000000 -1.021562 -0.219529 0.000000 -0.971788 -0.248172 0.000000 -0.742458 -0.175620 0.000000 -0.661248 -0.144669 0.000000 -0.597578 0.040976 0.000000 -0.523121 0.280365 0.000000 -0.448858 0.605024 0.000000 -0.322339 0.926790 0.000000 -0.175495 1.173280 0.000000 
-0.000000 1.062013 0.000000 0.208755 0.983443 0.000000 0.387266 0.763328 0.000000 0.539263 0.482596 0.000000 0.638064 0.186514 0.000000 0.730665 -0.038896 0.000000 0.799014 -0.217650 0.000000 0.891265 -0.291067 0.000000 1.011700 -0.315544 0.000000 1.107374 -0.391798 0.000000 1.239397 -0.244031 0.000000 1.856604 0.389751 0.000000 1.951184 0.583561 0.000000 2.019075 0.268847 0.000000 1.171595 -0.553008 0.000000 0.260017 -1.402875 0.000000 -0.000000 -1.468354 0.000000 -0.260017 -1.402875 0.000000 -1.171595 -0.553008 0.000000 -2.019075 0.268847 0.000000 -1.951184 0.583561 0.000000 -1.856604 0.389751 0.000000 -1.239397 -0.244031 0.000000 -1.107374 -0.391798 0.000000 -1.011700 -0.315544 0.000000 -0.891265 -0.291067 0.000000 -0.799014 -0.217650 0.000000 -0.730665 -0.038896 0.000000 -0.638064 0.186514 0.000000 -0.539263 0.482596 0.000000 -0.387266 0.763328 0.000000 -0.208755 0.983443 0.000000 
-0.000000 0.851144 0.000000 0.212421 0.786014 0.000000 0.397556 0.596282 0.000000 0.547364 0.354226 0.000000 0.652063 0.088963 0.000000 0.731051 -0.119973 0.000000 0.795481 -0.305269 0.000000 0.859750 -0.388306 0.000000 0.936973 -0.464280 0.000000 1.035017 -0.447226 0.000000 1.002152 -0.411687 0.000000 1.217843 -0.195203 0.000000 1.563782 -0.543057 0.000000 1.983156 -0.423033 0.000000 2.133676 0.592001 0.000000 1.249401 0.433500 0.000000 -0.000000 0.042953 0.000000 -1.249401 0.433500 0.000000 -2.133676 0.592001 0.000000 -1.983156 -0.423033 0.000000 -1.563782 -0.543057 0.000000 -1.217843 -0.195203 0.000000 -1.002152 -0.411687 0.000000 -1.035017 -0.447226 0.000000 -0.936973 -0.464280 0.000000 -0.859750 -0.388306 0.000000 -0.795481 -0.305269 0.000000 -0.731051 -0.119973 0.000000 -0.652063 0.088963 0.000000 -0.547364 0.354226 0.000000 -0.397556 0.596282 0.000000 -0.212421 0.786014 0.000000 
-0.000000 0.637172 0.000000 0.201488 0.585887 0.000000 0.377819 0.428384 0.000000 0.518472 0.228089 0.000000 0.616821 0.002827 0.000000 0.686104 -0.182314 0.000000 0.739510 -0.346349 0.000000 0.781926 -0.432559 0.000000 0.838228 -0.490811 0.000000 0.873467 -0.456977 0.000000 0.916772 -0.426857 0.000000 0.951952 -0.171879 0.000000 1.062441 -0.181751 0.000000 0.667372 -0.301047 0.000000 0.710805 0.180747 0.000000 0.664441 0.730801 0.000000 -0.000000 1.030448 0.000000 -0.664441 0.730801 0.000000 -0.710805 0.180747 0.000000 -0.667372 -0.301047 0.000000 -1.062441 -0.181751 0.000000 -0.951952 -0.171879 0.000000 -0.916772 -0.426857 0.000000 -0.873467 -0.456977 0.000000 -0.838228 -0.490811 0.000000 -0.781926 -0.432559 0.000000 -0.739510 -0.346349 0.000000 -0.686104 -0.182314 0.000000 -0.616821 0.002827 0.000000 -0.518472 0.228089 0.000000 -0.377819 0.428384 0.000000 -0.201488 0.585887 0.000000 
-0.000000 0.448169 0.000000 0.172089 0.408195 0.000000 0.322825 0.279298 0.000000 0.436952 0.115224 0.000000 0.515965 -0.078670 0.000000 0.560251 -0.242662 0.000000 0.591848 -0.401091 0.000000 0.603654 -0.487024 0.000000 0.624513 -0.555821 0.000000 0.626132 -0.525770 0.000000 0.644301 -0.490172 0.000000 0.618314 -0.340872 0.000000 0.738112 -0.258477 0.000000 0.551287 -0.071397 0.000000 0.338279 0.594931 0.000000 0.149958 1.144305 0.000000 -0.000000 1.371835 0.000000 -0.149958 1.144305 0.000000 -0.338279 0.594931 0.000000 -0.551287 -0.071397 0.000000 -0.738112 -0.258477 0.000000 -0.618314 -0.340872 0.000000 -0.644301 -0.490172 0.000000 -0.626132 -0.525770 0.000000 -0.624513 -0.555821 0.000000 -0.603654 -0.487024 0.000000 -0.591848 -0.401091 0.000000 -0.560251 -0.242662 0.000000 -0.515965 -0.078670 0.000000 -0.436952 0.115224 0.000000 -0.322825 0.279298 0.000000 -0.172089 0.408195 0.000000 
-0.000000 0.292993 0.000000 0.137295 0.263062 0.000000 0.256066 0.163521 0.000000 0.339573 0.034949 0.000000 0.391962 -0.120471 0.000000 0.405181 -0.258197 0.000000 0.405484 -0.389752 0.000000 0.371726 -0.465224 0.000000 0.350668 -0.513289 0.000000 0.289475 -0.476766 0.000000 0.267832 -0.419039 0.000000 0.180941 -0.265690 0.000000 0.171634 -0.114724 0.000000 -0.017678 0.098785 0.000000 -0.103614 0.582076 0.000000 -0.071454 1.069080 0.000000 0.000000 1.330364 0.000000 0.071454 1.069080 0.000000 0.103614 0.582076 0.000000 0.017678 0.098785 0.000000 -0.171634 -0.114724 0.000000 -0.180941 -0.265690 0.000000 -0.267832 -0.419039 0.000000 -0.289475 -0.476766 0.000000 -0.350668 -0.513289 0.000000 -0.371726 -0.465224 0.000000 -0.405484 -0.389752 0.000000 -0.405181 -0.258197 0.000000 -0.391962 -0.120471 0.000000 -0.339573 0.034949 0.000000 -0.256066 0.163521 0.000000 -0.137295 0.263062 0.000000 
-0.000000 0.173579 0.000000 0.099878 0.152130 0.000000 0.183842 0.077020 0.000000 0.233536 -0.020672 0.000000 0.254572 -0.144277 0.000000 0.232590 -0.256184 0.000000 0.194109 -0.367636 0.000000 0.116893 -0.432208 0.000000 0.048494 -0.473570 0.000000 -0.051281 -0.442934 0.000000 -0.106743 -0.381638 0.000000 -0.198835 -0.244674 0.000000 -0.207015 -0.059858 0.000000 -0.296742 0.203851 0.000000 -0.298670 0.648707 0.000000 -0.210050 1.040691 0.000000 0.000000 1.228928 0.000000 0.210050 1.040691 0.000000 0.298670 0.648707 0.000000 0.296742 0.203851 0.000000 0.207015 -0.059858 0.000000 0.198835 -0.244674 0.000000 0.106743 -0.381638 0.000000 0.051281 -0.442934 0.000000 -0.048494 -0.473570 0.000000 -0.116893 -0.432208 0.000000 -0.194109 -0.367636 0.000000 -0.232590 -0.256184 0.000000 -0.254572 -0.144277 0.000000 -0.233536 -0.020672 0.000000 -0.183842 0.077020 0.000000 -0.099878 0.152130 0.000000 
-0.000000 0.093237 0.000000 0.067737 0.079220 0.000000 0.120960 0.029863 0.000000 0.138920 -0.035782 0.000000 0.128170 -0.119525 0.000000 0.066639 -0.197734 0.000000 -0.014743 -0.274055 0.000000 -0.146705 -0.319609 0.000000 -0.268491 -0.345114 0.000000 -0.428439 -0.321528 0.000000 -0.532711 -0.271486 0.000000 -0.660820 -0.165418 0.000000 -0.687576 -0.016816 0.000000 -0.719312 0.190440 0.000000 -0.603573 0.495384 0.000000 -0.360492 0.770411 0.000000 0.000000 0.910264 0.000000 0.360492 0.770411 0.000000 0.603573 0.495384 0.000000 0.719312 0.190440 0.000000 0.687576 -0.016816 0.000000 0.660820 -0.165418 0.000000 0.532711 -0.271486 0.000000 0.428439 -0.321528 0.000000 0.268491 -0.345114 0.000000 0.146705 -0.319609 0.000000 0.014743 -0.274055 0.000000 -0.066639 -0.197734 0.000000 -0.128170 -0.119525 0.000000 -0.138920 -0.035782 0.000000 -0.120960 0.029863 0.000000 -0.067737 0.079220 0.000000 
-0.000000 0.038104 0.000000 0.046618 0.031170 0.000000 0.079220 0.005837 0.000000 0.076481 -0.027882 0.000000 0.043439 -0.071996 0.000000 -0.043044 -0.113271 0.000000 -0.154295 -0.154292 0.000000 -0.317099 -0.178460 0.000000 -0.473904 -0.191836 0.000000 -0.662214 -0.178714 0.000000 -0.795432 -0.149257 0.000000 -0.933699 -0.089810 0.000000 -0.960850 -0.001366 0.000000 -0.950515 0.119849 0.000000 -0.770411 0.289887 0.000000 -0.455132 0.437118 0.000000 0.000000 0.507945 0.000000 0.455132 0.437118 0.000000 0.770411 0.289887 0.000000 0.950515 0.119849 0.000000 0.960850 -0.001366 0.000000 0.933699 -0.089810 0.000000 0.795432 -0.149257 0.000000 0.662214 -0.178714 0.000000 0.473904 -0.191836 0.000000 0.317099 -0.178460 0.000000 0.154295 -0.154292 0.000000 0.043044 -0.113271 0.000000 -0.043439 -0.071996 0.000000 -0.076481 -0.027882 0.000000 -0.079220 0.005837 0.000000 -0.046618 0.031170 0.000000 
