# vtk DataFile Version 2.0
Comment goes here
ASCII

DATASET STRUCTURED_POINTS
FIELD FieldData 1
TIME 1 1 double
0.20000000
DIMENSIONS    32   32   1

ORIGIN    0.000   0.000   0.000
SPACING   0.03125 0.03125   1.000

POINT_DATA   1024
VECTORS u double

0.000000 -0.000000 0.000000 0.169727 -0.000000 0.000000 0.339158 -0.000000 0.000000 0.509043 -0.000000 0.000000 0.675014 -0.000000 0.000000 0.838543 -0.000000 0.000000 0.983261 -0.000000 0.000000 1.114680 -0.000000 0.000000 1.190216 -0.000000 0.000000 1.227301 -0.000000 0.000000 1.149264 -0.000000 0.000000 0.981405 -0.000000 0.000000 0.663335 0.000000 0.000000 0.250143 -0.000000 0.000000 -0.123198 0.000000 0.000000 -0.376829 -0.000000 0.000000 -0.000000 -0.000000 0.000000 0.376829 0.000000 0.000000 0.123198 -0.000000 0.000000 -0.250143 0.000000 0.000000 -0.663335 0.000000 0.000000 -0.981405 0.000000 0.000000 -1.149264 0.000000 0.000000 -1.227301 0.000000 0.000000 -1.190216 -0.000000 0.000000 -1.114680 0.000000 0.000000 -0.983261 -0.000000 0.000000 -0.838543 0.000000 0.000000 -0.675014 -0.000000 0.000000 -0.509043 0.000000 0.000000 -0.339158 -0.000000 0.000000 -0.169727 -0.000000 0.000000 
0.000000 -0.169727 0.000000 0.171299 -0.169579 0.000000 0.342522 -0.169658 0.000000 0.515354 -0.167928 0.000000 0.685350 -0.164750 0.000000 0.855209 -0.154124 0.000000 1.009251 -0.138068 0.000000 1.152926 -0.103477 0.000000 1.246476 -0.056310 0.000000 1.303214 0.020476 0.000000 1.253338 0.122948 0.000000 1.097778 0.242964 0.000000 0.800570 0.365631 0.000000 0.342014 0.393266 0.000000 -0.087685 0.313486 0.000000 -0.353603 -0.061599 0.000000 -0.000000 -0.376829 0.000000 0.353603 -0.061599 0.000000 0.087685 0.313486 0.000000 -0.342014 0.393266 0.000000 -0.800570 0.365631 0.000000 -1.097778 0.242964 0.000000 -1.253338 0.122948 0.000000 -1.303214 0.020476 0.000000 -1.246476 -0.056310 0.000000 -1.152926 -0.103477 0.000000 -1.009251 -0.138068 0.000000 -0.855209 -0.154124 0.000000 -0.685350 -0.164750 0.000000 -0.515354 -0.167928 0.000000 -0.342522 -0.169658 0.000000 -0.171299 -0.169579 0.000000 
0.000000 -0.342599 0.000000 0.169865 -0.342522 0.000000 0.340898 -0.344055 0.000000 0.514126 -0.342828 0.000000 0.688851 -0.339855 0.000000 0.865131 -0.323901 0.000000 1.033348 -0.297717 0.000000 1.195052 -0.237225 0.000000 1.312566 -0.150288 0.000000 1.405344 -0.006862 0.000000 1.379770 0.205437 0.000000 1.263096 0.452768 0.000000 0.907836 0.755764 0.000000 0.423487 0.888256 0.000000 -0.157350 0.695616 0.000000 -0.477474 -0.087685 0.000000 -0.000000 -0.707206 0.000000 0.477474 -0.087685 0.000000 0.157350 0.695616 0.000000 -0.423487 0.888256 0.000000 -0.907836 0.755764 0.000000 -1.263096 0.452768 0.000000 -1.379770 0.205437 0.000000 -1.405344 -0.006862 0.000000 -1.312566 -0.150288 0.000000 -1.195052 -0.237225 0.000000 -1.033348 -0.297717 0.000000 -0.865131 -0.323901 0.000000 -0.688851 -0.339855 0.000000 -0.514126 -0.342828 0.000000 -0.340898 -0.344055 0.000000 -0.169865 -0.342522 0.000000 
0.000000 -0.509456 0.000000 0.169974 -0.510478 0.000000 0.342364 -0.513919 0.000000 0.519767 -0.515881 0.000000 0.703917 -0.515755 0.000000 0.896177 -0.498621 0.000000 1.092430 -0.467990 0.000000 1.293647 -0.382695 0.000000 1.467583 -0.266602 0.000000 1.648261 -0.046728 0.000000 1.722802 0.265195 0.000000 1.743962 0.714898 0.000000 1.489166 1.205240 0.000000 0.829966 1.458453 0.000000 0.167645 1.214447 0.000000 0.140191 -0.218949 0.000000 -0.000000 -1.331777 0.000000 -0.140191 -0.218949 0.000000 -0.167645 1.214447 0.000000 -0.829966 1.458453 0.000000 -1.489166 1.205240 0.000000 -1.743962 0.714898 0.000000 -1.722802 0.265195 0.000000 -1.648261 -0.046728 0.000000 -1.467583 -0.266602 0.000000 -1.293647 -0.382695 0.000000 -1.092430 -0.467990 0.000000 -0.896177 -0.498621 0.000000 -0.703917 -0.515755 0.000000 -0.519767 -0.515881 0.000000 -0.342364 -0.513919 0.000000 -0.169974 -0.510478 0.000000 
0.000000 -0.682546 0.000000 0.165568 -0.684886 0.000000 0.335639 -0.693848 0.000000 0.512242 -0.704380 0.000000 0.704380 -0.716265 0.000000 0.908368 -0.712414 0.000000 1.137082 -0.695188 0.000000 1.375740 -0.612378 0.000000 1.623634 -0.504901 0.000000 1.909966 -0.262081 0.000000 2.131889 0.109735 0.000000 2.218450 0.686404 0.000000 1.942498 1.669760 0.000000 1.810757 2.209776 0.000000 2.371864 1.385392 0.000000 2.037334 0.079960 0.000000 -0.000000 -0.426825 0.000000 -2.037334 0.079960 0.000000 -2.371864 1.385392 0.000000 -1.810757 2.209776 0.000000 -1.942498 1.669760 0.000000 -2.218450 0.686404 0.000000 -2.131889 0.109735 0.000000 -1.909966 -0.262081 0.000000 -1.623634 -0.504901 0.000000 -1.375740 -0.612378 0.000000 -1.137082 -0.695188 0.000000 -0.908368 -0.712414 0.000000 -0.704380 -0.716265 0.000000 -0.512242 -0.704380 0.000000 -0.335639 -0.693848 0.000000 -0.165568 -0.684886 0.000000 
0.000000 -0.840593 0.000000 0.158780 -0.846116 0.000000 0.322651 -0.860593 0.000000 0.495734 -0.884622 0.000000 0.689180 -0.911881 0.000000 0.901304 -0.931322 0.000000 1.154872 -0.935362 0.000000 1.428137 -0.869248 0.000000 1.783806 -0.800829 0.000000 2.226503 -0.554983 0.000000 2.573300 -0.043289 0.000000 2.737591 0.904290 0.000000 3.145987 1.612934 0.000000 3.605370 1.029087 0.000000 3.309128 0.987870 0.000000 1.764453 2.152915 0.000000 0.000000 2.742891 0.000000 -1.764453 2.152915 0.000000 -3.309128 0.987870 0.000000 -3.605370 1.029087 0.000000 -3.145987 1.612934 0.000000 -2.737591 0.904290 0.000000 -2.573300 -0.043289 0.000000 -2.226503 -0.554983 0.000000 -1.783806 -0.800829 0.000000 -1.428137 -0.869248 0.000000 -1.154872 -0.935362 0.000000 -0.901304 -0.931322 0.000000 -0.689180 -0.911881 0.000000 -0.495734 -0.884622 0.000000 -0.322651 -0.860593 0.000000 -0.158780 -0.846116 0.000000 
0.000000 -1.000105 0.000000 0.145325 -1.007537 0.000000 0.295566 -1.030802 0.000000 0.454687 -1.070910 0.000000 0.638204 -1.121835 0.000000 0.841230 -1.178106 0.000000 1.111209 -1.222020 0.000000 1.405780 -1.241312 0.000000 1.996657 -1.303268 0.000000 2.503440 -1.051575 0.000000 2.774791 -0.401353 0.000000 2.845422 0.113716 0.000000 2.495994 0.801982 0.000000 1.566591 2.046636 0.000000 0.287837 3.226308 0.000000 -0.188509 3.389088 0.000000 -0.000000 3.102082 0.000000 0.188509 3.389088 0.000000 -0.287837 3.226308 0.000000 -1.566591 2.046636 0.000000 -2.495994 0.801982 0.000000 -2.845422 0.113716 0.000000 -2.774791 -0.401353 0.000000 -2.503440 -1.051575 0.000000 -1.996657 -1.303268 0.000000 -1.405780 -1.241312 0.000000 -1.111209 -1.222020 0.000000 -0.841230 -1.178106 0.000000 -0.638204 -1.121835 0.000000 -0.454687 -1.070910 0.000000 -0.295566 -1.030802 0.000000 -0.145325 -1.007537 0.000000 
0.000000 -1.131243 0.000000 0.126886 -1.141683 0.000000 0.254064 -1.169954 0.000000 0.387080 -1.227260 0.000000 0.534537 -1.298425 0.000000 0.705552 -1.404327 0.000000 0.949266 -1.499912 0.000000 1.278796 -1.754696 0.000000 2.074299 -1.898488 0.000000 2.130361 -1.333117 0.000000 1.459845 -0.385271 0.000000 0.287754 1.183087 0.000000 -1.232654 2.891764 0.000000 -1.967854 3.237243 0.000000 -1.399770 2.742970 0.000000 -0.407599 2.440752 0.000000 -0.000000 2.365873 0.000000 0.407599 2.440752 0.000000 1.399770 2.742970 0.000000 1.967854 3.237243 0.000000 1.232654 2.891764 0.000000 -0.287754 1.183087 0.000000 -1.459845 -0.385271 0.000000 -2.130361 -1.333117 0.000000 -2.074299 -1.898488 0.000000 -1.278796 -1.754696 0.000000 -0.949266 -1.499912 0.000000 -0.705552 -1.404327 0.000000 -0.534537 -1.298425 0.000000 -0.387080 -1.227260 0.000000 -0.254064 -1.169954 0.000000 -0.126886 -1.141683 0.000000 
0.000000 -1.253878 0.000000 0.102668 -1.261601 0.000000 0.195905 -1.290996 0.000000 0.285963 -1.351382 0.000000 0.370511 -1.440307 0.000000 0.498613 -1.592835 0.000000 0.687494 -1.795264 0.000000 1.132983 -2.366346 0.000000 1.658809 -2.154832 0.000000 0.812947 -0.437121 0.000000 -0.721768 1.441254 0.000000 -2.232796 2.806215 0.000000 -2.278653 3.057590 0.000000 -1.165012 2.213752 0.000000 -0.367279 1.666054 0.000000 0.002583 1.989318 0.000000 -0.000000 2.286883 0.000000 -0.002583 1.989318 0.000000 0.367279 1.666054 0.000000 1.165012 2.213752 0.000000 2.278653 3.057590 0.000000 2.232796 2.806215 0.000000 0.721768 1.441254 0.000000 -0.812947 -0.437121 0.000000 -1.658809 -2.154832 0.000000 -1.132983 -2.366346 0.000000 -0.687494 -1.795264 0.000000 -0.498613 -1.592835 0.000000 -0.370511 -1.440307 0.000000 -0.285963 -1.351382 0.000000 -0.195905 -1.290996 0.000000 -0.102668 -1.261601 0.000000 
-0.000000 -1.336580 0.000000 0.079580 -1.337587 0.000000 0.134711 -1.353248 0.000000 0.168884 -1.401866 0.000000 0.173045 -1.511075 0.000000 0.254029 -1.721310 0.000000 0.343461 -2.134282 0.000000 0.833090 -2.726011 0.000000 0.318181 -1.578452 0.000000 -0.987594 1.047460 0.000000 -2.095460 2.660472 0.000000 -2.302567 2.739972 0.000000 -1.409037 1.823980 0.000000 -0.235909 1.325869 0.000000 -0.039326 1.575375 0.000000 -0.011487 2.073473 0.000000 0.000000 2.371039 0.000000 0.011487 2.073473 0.000000 0.039326 1.575375 0.000000 0.235909 1.325869 0.000000 1.409037 1.823980 0.000000 2.302567 2.739972 0.000000 2.095460 2.660472 0.000000 0.987594 1.047460 0.000000 -0.318181 -1.578452 0.000000 -0.833090 -2.726011 0.000000 -0.343461 -2.134282 0.000000 -0.254029 -1.721310 0.000000 -0.173045 -1.511075 0.000000 -0.168884 -1.401866 0.000000 -0.134711 -1.353248 0.000000 -0.079580 -1.337587 0.000000 
-0.000000 -1.413037 0.000000 0.059510 -1.396312 0.000000 0.075295 -1.380301 0.000000 0.034798 -1.389716 0.000000 -0.047745 -1.525452 0.000000 -0.073270 -1.763251 0.000000 -0.105196 -2.374325 0.000000 -0.018240 -2.341066 0.000000 -1.350582 -0.334149 0.000000 -2.172835 1.976520 0.000000 -2.484946 2.756226 0.000000 -2.100703 2.119793 0.000000 -1.176112 0.990933 0.000000 -0.643684 0.844041 0.000000 -0.429005 1.441632 0.000000 -0.216865 1.949992 0.000000 0.000000 2.263908 0.000000 0.216865 1.949992 0.000000 0.429005 1.441632 0.000000 0.643684 0.844041 0.000000 1.176112 0.990933 0.000000 2.100703 2.119793 0.000000 2.484946 2.756226 0.000000 2.172835 1.976520 0.000000 1.350582 -0.334149 0.000000 0.018240 -2.341066 0.000000 0.105196 -2.374325 0.000000 0.073270 -1.763251 0.000000 0.047745 -1.525452 0.000000 -0.034798 -1.389716 0.000000 -0.075295 -1.380301 0.000000 -0.059510 -1.396312 0.000000 
-0.000000 -1.455600 0.000000 0.041011 -1.412882 0.000000 0.025863 -1.328537 0.000000 -0.099718 -1.278826 0.000000 -0.245362 -1.403006 0.000000 -0.448001 -1.663859 0.000000 -0.538103 -2.189312 0.000000 -1.058773 -1.480625 0.000000 -1.934495 0.576143 0.000000 -2.103325 2.181824 0.000000 -2.234418 2.588341 0.000000 -1.867135 1.431138 0.000000 -1.259336 0.366961 0.000000 -1.133304 0.578761 0.000000 -0.812960 1.148556 0.000000 -0.445752 1.644469 0.000000 0.000000 1.937310 0.000000 0.445752 1.644469 0.000000 0.812960 1.148556 0.000000 1.133304 0.578761 0.000000 1.259336 0.366961 0.000000 1.867135 1.431138 0.000000 2.234418 2.588341 0.000000 2.103325 2.181824 0.000000 1.934495 0.576143 0.000000 1.058773 -1.480625 0.000000 0.538103 -2.189312 0.000000 0.448001 -1.663859 0.000000 0.245362 -1.403006 0.000000 0.099718 -1.278826 0.000000 -0.025863 -1.328537 0.000000 -0.041011 -1.412882 0.000000 
-0.000000 -1.495059 0.000000 0.003360 -1.422175 0.000000 -0.055352 -1.239572 0.000000 -0.245137 -1.118491 0.000000 -0.446669 -1.177169 0.000000 -0.790595 -1.470510 0.000000 -0.989722 -1.763552 0.000000 -1.724227 -0.944674 0.000000 -2.018152 0.710403 0.000000 -1.968879 2.276442 0.000000 -2.008986 2.520036 0.000000 -1.543484 1.144711 0.000000 -1.353374 0.257101 0.000000 -1.298897 0.397665 0.000000 -0.974860 0.754080 0.000000 -0.557831 1.137031 0.000000 0.000000 1.372404 0.000000 0.557831 1.137031 0.000000 0.974860 0.754080 0.000000 1.298897 0.397665 0.000000 1.353374 0.257101 0.000000 1.543484 1.144711 0.000000 2.008986 2.520036 0.000000 1.968879 2.276442 0.000000 2.018152 0.710403 0.000000 1.724227 -0.944674 0.000000 0.989722 -1.763552 0.000000 0.790595 -1.470510 0.000000 0.446669 -1.177169 0.000000 0.245137 -1.118491 0.000000 0.055352 -1.239572 0.000000 -0.003360 -1.422175 0.000000 
0.000000 -1.462319 0.000000 -0.104525 -1.357530 0.000000 -0.256291 -1.080040 0.000000 -0.495977 -0.887508 0.000000 -0.774195 -0.857548 0.000000 -1.209558 -1.120806 0.000000 -1.563756 -1.255681 0.000000 -2.179638 -0.452195 0.000000 -2.496299 0.820795 0.000000 -2.321084 2.172658 0.000000 -1.772916 2.162945 0.000000 -1.245643 0.775526 0.000000 -1.143924 0.122374 0.000000 -1.070834 0.200247 0.000000 -0.823591 0.407490 0.000000 -0.486605 0.669609 0.000000 0.000000 0.821648 0.000000 0.486605 0.669609 0.000000 0.823591 0.407490 0.000000 1.070834 0.200247 0.000000 1.143924 0.122374 0.000000 1.245643 0.775526 0.000000 1.772916 2.162945 0.000000 2.321084 2.172658 0.000000 2.496299 0.820795 0.000000 2.179638 -0.452195 0.000000 1.563756 -1.255681 0.000000 1.209558 -1.120806 0.000000 0.774195 -0.857548 0.000000 0.495977 -0.887508 0.000000 0.256291 -1.080040 0.000000 0.104525 -1.357530 0.000000 
0.000000 -1.286010 0.000000 -0.323390 -1.165883 0.000000 -0.649927 -0.848119 0.000000 -0.957774 -0.600588 0.000000 -1.286023 -0.463588 0.000000 -1.651551 -0.680948 0.000000 -2.044065 -0.793473 0.000000 -2.445912 -0.012131 0.000000 -2.590158 0.851850 0.000000 -2.208169 1.553060 0.000000 -1.272343 1.444594 0.000000 -0.800304 0.515719 0.000000 -0.753310 0.082293 0.000000 -0.707457 0.077332 0.000000 -0.565043 0.169851 0.000000 -0.340592 0.313441 0.000000 0.000000 0.399195 0.000000 0.340592 0.313441 0.000000 0.565043 0.169851 0.000000 0.707457 0.077332 0.000000 0.753310 0.082293 0.000000 0.800304 0.515719 0.000000 1.272343 1.444594 0.000000 2.208169 1.553060 0.000000 2.590158 0.851850 0.000000 2.445912 -0.012131 0.000000 2.044065 -0.793473 0.000000 1.651551 -0.680948 0.000000 1.286023 -0.463588 0.000000 0.957774 -0.600588 0.000000 0.649927 -0.848119 0.000000 0.323390 -1.165883 0.000000 
0.000000 -0.815540 0.000000 -0.643005 -0.707604 0.000000 -1.165883 -0.445656 0.000000 -1.491124 -0.251412 0.000000 -1.766471 -0.163771 0.000000 -1.954712 -0.362764 0.000000 -2.447420 -0.461320 0.000000 -2.748185 0.093898 0.000000 -2.459551 0.583052 0.000000 -1.896335 0.854843 0.000000 -0.906491 0.755081 0.000000 -0.451741 0.256492 0.000000 -0.390772 0.029527 0.000000 -0.369448 0.011981 0.000000 -0.313441 0.040624 0.000000 -0.199597 0.104566 0.000000 0.000000 0.140465 0.000000 0.199597 0.104566 0.000000 0.313441 0.040624 0.000000 0.369448 0.011981 0.000000 0.390772 0.029527 0.000000 0.451741 0.256492 0.000000 0.906491 0.755081 0.000000 1.896335 0.854843 0.000000 2.459551 0.583052 0.000000 2.748185 0.093898 0.000000 2.447420 -0.461320 0.000000 1.954712 -0.362764 0.000000 1.766471 -0.163771 0.000000 1.491124 -0.251412 0.000000 1.165883 -0.445656 0.000000 0.643005 -0.707604 0.000000 
0.000000 0.000000 0.000000 -0.815540 0.000000 0.000000 -1.415207 0.000000 0.000000 -1.706852 0.000000 0.000000 -1.918032 -0.000000 0.000000 -2.034393 -0.000000 0.000000 -2.643560 -0.000000 0.000000 -2.957033 0.000000 0.000000 -2.455764 0.000000 0.000000 -1.790929 -0.000000 0.000000 -0.746077 -0.000000 0.000000 -0.280767 0.000000 0.000000 -0.233093 -0.000000 0.000000 -0.221712 -0.000000 0.000000 -0.209132 -0.000000 0.000000 -0.140465 -0.000000 0.000000 0.000000 -0.000000 0.000000 0.140465 -0.000000 0.000000 0.209132 -0.000000 0.000000 0.221712 -0.000000 0.000000 0.233093 -0.000000 0.000000 0.280767 -0.000000 0.000000 0.746077 -0.000000 0.000000 1.790929 -0.000000 0.000000 2.455764 -0.000000 0.000000 2.957033 -0.000000 0.000000 2.643560 0.000000 0.000000 2.034393 0.000000 0.000000 1.918032 0.000000 0.000000 1.706852 0.000000 0.000000 1.415207 0.000000 0.000000 0.815540 0.000000 0.000000 
-0.000000 0.815540 0.000000 -0.643005 0.707604 0.000000 -1.165883 0.445656 0.000000 -1.491124 0.251412 0.000000 -1.766471 0.163771 0.000000 -1.954712 0.362764 0.000000 -2.447420 0.461320 0.000000 -2.748185 -0.093898 0.000000 -2.459551 -0.583052 0.000000 -1.896335 -0.854843 0.000000 -0.906491 -0.755081 0.000000 -0.451741 -0.256492 0.000000 -0.390772 -0.029527 0.000000 -0.369448 -0.011981 0.000000 -0.313441 -0.040624 0.000000 -0.199597 -0.104566 0.000000 0.000000 -0.140465 0.000000 0.199597 -0.104566 0.000000 0.313441 -0.040624 0.000000 0.369448 -0.011981 0.000000 0.390772 -0.029527 0.000000 0.451741 -0.256492 0.000000 0.906491 -0.755081 0.000000 1.896335 -0.854843 0.000000 2.459551 -0.583052 0.000000 2.748185 -0.093898 0.000000 2.447420 0.461320 0.000000 1.954712 0.362764 0.000000 1.766471 0.163771 0.000000 1.491124 0.251412 0.000000 1.165883 0.445656 0.000000 0.643005 0.707604 0.000000 
0.000000 1.286010 0.000000 -0.323390 1.165883 0.000000 -0.649927 0.848119 0.000000 -0.957774 0.600588 0.000000 -1.286023 0.463588 0.000000 -1.651551 0.680948 0.000000 -2.044065 0.793473 0.000000 -2.445912 0.012131 0.000000 -2.590158 -0.851850 0.000000 -2.208169 -1.553060 0.000000 -1.272343 -1.444594 0.000000 -0.800304 -0.515719 0.000000 -0.753310 -0.082293 0.000000 -0.707457 -0.077332 0.000000 -0.565043 -0.169851 0.000000 -0.340592 -0.313441 0.000000 0.000000 -0.399195 0.000000 0.340592 -0.313441 0.000000 0.565043 -0.169851 0.000000 0.707457 -0.077332 0.000000 0.753310 -0.082293 0.000000 0.800304 -0.515719 0.000000 1.272343 -1.444594 0.000000 2.208169 -1.553060 0.000000 2.590158 -0.851850 0.000000 2.445912 0.012131 0.000000 2.044065 0.793473 0.000000 1.651551 0.680948 0.000000 1.286023 0.463588 0.000000 0.957774 0.600588 0.000000 0.649927 0.848119 0.000000 0.323390 1.165883 0.000000 
-0.000000 1.462319 0.000000 -0.104525 1.357530 0.000000 -0.256291 1.080040 0.000000 -0.495977 0.887508 0.000000 -0.774195 0.857548 0.000000 -1.209558 1.120806 0.000000 -1.563756 1.255681 0.000000 -2.179638 0.452195 0.000000 -2.496299 -0.820795 0.000000 -2.321084 -2.172658 0.000000 -1.772916 -2.162945 0.000000 -1.245643 -0.775526 0.000000 -1.143924 -0.122374 0.000000 -1.070834 -0.200247 0.000000 -0.823591 -0.407490 0.000000 -0.486605 -0.669609 0.000000 0.000000 -0.821648 0.000000 0.486605 -0.669609 0.000000 0.823591 -0.407490 0.000000 1.070834 -0.200247 0.000000 1.143924 -0.122374 0.000000 1.245643 -0.775526 0.000000 1.772916 -2.162945 0.000000 2.321084 -2.172658 0.000000 2.496299 -0.820795 0.000000 2.179638 0.452195 0.000000 1.563756 1.255681 0.000000 1.209558 1.120806 0.000000 0.774195 0.857548 0.000000 0.495977 0.887508 0.000000 0.256291 1.080040 0.000000 0.104525 1.357530 0.000000 
0.000000 1.495059 0.000000 0.003360 1.422175 0.000000 -0.055352 1.239572 0.000000 -0.245137 1.118491 0.000000 -0.446669 1.177169 0.000000 -0.790595 1.470510 0.000000 -0.989722 1.763552 0.000000 -1.724227 0.944674 0.000000 -2.018152 -0.710403 0.000000 -1.968879 -2.276442 0.000000 -2.008986 -2.520036 0.000000 -1.543484 -1.144711 0.000000 -1.353374 -0.257101 0.000000 -1.298897 -0.397665 0.000000 -0.974860 -0.754080 0.000000 -0.557831 -1.137031 0.000000 0.000000 -1.372404 0.000000 0.557831 -1.137031 0.000000 0.974860 -0.754080 0.000000 1.298897 -0.397665 0.000000 1.353374 -0.257101 0.000000 1.543484 -1.144711 0.000000 2.008986 -2.520036 0.000000 1.968879 -2.276442 0.000000 2.018152 -0.710403 0.000000 1.724227 0.944674 0.000000 0.989722 1.763552 0.000000 0.790595 1.470510 0.000000 0.446669 1.177169 0.000000 0.245137 1.118491 0.000000 0.055352 1.239572 0.000000 -0.003360 1.422175 0.000000 
0.000000 1.455600 0.000000 0.041011 1.412882 0.000000 0.025863 1.328537 0.000000 -0.099718 1.278826 0.000000 -0.245362 1.403006 0.000000 -0.448001 1.663859 0.000000 -0.538103 2.189312 0.000000 -1.058773 1.480625 0.000000 -1.934495 -0.576143 0.000000 -2.103325 -2.181824 0.000000 -2.234418 -2.588341 0.000000 -1.867135 -1.431138 0.000000 -1.259336 -0.366961 0.000000 -1.133304 -0.578761 0.000000 -0.812960 -1.148556 0.000000 -0.445752 -1.644469 0.000000 0.000000 -1.937310 0.000000 0.445752 -1.644469 0.000000 0.812960 -1.148556 0.000000 1.133304 -0.578761 0.000000 1.259336 -0.366961 0.000000 1.867135 -1.431138 0.000000 2.234418 -2.588341 0.000000 2.103325 -2.181824 0.000000 1.934495 -0.576143 0.000000 1.058773 1.480625 0.000000 0.538103 2.189312 0.000000 0.448001 1.663859 0.000000 0.245362 1.403006 0.000000 0.099718 1.278826 0.000000 -0.025863 1.328537 0.000000 -0.041011 1.412882 0.000000 
-0.000000 1.413037 0.000000 0.059510 1.396312 0.000000 0.075295 1.380301 0.000000 0.034798 1.389716 0.000000 -0.047745 1.525452 0.000000 -0.073270 1.763251 0.000000 -0.105196 2.374325 0.000000 -0.018240 2.341066 0.000000 -1.350582 0.334149 0.000000 -2.172835 -1.976520 0.000000 -2.484946 -2.756226 0.000000 -2.100703 -2.119793 0.000000 -1.176112 -0.990933 0.000000 -0.643684 -0.844041 0.000000 -0.429005 -1.441632 0.000000 -0.216865 -1.949992 0.000000 0.000000 -2.263908 0.000000 0.216865 -1.949992 0.000000 0.429005 -1.441632 0.000000 0.643684 -0.844041 0.000000 1.176112 -0.990933 0.000000 2.100703 -2.119793 0.000000 2.484946 -2.756226 0.000000 2.172835 -1.976520 0.000000 1.350582 0.334149 0.000000 0.018240 2.341066 0.000000 0.105196 2.374325 0.000000 0.073270 1.763251 0.000000 0.047745 1.525452 0.000000 -0.034798 1.389716 0.000000 -0.075295 1.380301 0.000000 -0.059510 1.396312 0.000000 
0.000000 1.336580 0.000000 0.079580 1.337587 0.000000 0.134711 1.353248 0.000000 0.168884 1.401866 0.000000 0.173045 1.511075 0.000000 0.254029 1.721310 0.000000 0.343461 2.134282 0.000000 0.833090 2.726011 0.000000 0.318181 1.578452 0.000000 -0.987594 -1.047460 0.000000 -2.095460 -2.660472 0.000000 -2.302567 -2.739972 0.000000 -1.409037 -1.823980 0.000000 -0.235909 -1.325869 0.000000 -0.039326 -1.575375 0.000000 -0.011487 -2.073473 0.000000 0.000000 -2.371039 0.000000 0.011487 -2.073473 0.000000 0.039326 -1.575375 0.000000 0.235909 -1.325869 0.000000 1.409037 -1.823980 0.000000 2.302567 -2.739972 0.000000 2.095460 -2.660472 0.000000 0.987594 -1.047460 0.000000 -0.318181 1.578452 0.000000 -0.833090 2.726011 0.000000 -0.343461 2.134282 0.000000 -0.254029 1.721310 0.000000 -0.173045 1.511075 0.000000 -0.168884 1.401866 0.000000 -0.134711 1.353248 0.000000 -0.079580 1.337587 0.000000 
-0.000000 1.253878 0.000000 0.102668 1.261601 0.000000 0.195905 1.290996 0.000000 0.285963 1.351382 0.000000 0.370511 1.440307 0.000000 0.498613 1.592835 0.000000 0.687494 1.795264 0.000000 1.132983 2.366346 0.000000 1.658809 2.154832 0.000000 0.812947 0.437121 0.000000 -0.721768 -1.441254 0.000000 -2.232796 -2.806215 0.000000 -2.278653 -3.057590 0.000000 -1.165012 -2.213752 0.000000 -0.367279 -1.666054 0.000000 0.002583 -1.989318 0.000000 -0.000000 -2.286883 0.000000 -0.002583 -1.989318 0.000000 0.367279 -1.666054 0.000000 1.165012 -2.213752 0.000000 2.278653 -3.057590 0.000000 2.232796 -2.806215 0.000000 0.721768 -1.441254 0.000000 -0.812947 0.437121 0.000000 -1.658809 2.154832 0.000000 -1.132983 2.366346 0.000000 -0.687494 1.795264 0.000000 -0.498613 1.592835 0.000000 -0.370511 1.440307 0.000000 -0.285963 1.351382 0.000000 -0.195905 1.290996 0.000000 -0.102668 1.261601 0.000000 
-0.000000 1.131243 0.000000 0.126886 1.141683 0.000000 0.254064 1.169954 0.000000 0.387080 1.227260 0.000000 0.534537 1.298425 0.000000 0.705552 1.404327 0.000000 0.949266 1.499912 0.000000 1.278796 1.754696 0.000000 2.074299 1.898488 0.000000 2.130361 1.333117 0.000000 1.459845 0.385271 0.000000 0.287754 -1.183087 0.000000 -1.232654 -2.891764 0.000000 -1.967854 -3.237243 0.000000 -1.399770 -2.742970 0.000000 -0.407599 -2.440752 0.000000 -0.000000 -2.365873 0.000000 0.407599 -2.440752 0.000000 1.399770 -2.742970 0.000000 1.967854 -3.237243 0.000000 1.232654 -2.891764 0.000000 -0.287754 -1.183087 0.000000 -1.459845 0.385271 0.000000 -2.130361 1.333117 0.000000 -2.074299 1.898488 0.000000 -1.278796 1.754696 0.000000 -0.949266 1.499912 0.000000 -0.705552 1.404327 0.000000 -0.534537 1.298425 0.000000 -0.387080 1.227260 0.000000 -0.254064 1.169954 0.000000 -0.126886 1.141683 0.000000 
-0.000000 1.000105 0.000000 0.145325 1.007537 0.000000 0.295566 1.030802 0.000000 0.454687 1.070910 0.000000 0.638204 1.121835 0.000000 0.841230 1.178106 0.000000 1.111209 1.222020 0.000000 1.405780 1.241312 0.000000 1.996657 1.303268 0.000000 2.503440 1.051575 0.000000 2.774791 0.401353 0.000000 2.845422 -0.113716 0.000000 2.495994 -0.801982 0.000000 1.566591 -2.046636 0.000000 0.287837 -3.226308 0.000000 -0.188509 -3.389088 0.000000 -0.000000 -3.102082 0.000000 0.188509 -3.389088 0.000000 -0.287837 -3.226308 0.000000 -1.566591 -2.046636 0.000000 -2.495994 -0.801982 0.000000 -2.845422 -0.113716 0.000000 -2.774791 0.401353 0.000000 -2.503440 1.051575 0.000000 -1.996657 1.303268 0.000000 -1.405780 1.241312 0.000000 -1.111209 1.222020 0.000000 -0.841230 1.178106 0.000000 -0.638204 1.121835 0.000000 -0.454687 1.070910 0.000000 -0.295566 1.030802 0.000000 -0.145325 1.007537 0.000000 
-0.000000 0.840593 0.000000 0.158780 0.846116 0.000000 0.322651 0.860593 0.000000 0.495734 0.884622 0.000000 0.689180 0.911881 0.000000 0.901304 0.931322 0.000000 1.154872 0.935362 0.000000 1.428137 0.869248 0.000000 1.783806 0.800829 0.000000 2.226503 0.554983 0.000000 2.573300 0.043289 0.000000 2.737591 -0.904290 0.000000 3.145987 -1.612934 0.000000 3.605370 -1.029087 0.000000 3.309128 -0.987870 0.000000 1.764453 -2.152915 0.000000 0.000000 -2.742891 0.000000 -1.764453 -2.152915 0.000000 -3.309128 -0.987870 0.000000 -3.605370 -1.029087 0.000000 -3.145987 -1.612934 0.000000 -2.737591 -0.904290 0.000000 -2.573300 0.043289 0.000000 -2.226503 0.554983 0.000000 -1.783806 0.800829 0.000000 -1.428137 0.869248 0.000000 -1.154872 0.935362 0.000000 -0.901304 0.931322 0.000000 -0.689180 0.911881 0.000000 -0.495734 0.884622 0.000000 -0.322651 0.860593 0.000000 -0.158780 0.846116 0.000000 
-0.000000 0.682546 0.000000 0.165568 0.684886 0.000000 0.335639 0.693848 0.000000 0.512242 0.704380 0.000000 0.704380 0.716265 0.000000 0.908368 0.712414 0.000000 1.137082 0.695188 0.000000 1.375740 0.612378 0.000000 1.623634 0.504901 0.000000 1.909966 0.262081 0.000000 2.131889 -0.109735 0.000000 2.218450 -0.686404 0.000000 1.942498 -1.669760 0.000000 1.810757 -2.209776 0.000000 2.371864 -1.385392 0.000000 2.037334 -0.079960 0.000000 0.000000 0.426825 0.000000 -2.037334 -0.079960 0.000000 -2.371864 -1.385392 0.000000 -1.810757 -2.209776 0.000000 -1.942498 -1.669760 0.000000 -2.218450 -0.686404 0.000000 -2.131889 -0.109735 0.000000 -1.909966 0.262081 0.000000 -1.623634 0.504901 0.000000 -1.375740 0.612378 0.000000 -1.137082 0.695188 0.000000 -0.908368 0.712414 0.000000 -0.704380 0.716265 0.000000 -0.512242 0.704380 0.000000 -0.335639 0.693848 0.000000 -0.165568 0.684886 0.000000 
-0.000000 0.509456 0.000000 0.169974 0.510478 0.000000 0.342364 0.513919 0.000000 0.519767 0.515881 0.000000 0.703917 0.515755 0.000000 0.896177 0.498621 0.000000 1.092430 0.467990 0.000000 1.293647 0.382695 0.000000 1.467583 0.266602 0.000000 1.648261 0.046728 0.000000 1.722802 -0.265195 0.000000 1.743962 -0.714898 0.000000 1.489166 -1.205240 0.000000 0.829966 -1.458453 0.000000 0.167645 -1.214447 0.000000 0.140191 0.218949 0.000000 0.000000 1.331777 0.000000 -0.140191 0.218949 0.000000 -0.167645 -1.214447 0.000000 -0.829966 -1.458453 0.000000 -1.489166 -1.205240 0.000000 -1.743962 -0.714898 0.000000 -1.722802 -0.265195 0.000000 -1.648261 0.046728 0.000000 -1.467583 0.266602 0.000000 -1.293647 0.382695 0.000000 -1.092430 0.467990 0.000000 -0.896177 0.498621 0.000000 -0.703917 0.515755 0.000000 -0.519767 0.515881 0.000000 -0.342364 0.513919 0.000000 -0.169974 0.510478 0.000000 
0.000000 0.342599 0.000000 0.169865 0.342522 0.000000 0.340898 0.344055 0.000000 0.514126 0.342828 0.000000 0.688851 0.339855 0.000000 0.865131 0.323901 0.000000 1.033348 0.297717 0.000000 1.195052 0.237225 0.000000 1.312566 0.150288 0.000000 1.405344 0.006862 0.000000 1.379770 -0.205437 0.000000 1.263096 -0.452768 0.000000 0.907836 -0.755764 0.000000 0.423487 -0.888256 0.000000 -0.157350 -0.695616 0.000000 -0.477474 0.087685 0.000000 -0.000000 0.707206 0.000000 0.477474 0.087685 0.000000 0.157350 -0.695616 0.000000 -0.423487 -0.888256 0.000000 -0.907836 -0.755764 0.000000 -1.263096 -0.452768 0.000000 -1.379770 -0.205437 0.000000 -1.405344 0.006862 0.000000 -1.312566 0.150288 0.000000 -1.195052 0.237225 0.000000 -1.033348 0.297717 0.000000 -0.865131 0.323901 0.000000 -0.688851 0.339855 0.000000 -0.514126 0.342828 0.000000 -0.340898 0.344055 0.000000 -0.169865 0.342522 0.000000 
0.000000 0.169727 0.000000 0.171299 0.169579 0.000000 0.342522 0.169658 0.000000 0.515354 0.167928 0.000000 0.685350 0.164750 0.000000 0.855209 0.154124 0.000000 1.009251 0.138068 0.000000 1.152926 0.103477 0.000000 1.246476 0.056310 0.000000 1.303214 -0.020476 0.000000 1.253338 -0.122948 0.000000 1.097778 -0.242964 0.000000 0.800570 -0.365631 0.000000 0.342014 -0.393266 0.000000 -0.087685 -0.313486 0.000000 -0.353603 0.061599 0.000000 -0.000000 0.376829 0.000000 0.353603 0.061599 0.000000 0.087685 -0.313486 0.000000 -0.342014 -0.393266 0.000000 -0.800570 -0.365631 0.000000 -1.097778 -0.242964 0.000000 -1.253338 -0.122948 0.000000 -1.303214 -0.020476 0.000000 -1.246476 0.056310 0.000000 -1.152926 0.103477 0.000000 -1.009251 0.138068 0.000000 -0.855209 0.154124 0.000000 -0.685350 0.164750 0.000000 -0.515354 0.167928 0.000000 -0.342522 0.169658 0.000000 -0.171299 0.169579 0.000000 
