# vtk DataFile Version 2.0
Comment goes here
ASCII

DATASET STRUCTURED_POINTS
FIELD FieldData 1
TIME 1 1 double
0.90000000
DIMENSIONS    32   32   1

ORIGIN    0.000   0.000   0.000
SPACING   0.03125 0.03125   1.000

POINT_DATA   1024
VECTORS u double

-0.000000 -0.000000 0.000000 -0.022466 -0.000000 0.000000 -0.055750 -0.000000 0.000000 -0.120230 -0.000000 0.000000 -0.209981 -0.000000 0.000000 -0.349194 -0.000000 0.000000 -0.514526 -0.000000 0.000000 -0.728932 0.000000 0.000000 -0.945092 -0.000000 0.000000 -1.180849 0.000000 0.000000 -1.362519 -0.000000 0.000000 -1.509414 0.000000 0.000000 -1.532576 0.000000 0.000000 -1.451166 0.000000 0.000000 -1.175293 0.000000 0.000000 -0.705502 0.000000 0.000000 0.000000 0.000000 0.000000 0.705502 0.000000 0.000000 1.175293 -0.000000 0.000000 1.451166 -0.000000 0.000000 1.532576 -0.000000 0.000000 1.509414 -0.000000 0.000000 1.362519 0.000000 0.000000 1.180849 -0.000000 0.000000 0.945092 0.000000 0.000000 0.728932 -0.000000 0.000000 0.514526 0.000000 0.000000 0.349194 -0.000000 0.000000 0.209981 0.000000 0.000000 0.120230 -0.000000 0.000000 0.055750 0.000000 0.000000 0.022466 -0.000000 0.000000 
-0.000000 0.022466 0.000000 -0.016239 0.027875 0.000000 -0.043399 0.048882 0.000000 -0.101880 0.077115 0.000000 -0.184433 0.114482 0.000000 -0.314872 0.152272 0.000000 -0.467980 0.189869 0.000000 -0.667755 0.215283 0.000000 -0.865885 0.225959 0.000000 -1.083423 0.208714 0.000000 -1.247480 0.164283 0.000000 -1.382910 0.085028 0.000000 -1.403390 -0.029124 0.000000 -1.334693 -0.178641 0.000000 -1.088596 -0.372832 0.000000 -0.656920 -0.587647 0.000000 0.000000 -0.705502 0.000000 0.656920 -0.587647 0.000000 1.088596 -0.372832 0.000000 1.334693 -0.178641 0.000000 1.403390 -0.029124 0.000000 1.382910 0.085028 0.000000 1.247480 0.164283 0.000000 1.083423 0.208714 0.000000 0.865885 0.225959 0.000000 0.667755 0.215283 0.000000 0.467980 0.189869 0.000000 0.314872 0.152272 0.000000 0.184433 0.114482 0.000000 0.101880 0.077115 0.000000 0.043399 0.048882 0.000000 0.016239 0.027875 0.000000 
0.000000 0.032479 0.000000 0.001576 0.043399 0.000000 -0.008849 0.085641 0.000000 -0.051450 0.141034 0.000000 -0.117551 0.212992 0.000000 -0.227491 0.283546 0.000000 -0.355810 0.352883 0.000000 -0.523669 0.397905 0.000000 -0.687268 0.415668 0.000000 -0.869141 0.381595 0.000000 -1.001674 0.299487 0.000000 -1.122369 0.155910 0.000000 -1.145489 -0.048217 0.000000 -1.108116 -0.314793 0.000000 -0.922197 -0.677773 0.000000 -0.553527 -1.088596 0.000000 0.000000 -1.313840 0.000000 0.553527 -1.088596 0.000000 0.922197 -0.677773 0.000000 1.108116 -0.314793 0.000000 1.145489 -0.048217 0.000000 1.122369 0.155910 0.000000 1.001674 0.299487 0.000000 0.869141 0.381595 0.000000 0.687268 0.415668 0.000000 0.523669 0.397905 0.000000 0.355810 0.352883 0.000000 0.227491 0.283546 0.000000 0.117551 0.212992 0.000000 0.051450 0.141034 0.000000 0.008849 0.085641 0.000000 -0.001576 0.043399 0.000000 
-0.000000 0.019314 0.000000 0.029188 0.036724 0.000000 0.044088 0.101908 0.000000 0.023568 0.185817 0.000000 -0.020919 0.290523 0.000000 -0.106478 0.390532 0.000000 -0.203657 0.486047 0.000000 -0.332032 0.546741 0.000000 -0.447724 0.571431 0.000000 -0.577864 0.523119 0.000000 -0.654299 0.417510 0.000000 -0.730619 0.228844 0.000000 -0.719262 -0.043377 0.000000 -0.693661 -0.401933 0.000000 -0.581902 -0.927421 0.000000 -0.334738 -1.509844 0.000000 0.000000 -1.812556 0.000000 0.334738 -1.509844 0.000000 0.581902 -0.927421 0.000000 0.693661 -0.401933 0.000000 0.719262 -0.043377 0.000000 0.730619 0.228844 0.000000 0.654299 0.417510 0.000000 0.577864 0.523119 0.000000 0.447724 0.571431 0.000000 0.332032 0.546741 0.000000 0.203657 0.486047 0.000000 0.106478 0.390532 0.000000 0.020919 0.290523 0.000000 -0.023568 0.185817 0.000000 -0.044088 0.101908 0.000000 -0.029188 0.036724 0.000000 
0.000000 -0.025898 0.000000 0.064171 -0.000689 0.000000 0.110413 0.091261 0.000000 0.114760 0.206041 0.000000 0.091083 0.343039 0.000000 0.026108 0.466285 0.000000 -0.049274 0.578436 0.000000 -0.146432 0.641973 0.000000 -0.229666 0.661500 0.000000 -0.320295 0.588169 0.000000 -0.353575 0.452242 0.000000 -0.411851 0.220874 0.000000 -0.380388 -0.085175 0.000000 -0.368891 -0.452154 0.000000 -0.289280 -1.036695 0.000000 -0.121913 -1.670498 0.000000 0.000000 -1.983317 0.000000 0.121913 -1.670498 0.000000 0.289280 -1.036695 0.000000 0.368891 -0.452154 0.000000 0.380388 -0.085175 0.000000 0.411851 0.220874 0.000000 0.353575 0.452242 0.000000 0.320295 0.588169 0.000000 0.229666 0.661500 0.000000 0.146432 0.641973 0.000000 0.049274 0.578436 0.000000 -0.026108 0.466285 0.000000 -0.091083 0.343039 0.000000 -0.114760 0.206041 0.000000 -0.110413 0.091261 0.000000 -0.064171 -0.000689 0.000000 
-0.000000 -0.109029 0.000000 0.102136 -0.073690 0.000000 0.181480 0.051319 0.000000 0.209518 0.205148 0.000000 0.201789 0.379175 0.000000 0.146538 0.530889 0.000000 0.077970 0.658587 0.000000 -0.009900 0.727133 0.000000 -0.082579 0.745294 0.000000 -0.157334 0.647028 0.000000 -0.158835 0.509066 0.000000 -0.177265 0.255656 0.000000 -0.035155 -0.086338 0.000000 0.066988 -0.493041 0.000000 0.166585 -1.174399 0.000000 0.165461 -1.799124 0.000000 0.000000 -2.056382 0.000000 -0.165461 -1.799124 0.000000 -0.166585 -1.174399 0.000000 -0.066988 -0.493041 0.000000 0.035155 -0.086338 0.000000 0.177265 0.255656 0.000000 0.158835 0.509066 0.000000 0.157334 0.647028 0.000000 0.082579 0.745294 0.000000 0.009900 0.727133 0.000000 -0.077970 0.658587 0.000000 -0.146538 0.530889 0.000000 -0.201789 0.379175 0.000000 -0.209518 0.205148 0.000000 -0.181480 0.051319 0.000000 -0.102136 -0.073690 0.000000 
0.000000 -0.230169 0.000000 0.138106 -0.182169 0.000000 0.250131 -0.016121 0.000000 0.299168 0.185732 0.000000 0.306102 0.406018 0.000000 0.255086 0.590103 0.000000 0.181106 0.734875 0.000000 0.091461 0.802521 0.000000 -0.004202 0.808933 0.000000 -0.075834 0.664426 0.000000 -0.056096 0.472173 0.000000 -0.111001 0.097194 0.000000 0.010928 -0.329428 0.000000 0.097938 -0.653894 0.000000 0.289187 -1.135168 0.000000 0.245539 -1.503913 0.000000 0.000000 -1.652394 0.000000 -0.245539 -1.503913 0.000000 -0.289187 -1.135168 0.000000 -0.097938 -0.653894 0.000000 -0.010928 -0.329428 0.000000 0.111001 0.097194 0.000000 0.056096 0.472173 0.000000 0.075834 0.664426 0.000000 0.004202 0.808933 0.000000 -0.091461 0.802521 0.000000 -0.181106 0.734875 0.000000 -0.255086 0.590103 0.000000 -0.306102 0.406018 0.000000 -0.299168 0.185732 0.000000 -0.250131 -0.016121 0.000000 -0.138106 -0.182169 0.000000 
0.000000 -0.385241 0.000000 0.166338 -0.323821 0.000000 0.303562 -0.109743 0.000000 0.367609 0.149177 0.000000 0.382607 0.423257 0.000000 0.325866 0.655885 0.000000 0.231988 0.822212 0.000000 0.111847 0.912441 0.000000 -0.042072 0.912589 0.000000 -0.189995 0.698923 0.000000 -0.263093 0.544233 0.000000 -0.211475 0.188632 0.000000 0.300122 -0.295277 0.000000 0.811474 -0.771300 0.000000 0.983340 -1.321999 0.000000 0.546618 -1.509937 0.000000 -0.000000 -1.565304 0.000000 -0.546618 -1.509937 0.000000 -0.983340 -1.321999 0.000000 -0.811474 -0.771300 0.000000 -0.300122 -0.295277 0.000000 0.211475 0.188632 0.000000 0.263093 0.544233 0.000000 0.189995 0.698923 0.000000 0.042072 0.912589 0.000000 -0.111847 0.912441 0.000000 -0.231988 0.822212 0.000000 -0.325866 0.655885 0.000000 -0.382607 0.423257 0.000000 -0.367609 0.149177 0.000000 -0.303562 -0.109743 0.000000 -0.166338 -0.323821 0.000000 
0.000000 -0.562845 0.000000 0.180373 -0.485731 0.000000 0.334065 -0.217392 0.000000 0.403254 0.106686 0.000000 0.433146 0.447761 0.000000 0.371301 0.740723 0.000000 0.267565 0.948894 0.000000 0.124148 1.076581 0.000000 -0.163979 1.110776 0.000000 -0.318517 0.885447 0.000000 -0.177140 0.493652 0.000000 0.652839 -0.466021 0.000000 1.020068 -1.352377 0.000000 1.006556 -1.337113 0.000000 0.546808 -0.870312 0.000000 0.206032 -0.520573 0.000000 -0.000000 -0.559159 0.000000 -0.206032 -0.520573 0.000000 -0.546808 -0.870312 0.000000 -1.006556 -1.337113 0.000000 -1.020068 -1.352377 0.000000 -0.652839 -0.466021 0.000000 0.177140 0.493652 0.000000 0.318517 0.885447 0.000000 0.163979 1.110776 0.000000 -0.124148 1.076581 0.000000 -0.267565 0.948894 0.000000 -0.371301 0.740723 0.000000 -0.433146 0.447761 0.000000 -0.403254 0.106686 0.000000 -0.334065 -0.217392 0.000000 -0.180373 -0.485731 0.000000 
0.000000 -0.745987 0.000000 0.180219 -0.657886 0.000000 0.335776 -0.332623 0.000000 0.405215 0.050096 0.000000 0.446153 0.455211 0.000000 0.380428 0.821465 0.000000 0.266052 1.069364 0.000000 0.091694 1.343985 0.000000 -0.267805 1.355254 0.000000 -0.353226 0.712084 0.000000 0.145793 -0.427123 0.000000 0.609947 -1.008576 0.000000 -0.026481 -0.648994 0.000000 -0.436957 -0.298040 0.000000 -0.706024 -0.521476 0.000000 -0.313828 -0.963128 0.000000 -0.000000 -1.153240 0.000000 0.313828 -0.963128 0.000000 0.706024 -0.521476 0.000000 0.436957 -0.298040 0.000000 0.026481 -0.648994 0.000000 -0.609947 -1.008576 0.000000 -0.145793 -0.427123 0.000000 0.353226 0.712084 0.000000 0.267805 1.355254 0.000000 -0.091694 1.343985 0.000000 -0.266052 1.069364 0.000000 -0.380428 0.821465 0.000000 -0.446153 0.455211 0.000000 -0.405215 0.050096 0.000000 -0.335776 -0.332623 0.000000 -0.180219 -0.657886 0.000000 
0.000000 -0.923284 0.000000 0.154342 -0.821506 0.000000 0.295570 -0.442388 0.000000 0.350541 -0.003691 0.000000 0.429646 0.472548 0.000000 0.364257 0.920824 0.000000 0.366767 1.237627 0.000000 0.211317 1.610438 0.000000 -0.408452 1.555696 0.000000 -0.056758 0.471849 0.000000 0.490283 -0.469521 0.000000 0.189857 -0.293748 0.000000 0.066254 -0.305473 0.000000 0.570356 -0.657569 0.000000 0.749651 -0.993441 0.000000 0.579966 -1.226597 0.000000 0.000000 -1.186815 0.000000 -0.579966 -1.226597 0.000000 -0.749651 -0.993441 0.000000 -0.570356 -0.657569 0.000000 -0.066254 -0.305473 0.000000 -0.189857 -0.293748 0.000000 -0.490283 -0.469521 0.000000 0.056758 0.471849 0.000000 0.408452 1.555696 0.000000 -0.211317 1.610438 0.000000 -0.366767 1.237627 0.000000 -0.364257 0.920824 0.000000 -0.429646 0.472548 0.000000 -0.350541 -0.003691 0.000000 -0.295570 -0.442388 0.000000 -0.154342 -0.821506 0.000000 
0.000000 -1.054672 0.000000 0.106097 -0.953456 0.000000 0.213301 -0.528822 0.000000 0.262542 -0.083980 0.000000 0.382254 0.441494 0.000000 0.340332 0.884344 0.000000 0.464834 1.222304 0.000000 0.118430 2.119204 0.000000 -0.707505 1.623330 0.000000 0.639750 -0.186652 0.000000 0.713309 -0.673738 0.000000 0.903859 -0.584547 0.000000 1.068941 -1.029494 0.000000 1.054182 -0.981436 0.000000 0.818381 -0.531085 0.000000 0.449458 -0.213478 0.000000 0.000000 0.006692 0.000000 -0.449458 -0.213478 0.000000 -0.818381 -0.531085 0.000000 -1.054182 -0.981436 0.000000 -1.068941 -1.029494 0.000000 -0.903859 -0.584547 0.000000 -0.713309 -0.673738 0.000000 -0.639750 -0.186652 0.000000 0.707505 1.623330 0.000000 -0.118430 2.119204 0.000000 -0.464834 1.222304 0.000000 -0.340332 0.884344 0.000000 -0.382254 0.441494 0.000000 -0.262542 -0.083980 0.000000 -0.213301 -0.528822 0.000000 -0.106097 -0.953456 0.000000 
0.000000 -1.135478 0.000000 0.009153 -1.034807 0.000000 0.038776 -0.598832 0.000000 0.053088 -0.172643 0.000000 0.183592 0.394757 0.000000 0.063729 0.838244 0.000000 0.325385 1.459530 0.000000 -0.824384 2.782777 0.000000 -0.312145 1.034376 0.000000 1.443351 -0.948965 0.000000 0.698162 -0.733630 0.000000 0.809554 -0.649380 0.000000 0.464650 -0.455796 0.000000 0.175594 -0.407010 0.000000 0.000706 -0.388716 0.000000 -0.039197 -0.408216 0.000000 0.000000 -0.287899 0.000000 0.039197 -0.408216 0.000000 -0.000706 -0.388716 0.000000 -0.175594 -0.407010 0.000000 -0.464650 -0.455796 0.000000 -0.809554 -0.649380 0.000000 -0.698162 -0.733630 0.000000 -1.443351 -0.948965 0.000000 0.312145 1.034376 0.000000 0.824384 2.782777 0.000000 -0.325385 1.459530 0.000000 -0.063729 0.838244 0.000000 -0.183592 0.394757 0.000000 -0.053088 -0.172643 0.000000 -0.038776 -0.598832 0.000000 -0.009153 -1.034807 0.000000 
-0.000000 -1.072979 0.000000 -0.123657 -0.992232 0.000000 -0.202202 -0.572756 0.000000 -0.209859 -0.228795 0.000000 -0.087285 0.430854 0.000000 -0.068877 0.742550 0.000000 0.225803 2.110417 0.000000 -0.843481 2.756735 0.000000 1.275649 -0.644405 0.000000 1.649465 -1.196959 0.000000 0.744345 -0.039941 0.000000 0.492003 -0.351035 0.000000 0.272423 -0.395534 0.000000 0.229533 -0.517492 0.000000 0.180699 -0.316294 0.000000 0.069247 -0.212772 0.000000 0.000000 -0.071702 0.000000 -0.069247 -0.212772 0.000000 -0.180699 -0.316294 0.000000 -0.229533 -0.517492 0.000000 -0.272423 -0.395534 0.000000 -0.492003 -0.351035 0.000000 -0.744345 -0.039941 0.000000 -1.649465 -1.196959 0.000000 -1.275649 -0.644405 0.000000 0.843481 2.756735 0.000000 -0.225803 2.110417 0.000000 0.068877 0.742550 0.000000 0.087285 0.430854 0.000000 0.209859 -0.228795 0.000000 0.202202 -0.572756 0.000000 0.123657 -0.992232 0.000000 
-0.000000 -0.888163 0.000000 -0.288445 -0.832606 0.000000 -0.532189 -0.512630 0.000000 -0.563159 -0.287560 0.000000 -0.600005 0.253774 0.000000 -0.234926 0.525156 0.000000 -0.329903 2.234135 0.000000 0.482125 1.732931 0.000000 1.800634 -1.458570 0.000000 0.733869 -0.417661 0.000000 0.605253 0.423832 0.000000 0.405146 -0.177458 0.000000 0.384389 -0.193326 0.000000 0.176314 -0.315285 0.000000 0.096137 -0.228431 0.000000 0.003045 -0.227517 0.000000 0.000000 -0.149405 0.000000 -0.003045 -0.227517 0.000000 -0.096137 -0.228431 0.000000 -0.176314 -0.315285 0.000000 -0.384389 -0.193326 0.000000 -0.405146 -0.177458 0.000000 -0.605253 0.423832 0.000000 -0.733869 -0.417661 0.000000 -1.800634 -1.458570 0.000000 -0.482125 1.732931 0.000000 0.329903 2.234135 0.000000 0.234926 0.525156 0.000000 0.600005 0.253774 0.000000 0.563159 -0.287560 0.000000 0.532189 -0.512630 0.000000 0.288445 -0.832606 0.000000 
-0.000000 -0.496090 0.000000 -0.444082 -0.460043 0.000000 -0.832606 -0.298042 0.000000 -0.956712 -0.160979 0.000000 -1.120166 0.102620 0.000000 -0.702937 0.472448 0.000000 -0.595010 1.393367 0.000000 1.531197 0.626198 0.000000 1.137921 -0.896150 0.000000 0.072627 -0.001578 0.000000 0.720260 0.288782 0.000000 0.496459 -0.130171 0.000000 0.542802 -0.166702 0.000000 0.303133 -0.229240 0.000000 0.227517 -0.143025 0.000000 0.074703 -0.116635 0.000000 -0.000000 -0.065613 0.000000 -0.074703 -0.116635 0.000000 -0.227517 -0.143025 0.000000 -0.303133 -0.229240 0.000000 -0.542802 -0.166702 0.000000 -0.496459 -0.130171 0.000000 -0.720260 0.288782 0.000000 -0.072627 -0.001578 0.000000 -1.137921 -0.896150 0.000000 -1.531197 0.626198 0.000000 0.595010 1.393367 0.000000 0.702937 0.472448 0.000000 1.120166 0.102620 0.000000 0.956712 -0.160979 0.000000 0.832606 -0.298042 0.000000 0.444082 -0.460043 0.000000 
-0.000000 -0.000000 0.000000 -0.496090 -0.000000 0.000000 -0.920086 -0.000000 0.000000 -1.092173 -0.000000 0.000000 -1.242043 -0.000000 0.000000 -0.886933 -0.000000 0.000000 -0.297148 0.000000 0.000000 1.899800 0.000000 0.000000 0.955248 -0.000000 0.000000 0.107501 -0.000000 0.000000 0.952092 -0.000000 0.000000 0.685065 0.000000 0.000000 0.691751 0.000000 0.000000 0.351662 0.000000 0.000000 0.233270 -0.000000 0.000000 0.065613 0.000000 0.000000 -0.000000 0.000000 0.000000 -0.065613 0.000000 0.000000 -0.233270 0.000000 0.000000 -0.351662 0.000000 0.000000 -0.691751 0.000000 0.000000 -0.685065 0.000000 0.000000 -0.952092 0.000000 0.000000 -0.107501 -0.000000 0.000000 -0.955248 -0.000000 0.000000 -1.899800 -0.000000 0.000000 0.297148 0.000000 0.000000 0.886933 0.000000 0.000000 1.242043 0.000000 0.000000 1.092173 0.000000 0.000000 0.920086 -0.000000 0.000000 0.496090 -0.000000 0.000000 
0.000000 0.496090 0.000000 -0.444082 0.460043 0.000000 -0.832606 0.298042 0.000000 -0.956712 0.160979 0.000000 -1.120166 -0.102620 0.000000 -0.702937 -0.472448 0.000000 -0.595010 -1.393367 0.000000 1.531197 -0.626198 0.000000 1.137921 0.896150 0.000000 0.072627 0.001578 0.000000 0.720260 -0.288782 0.000000 0.496459 0.130171 0.000000 0.542802 0.166702 0.000000 0.303133 0.229240 0.000000 0.227517 0.143025 0.000000 0.074703 0.116635 0.000000 -0.000000 0.065613 0.000000 -0.074703 0.116635 0.000000 -0.227517 0.143025 0.000000 -0.303133 0.229240 0.000000 -0.542802 0.166702 0.000000 -0.496459 0.130171 0.000000 -0.720260 -0.288782 0.000000 -0.072627 0.001578 0.000000 -1.137921 0.896150 0.000000 -1.531197 -0.626198 0.000000 0.595010 -1.393367 0.000000 0.702937 -0.472448 0.000000 1.120166 -0.102620 0.000000 0.956712 0.160979 0.000000 0.832606 0.298042 0.000000 0.444082 0.460043 0.000000 
0.000000 0.888163 0.000000 -0.288445 0.832606 0.000000 -0.532189 0.512630 0.000000 -0.563159 0.287560 0.000000 -0.600005 -0.253774 0.000000 -0.234926 -0.525156 0.000000 -0.329903 -2.234135 0.000000 0.482125 -1.732931 0.000000 1.800634 1.458570 0.000000 0.733869 0.417661 0.000000 0.605253 -0.423832 0.000000 0.405146 0.177458 0.000000 0.384389 0.193326 0.000000 0.176314 0.315285 0.000000 0.096137 0.228431 0.000000 0.003045 0.227517 0.000000 -0.000000 0.149405 0.000000 -0.003045 0.227517 0.000000 -0.096137 0.228431 0.000000 -0.176314 0.315285 0.000000 -0.384389 0.193326 0.000000 -0.405146 0.177458 0.000000 -0.605253 -0.423832 0.000000 -0.733869 0.417661 0.000000 -1.800634 1.458570 0.000000 -0.482125 -1.732931 0.000000 0.329903 -2.234135 0.000000 0.234926 -0.525156 0.000000 0.600005 -0.253774 0.000000 0.563159 0.287560 0.000000 0.532189 0.512630 0.000000 0.288445 0.832606 0.000000 
0.000000 1.072979 0.000000 -0.123657 0.992232 0.000000 -0.202202 0.572756 0.000000 -0.209859 0.228795 0.000000 -0.087285 -0.430854 0.000000 -0.068877 -0.742550 0.000000 0.225803 -2.110417 0.000000 -0.843481 -2.756735 0.000000 1.275649 0.644405 0.000000 1.649465 1.196959 0.000000 0.744345 0.039941 0.000000 0.492003 0.351035 0.000000 0.272423 0.395534 0.000000 0.229533 0.517492 0.000000 0.180699 0.316294 0.000000 0.069247 0.212772 0.000000 -0.000000 0.071702 0.000000 -0.069247 0.212772 0.000000 -0.180699 0.316294 0.000000 -0.229533 0.517492 0.000000 -0.272423 0.395534 0.000000 -0.492003 0.351035 0.000000 -0.744345 0.039941 0.000000 -1.649465 1.196959 0.000000 -1.275649 0.644405 0.000000 0.843481 -2.756735 0.000000 -0.225803 -2.110417 0.000000 0.068877 -0.742550 0.000000 0.087285 -0.430854 0.000000 0.209859 0.228795 0.000000 0.202202 0.572756 0.000000 0.123657 0.992232 0.000000 
-0.000000 1.135478 0.000000 0.009153 1.034807 0.000000 0.038776 0.598832 0.000000 0.053088 0.172643 0.000000 0.183592 -0.394757 0.000000 0.063729 -0.838244 0.000000 0.325385 -1.459530 0.000000 -0.824384 -2.782777 0.000000 -0.312145 -1.034376 0.000000 1.443351 0.948965 0.000000 0.698162 0.733630 0.000000 0.809554 0.649380 0.000000 0.464650 0.455796 0.000000 0.175594 0.407010 0.000000 0.000706 0.388716 0.000000 -0.039197 0.408216 0.000000 -0.000000 0.287899 0.000000 0.039197 0.408216 0.000000 -0.000706 0.388716 0.000000 -0.175594 0.407010 0.000000 -0.464650 0.455796 0.000000 -0.809554 0.649380 0.000000 -0.698162 0.733630 0.000000 -1.443351 0.948965 0.000000 0.312145 -1.034376 0.000000 0.824384 -2.782777 0.000000 -0.325385 -1.459530 0.000000 -0.063729 -0.838244 0.000000 -0.183592 -0.394757 0.000000 -0.053088 0.172643 0.000000 -0.038776 0.598832 0.000000 -0.009153 1.034807 0.000000 
-0.000000 1.054672 0.000000 0.106097 0.953456 0.000000 0.213301 0.528822 0.000000 0.262542 0.083980 0.000000 0.382254 -0.441494 0.000000 0.340332 -0.884344 0.000000 0.464834 -1.222304 0.000000 0.118430 -2.119204 0.000000 -0.707505 -1.623330 0.000000 0.639750 0.186652 0.000000 0.713309 0.673738 0.000000 0.903859 0.584547 0.000000 1.068941 1.029494 0.000000 1.054182 0.981436 0.000000 0.818381 0.531085 0.000000 0.449458 0.213478 0.000000 -0.000000 -0.006692 0.000000 -0.449458 0.213478 0.000000 -0.818381 0.531085 0.000000 -1.054182 0.981436 0.000000 -1.068941 1.029494 0.000000 -0.903859 0.584547 0.000000 -0.713309 0.673738 0.000000 -0.639750 0.186652 0.000000 0.707505 -1.623330 0.000000 -0.118430 -2.119204 0.000000 -0.464834 -1.222304 0.000000 -0.340332 -0.884344 0.000000 -0.382254 -0.441494 0.000000 -0.262542 0.083980 0.000000 -0.213301 0.528822 0.000000 -0.106097 0.953456 0.000000 
-0.000000 0.923284 0.000000 0.154342 0.821506 0.000000 0.295570 0.442388 0.000000 0.350541 0.003691 0.000000 0.429646 -0.472548 0.000000 0.364257 -0.920824 0.000000 0.366767 -1.237627 0.000000 0.211317 -1.610438 0.000000 -0.408452 -1.555696 0.000000 -0.056758 -0.471849 0.000000 0.490283 0.469521 0.000000 0.189857 0.293748 0.000000 0.066254 0.305473 0.000000 0.570356 0.657569 0.000000 0.749651 0.993441 0.000000 0.579966 1.226597 0.000000 -0.000000 1.186815 0.000000 -0.579966 1.226597 0.000000 -0.749651 0.993441 0.000000 -0.570356 0.657569 0.000000 -0.066254 0.305473 0.000000 -0.189857 0.293748 0.000000 -0.490283 0.469521 0.000000 0.056758 -0.471849 0.000000 0.408452 -1.555696 0.000000 -0.211317 -1.610438 0.000000 -0.366767 -1.237627 0.000000 -0.364257 -0.920824 0.000000 -0.429646 -0.472548 0.000000 -0.350541 0.003691 0.000000 -0.295570 0.442388 0.000000 -0.154342 0.821506 0.000000 
-0.000000 0.745987 0.000000 0.180219 0.657886 0.000000 0.335776 0.332623 0.000000 0.405215 -0.050096 0.000000 0.446153 -0.455211 0.000000 0.380428 -0.821465 0.000000 0.266052 -1.069364 0.000000 0.091694 -1.343985 0.000000 -0.267805 -1.355254 0.000000 -0.353226 -0.712084 0.000000 0.145793 0.427123 0.000000 0.609947 1.008576 0.000000 -0.026481 0.648994 0.000000 -0.436957 0.298040 0.000000 -0.706024 0.521476 0.000000 -0.313828 0.963128 0.000000 0.000000 1.153240 0.000000 0.313828 0.963128 0.000000 0.706024 0.521476 0.000000 0.436957 0.298040 0.000000 0.026481 0.648994 0.000000 -0.609947 1.008576 0.000000 -0.145793 0.427123 0.000000 0.353226 -0.712084 0.000000 0.267805 -1.355254 0.000000 -0.091694 -1.343985 0.000000 -0.266052 -1.069364 0.000000 -0.380428 -0.821465 0.000000 -0.446153 -0.455211 0.000000 -0.405215 -0.050096 0.000000 -0.335776 0.332623 0.000000 -0.180219 0.657886 0.000000 
-0.000000 0.562845 0.000000 0.180373 0.485731 0.000000 0.334065 0.217392 0.000000 0.403254 -0.106686 0.000000 0.433146 -0.447761 0.000000 0.371301 -0.740723 0.000000 0.267565 -0.948894 0.000000 0.124148 -1.076581 0.000000 -0.163979 -1.110776 0.000000 -0.318517 -0.885447 0.000000 -0.177140 -0.493652 0.000000 0.652839 0.466021 0.000000 1.020068 1.352377 0.000000 1.006556 1.337113 0.000000 0.546808 0.870312 0.000000 0.206032 0.520573 0.000000 0.000000 0.559159 0.000000 -0.206032 0.520573 0.000000 -0.546808 0.870312 0.000000 -1.006556 1.337113 0.000000 -1.020068 1.352377 0.000000 -0.652839 0.466021 0.000000 0.177140 -0.493652 0.000000 0.318517 -0.885447 0.000000 0.163979 -1.110776 0.000000 -0.124148 -1.076581 0.000000 -0.267565 -0.948894 0.000000 -0.371301 -0.740723 0.000000 -0.433146 -0.447761 0.000000 -0.403254 -0.106686 0.000000 -0.334065 0.217392 0.000000 -0.180373 0.485731 0.000000 
-0.000000 0.385241 0.000000 0.166338 0.323821 0.000000 0.303562 0.109743 0.000000 0.367609 -0.149177 0.000000 0.382607 -0.423257 0.000000 0.325866 -0.655885 0.000000 0.231988 -0.822212 0.000000 0.111847 -0.912441 0.000000 -0.042072 -0.912589 0.000000 -0.189995 -0.698923 0.000000 -0.263093 -0.544233 0.000000 -0.211475 -0.188632 0.000000 0.300122 0.295277 0.000000 0.811474 0.771300 0.000000 0.983340 1.321999 0.000000 0.546618 1.509937 0.000000 -0.000000 1.565304 0.000000 -0.546618 1.509937 0.000000 -0.983340 1.321999 0.000000 -0.811474 0.771300 0.000000 -0.300122 0.295277 0.000000 0.211475 -0.188632 0.000000 0.263093 -0.544233 0.000000 0.189995 -0.698923 0.000000 0.042072 -0.912589 0.000000 -0.111847 -0.912441 0.000000 -0.231988 -0.822212 0.000000 -0.325866 -0.655885 0.000000 -0.382607 -0.423257 0.000000 -0.367609 -0.149177 0.000000 -0.303562 0.109743 0.000000 -0.166338 0.323821 0.000000 
-0.000000 0.230169 0.000000 0.138106 0.182169 0.000000 0.250131 0.016121 0.000000 0.299168 -0.185732 0.000000 0.306102 -0.406018 0.000000 0.255086 -0.590103 0.000000 0.181106 -0.734875 0.000000 0.091461 -0.802521 0.000000 -0.004202 -0.808933 0.000000 -0.075834 -0.664426 0.000000 -0.056096 -0.472173 0.000000 -0.111001 -0.097194 0.000000 0.010928 0.329428 0.000000 0.097938 0.653894 0.000000 0.289187 1.135168 0.000000 0.245539 1.503913 0.000000 -0.000000 1.652394 0.000000 -0.245539 1.503913 0.000000 -0.289187 1.135168 0.000000 -0.097938 0.653894 0.000000 -0.010928 0.329428 0.000000 0.111001 -0.097194 0.000000 0.056096 -0.472173 0.000000 0.075834 -0.664426 0.000000 0.004202 -0.808933 0.000000 -0.091461 -0.802521 0.000000 -0.181106 -0.734875 0.000000 -0.255086 -0.590103 0.000000 -0.306102 -0.406018 0.000000 -0.299168 -0.185732 0.000000 -0.250131 0.016121 0.000000 -0.138106 0.182169 0.000000 
-0.000000 0.109029 0.000000 0.102136 0.073690 0.000000 0.181480 -0.051319 0.000000 0.209518 -0.205148 0.000000 0.201789 -0.379175 0.000000 0.146538 -0.530889 0.000000 0.077970 -0.658587 0.000000 -0.009900 -0.727133 0.000000 -0.082579 -0.745294 0.000000 -0.157334 -0.647028 0.000000 -0.158835 -0.509066 0.000000 -0.177265 -0.255656 0.000000 -0.035155 0.086338 0.000000 0.066988 0.493041 0.000000 0.166585 1.174399 0.000000 0.165461 1.799124 0.000000 0.000000 2.056382 0.000000 -0.165461 1.799124 0.000000 -0.166585 1.174399 0.000000 -0.066988 0.493041 0.000000 0.035155 0.086338 0.000000 0.177265 -0.255656 0.000000 0.158835 -0.509066 0.000000 0.157334 -0.647028 0.000000 0.082579 -0.745294 0.000000 0.009900 -0.727133 0.000000 -0.077970 -0.658587 0.000000 -0.146538 -0.530889 0.000000 -0.201789 -0.379175 0.000000 -0.209518 -0.205148 0.000000 -0.181480 -0.051319 0.000000 -0.102136 0.073690 0.000000 
-0.000000 0.025898 0.000000 0.064171 0.000689 0.000000 0.110413 -0.091261 0.000000 0.114760 -0.206041 0.000000 0.091083 -0.343039 0.000000 0.026108 -0.466285 0.000000 -0.049274 -0.578436 0.000000 -0.146432 -0.641973 0.000000 -0.229666 -0.661500 0.000000 -0.320295 -0.588169 0.000000 -0.353575 -0.452242 0.000000 -0.411851 -0.220874 0.000000 -0.380388 0.085175 0.000000 -0.368891 0.452154 0.000000 -0.289280 1.036695 0.000000 -0.121913 1.670498 0.000000 0.000000 1.983317 0.000000 0.121913 1.670498 0.000000 0.289280 1.036695 0.000000 0.368891 0.452154 0.000000 0.380388 0.085175 0.000000 0.411851 -0.220874 0.000000 0.353575 -0.452242 0.000000 0.320295 -0.588169 0.000000 0.229666 -0.661500 0.000000 0.146432 -0.641973 0.000000 0.049274 -0.578436 0.000000 -0.026108 -0.466285 0.000000 -0.091083 -0.343039 0.000000 -0.114760 -0.206041 0.000000 -0.110413 -0.091261 0.000000 -0.064171 0.000689 0.000000 
-0.000000 -0.019314 0.000000 0.029188 -0.036724 0.000000 0.044088 -0.101908 0.000000 0.023568 -0.185817 0.000000 -0.020919 -0.290523 0.000000 -0.106478 -0.390532 0.000000 -0.203657 -0.486047 0.000000 -0.332032 -0.546741 0.000000 -0.447724 -0.571431 0.000000 -0.577864 -0.523119 0.000000 -0.654299 -0.417510 0.000000 -0.730619 -0.228844 0.000000 -0.719262 0.043377 0.000000 -0.693661 0.401933 0.000000 -0.581902 0.927421 0.000000 -0.334738 1.509844 0.000000 0.000000 1.812556 0.000000 0.334738 1.509844 0.000000 0.581902 0.927421 0.000000 0.693661 0.401933 0.000000 0.719262 0.043377 0.000000 0.730619 -0.228844 0.000000 0.654299 -0.417510 0.000000 0.577864 -0.523119 0.000000 0.447724 -0.571431 0.000000 0.332032 -0.546741 0.000000 0.203657 -0.486047 0.000000 0.106478 -0.390532 0.000000 0.020919 -0.290523 0.000000 -0.023568 -0.185817 0.000000 -0.044088 -0.101908 0.000000 -0.029188 -0.036724 0.000000 
-0.000000 -0.032479 0.000000 0.001576 -0.043399 0.000000 -0.008849 -0.085641 0.000000 -0.051450 -0.141034 0.000000 -0.117551 -0.212992 0.000000 -0.227491 -0.283546 0.000000 -0.355810 -0.352883 0.000000 -0.523669 -0.397905 0.000000 -0.687268 -0.415668 0.000000 -0.869141 -0.381595 0.000000 -1.001674 -0.299487 0.000000 -1.122369 -0.155910 0.000000 -1.145489 0.048217 0.000000 -1.108116 0.314793 0.000000 -0.922197 0.677773 0.000000 -0.553527 1.088596 0.000000 -0.000000 1.313840 0.000000 0.553527 1.088596 0.000000 0.922197 0.677773 0.000000 1.108116 0.314793 0.000000 1.145489 0.048217 0.000000 1.122369 -0.155910 0.000000 1.001674 -0.299487 0.000000 0.869141 -0.381595 0.000000 0.687268 -0.415668 0.000000 0.523669 -0.397905 0.000000 0.355810 -0.352883 0.000000 0.227491 -0.283546 0.000000 0.117551 -0.212992 0.000000 0.051450 -0.141034 0.000000 0.008849 -0.085641 0.000000 -0.001576 -0.043399 0.000000 
-0.000000 -0.022466 0.000000 -0.016239 -0.027875 0.000000 -0.043399 -0.048882 0.000000 -0.101880 -0.077115 0.000000 -0.184433 -0.114482 0.000000 -0.314872 -0.152272 0.000000 -0.467980 -0.189869 0.000000 -0.667755 -0.215283 0.000000 -0.865885 -0.225959 0.000000 -1.083423 -0.208714 0.000000 -1.247480 -0.164283 0.000000 -1.382910 -0.085028 0.000000 -1.403390 0.029124 0.000000 -1.334693 0.178641 0.000000 -1.088596 0.372832 0.000000 -0.656920 0.587647 0.000000 -0.000000 0.705502 0.000000 0.656920 0.587647 0.000000 1.088596 0.372832 0.000000 1.334693 0.178641 0.000000 1.403390 0.029124 0.000000 1.382910 -0.085028 0.000000 1.247480 -0.164283 0.000000 1.083423 -0.208714 0.000000 0.865885 -0.225959 0.000000 0.667755 -0.215283 0.000000 0.467980 -0.189869 0.000000 0.314872 -0.152272 0.000000 0.184433 -0.114482 0.000000 0.101880 -0.077115 0.000000 0.043399 -0.048882 0.000000 0.016239 -0.027875 0.000000 
