# vtk DataFile Version 2.0
Comment goes here
ASCII

DATASET STRUCTURED_POINTS
FIELD FieldData 1
TIME 1 1 double
0.64000000
DIMENSIONS    32   32   1

ORIGIN    0.000   0.000   0.000
SPACING   0.03125 0.03125   1.000

POINT_DATA   1024
VECTORS u double

-0.000000 -0.000000 0.000000 -0.008404 -0.000000 0.000000 -0.026271 -0.000000 0.000000 -0.057763 -0.000000 0.000000 -0.114474 0.000000 0.000000 -0.199428 0.000000 0.000000 -0.320020 0.000000 0.000000 -0.484450 0.000000 0.000000 -0.675458 0.000000 0.000000 -0.905417 0.000000 0.000000 -1.106339 -0.000000 0.000000 -1.308712 0.000000 0.000000 -1.372696 -0.000000 0.000000 -1.363981 0.000000 0.000000 -1.075241 -0.000000 0.000000 -0.628923 0.000000 0.000000 0.000000 -0.000000 0.000000 0.628923 0.000000 0.000000 1.075241 0.000000 0.000000 1.363981 -0.000000 0.000000 1.372696 0.000000 0.000000 1.308712 -0.000000 0.000000 1.106339 0.000000 0.000000 0.905417 -0.000000 0.000000 0.675458 -0.000000 0.000000 0.484450 -0.000000 0.000000 0.320020 -0.000000 0.000000 0.199428 -0.000000 0.000000 0.114474 -0.000000 0.000000 0.057763 -0.000000 0.000000 0.026271 -0.000000 0.000000 0.008404 -0.000000 0.000000 
-0.000000 0.008404 0.000000 -0.005745 0.013136 0.000000 -0.020836 0.024680 0.000000 -0.048891 0.044101 0.000000 -0.100707 0.070832 0.000000 -0.177858 0.102773 0.000000 -0.286372 0.142511 0.000000 -0.433096 0.177719 0.000000 -0.600548 0.210483 0.000000 -0.800944 0.215440 0.000000 -0.968095 0.201648 0.000000 -1.131727 0.133179 0.000000 -1.162743 0.027635 0.000000 -1.129488 -0.148728 0.000000 -0.863117 -0.367529 0.000000 -0.505351 -0.537621 0.000000 0.000000 -0.628923 0.000000 0.505351 -0.537621 0.000000 0.863117 -0.367529 0.000000 1.129488 -0.148728 0.000000 1.162743 0.027635 0.000000 1.131727 0.133179 0.000000 0.968095 0.201648 0.000000 0.800944 0.215440 0.000000 0.600548 0.210483 0.000000 0.433096 0.177719 0.000000 0.286372 0.142511 0.000000 0.177858 0.102773 0.000000 0.100707 0.070832 0.000000 0.048891 0.044101 0.000000 0.020836 0.024680 0.000000 0.005745 0.013136 0.000000 
0.000000 0.011490 0.000000 0.006689 0.020836 0.000000 0.002836 0.043146 0.000000 -0.012507 0.079871 0.000000 -0.052216 0.128968 0.000000 -0.110211 0.185665 0.000000 -0.196312 0.255238 0.000000 -0.307604 0.314176 0.000000 -0.436235 0.367848 0.000000 -0.588108 0.367546 0.000000 -0.712289 0.330783 0.000000 -0.841426 0.194648 0.000000 -0.849242 -0.002239 0.000000 -0.854771 -0.299626 0.000000 -0.619100 -0.624137 0.000000 -0.337954 -0.863117 0.000000 0.000000 -1.010702 0.000000 0.337954 -0.863117 0.000000 0.619100 -0.624137 0.000000 0.854771 -0.299626 0.000000 0.849242 -0.002239 0.000000 0.841426 0.194648 0.000000 0.712289 0.330783 0.000000 0.588108 0.367546 0.000000 0.436235 0.367848 0.000000 0.307604 0.314176 0.000000 0.196312 0.255238 0.000000 0.110211 0.185665 0.000000 0.052216 0.128968 0.000000 0.012507 0.079871 0.000000 -0.002836 0.043146 0.000000 -0.006689 0.020836 0.000000 
-0.000000 -0.004975 0.000000 0.022894 0.010300 0.000000 0.033337 0.043876 0.000000 0.033246 0.099153 0.000000 0.008252 0.168536 0.000000 -0.026576 0.246869 0.000000 -0.083379 0.339904 0.000000 -0.148355 0.417642 0.000000 -0.220860 0.490988 0.000000 -0.301411 0.491494 0.000000 -0.352608 0.454966 0.000000 -0.412568 0.270132 0.000000 -0.344134 0.040979 0.000000 -0.289818 -0.378869 0.000000 -0.100170 -0.884346 0.000000 -0.068332 -1.156721 0.000000 0.000000 -1.304832 0.000000 0.068332 -1.156721 0.000000 0.100170 -0.884346 0.000000 0.289818 -0.378869 0.000000 0.344134 0.040979 0.000000 0.412568 0.270132 0.000000 0.352608 0.454966 0.000000 0.301411 0.491494 0.000000 0.220860 0.490988 0.000000 0.148355 0.417642 0.000000 0.083379 0.339904 0.000000 0.026576 0.246869 0.000000 -0.008252 0.168536 0.000000 -0.033246 0.099153 0.000000 -0.033337 0.043876 0.000000 -0.022894 0.010300 0.000000 
-0.000000 -0.034297 0.000000 0.048863 -0.012502 0.000000 0.080887 0.032793 0.000000 0.101988 0.104957 0.000000 0.092552 0.188790 0.000000 0.081483 0.277295 0.000000 0.047589 0.377017 0.000000 0.023307 0.451657 0.000000 -0.009656 0.520903 0.000000 -0.033449 0.499295 0.000000 -0.057477 0.441940 0.000000 -0.090872 0.186174 0.000000 -0.015155 -0.124990 0.000000 -0.087537 -0.543589 0.000000 0.087729 -0.845622 0.000000 0.093209 -0.963287 0.000000 0.000000 -1.147366 0.000000 -0.093209 -0.963287 0.000000 -0.087729 -0.845622 0.000000 0.087537 -0.543589 0.000000 0.015155 -0.124990 0.000000 0.090872 0.186174 0.000000 0.057477 0.441940 0.000000 0.033449 0.499295 0.000000 0.009656 0.520903 0.000000 -0.023307 0.451657 0.000000 -0.047589 0.377017 0.000000 -0.081483 0.277295 0.000000 -0.092552 0.188790 0.000000 -0.101988 0.104957 0.000000 -0.080887 0.032793 0.000000 -0.048863 -0.012502 0.000000 
-0.000000 -0.102702 0.000000 0.075862 -0.070587 0.000000 0.128426 -0.009249 0.000000 0.166706 0.087487 0.000000 0.165409 0.189041 0.000000 0.167698 0.291832 0.000000 0.143122 0.398081 0.000000 0.141793 0.474887 0.000000 0.128753 0.547743 0.000000 0.140173 0.539314 0.000000 0.134594 0.512389 0.000000 0.160272 0.227810 0.000000 0.557230 0.037644 0.000000 1.070993 -0.481753 0.000000 1.261313 -1.065091 0.000000 0.699926 -1.068992 0.000000 -0.000000 -1.118414 0.000000 -0.699926 -1.068992 0.000000 -1.261313 -1.065091 0.000000 -1.070993 -0.481753 0.000000 -0.557230 0.037644 0.000000 -0.160272 0.227810 0.000000 -0.134594 0.512389 0.000000 -0.140173 0.539314 0.000000 -0.128753 0.547743 0.000000 -0.141793 0.474887 0.000000 -0.143122 0.398081 0.000000 -0.167698 0.291832 0.000000 -0.165409 0.189041 0.000000 -0.166706 0.087487 0.000000 -0.128426 -0.009249 0.000000 -0.075862 -0.070587 0.000000 
-0.000000 -0.186021 0.000000 0.112473 -0.140927 0.000000 0.192824 -0.058051 0.000000 0.253713 0.067973 0.000000 0.260562 0.187798 0.000000 0.275181 0.299583 0.000000 0.253591 0.402922 0.000000 0.271179 0.466026 0.000000 0.278906 0.522523 0.000000 0.350497 0.493453 0.000000 0.413093 0.421842 0.000000 0.970159 -0.236462 0.000000 1.759839 -1.035711 0.000000 1.986304 -1.247672 0.000000 1.116293 -0.474556 0.000000 0.310513 0.298026 0.000000 -0.000000 0.252487 0.000000 -0.310513 0.298026 0.000000 -1.116293 -0.474556 0.000000 -1.986304 -1.247672 0.000000 -1.759839 -1.035711 0.000000 -0.970159 -0.236462 0.000000 -0.413093 0.421842 0.000000 -0.350497 0.493453 0.000000 -0.278906 0.522523 0.000000 -0.271179 0.466026 0.000000 -0.253591 0.402922 0.000000 -0.275181 0.299583 0.000000 -0.260562 0.187798 0.000000 -0.253713 0.067973 0.000000 -0.192824 -0.058051 0.000000 -0.112473 -0.140927 0.000000 
-0.000000 -0.327648 0.000000 0.144137 -0.263410 0.000000 0.246679 -0.150489 0.000000 0.322051 0.019748 0.000000 0.325504 0.167573 0.000000 0.338064 0.298804 0.000000 0.300791 0.402082 0.000000 0.313719 0.449572 0.000000 0.316776 0.468425 0.000000 0.467677 0.405127 0.000000 0.641622 -0.107272 0.000000 1.219371 -1.118936 0.000000 0.917571 -0.978501 0.000000 -0.441367 0.161794 0.000000 -1.331145 0.610700 0.000000 -0.764885 0.047301 0.000000 0.000000 -0.497389 0.000000 0.764885 0.047301 0.000000 1.331145 0.610700 0.000000 0.441367 0.161794 0.000000 -0.917571 -0.978501 0.000000 -1.219371 -1.118936 0.000000 -0.641622 -0.107272 0.000000 -0.467677 0.405127 0.000000 -0.316776 0.468425 0.000000 -0.313719 0.449572 0.000000 -0.300791 0.402082 0.000000 -0.338064 0.298804 0.000000 -0.325504 0.167573 0.000000 -0.322051 0.019748 0.000000 -0.246679 -0.150489 0.000000 -0.144137 -0.263410 0.000000 
-0.000000 -0.474296 0.000000 0.177569 -0.387606 0.000000 0.306525 -0.235964 0.000000 0.403510 -0.010852 0.000000 0.408645 0.171786 0.000000 0.423677 0.324296 0.000000 0.364098 0.427267 0.000000 0.354718 0.450041 0.000000 0.416807 0.368564 0.000000 0.417201 0.168607 0.000000 0.551507 -0.329853 0.000000 0.354987 -0.512411 0.000000 -0.527477 0.625028 0.000000 -0.721738 1.001044 0.000000 -0.187634 -0.151038 0.000000 0.235350 -1.033119 0.000000 0.000000 -1.277284 0.000000 -0.235350 -1.033119 0.000000 0.187634 -0.151038 0.000000 0.721738 1.001044 0.000000 0.527477 0.625028 0.000000 -0.354987 -0.512411 0.000000 -0.551507 -0.329853 0.000000 -0.417201 0.168607 0.000000 -0.416807 0.368564 0.000000 -0.354718 0.450041 0.000000 -0.364098 0.427267 0.000000 -0.423677 0.324296 0.000000 -0.408645 0.171786 0.000000 -0.403510 -0.010852 0.000000 -0.306525 -0.235964 0.000000 -0.177569 -0.387606 0.000000 
0.000000 -0.682785 0.000000 0.190768 -0.569935 0.000000 0.331762 -0.376430 0.000000 0.437548 -0.082373 0.000000 0.432758 0.147406 0.000000 0.428669 0.343352 0.000000 0.305848 0.471041 0.000000 0.243795 0.396863 0.000000 0.330502 0.405943 0.000000 -0.083444 0.270427 0.000000 0.102207 -0.045059 0.000000 -0.176567 -0.039951 0.000000 -0.307659 0.098224 0.000000 0.614623 -0.178049 0.000000 1.051497 -0.346389 0.000000 0.726741 -0.140334 0.000000 0.000000 -0.026688 0.000000 -0.726741 -0.140334 0.000000 -1.051497 -0.346389 0.000000 -0.614623 -0.178049 0.000000 0.307659 0.098224 0.000000 0.176567 -0.039951 0.000000 -0.102207 -0.045059 0.000000 0.083444 0.270427 0.000000 -0.330502 0.405943 0.000000 -0.243795 0.396863 0.000000 -0.305848 0.471041 0.000000 -0.428669 0.343352 0.000000 -0.432758 0.147406 0.000000 -0.437548 -0.082373 0.000000 -0.331762 -0.376430 0.000000 -0.190768 -0.569935 0.000000 
0.000000 -0.855832 0.000000 0.185679 -0.719368 0.000000 0.332364 -0.482744 0.000000 0.455248 -0.111848 0.000000 0.463663 0.180665 0.000000 0.509761 0.451207 0.000000 0.331507 0.612141 0.000000 0.488308 0.425386 0.000000 0.073863 0.695803 0.000000 -0.291979 0.396902 0.000000 0.335771 -0.236730 0.000000 0.056860 -0.102544 0.000000 0.186795 -0.166162 0.000000 0.447160 -0.358112 0.000000 0.382762 -0.263156 0.000000 0.214691 0.018377 0.000000 0.000000 0.176198 0.000000 -0.214691 0.018377 0.000000 -0.382762 -0.263156 0.000000 -0.447160 -0.358112 0.000000 -0.186795 -0.166162 0.000000 -0.056860 -0.102544 0.000000 -0.335771 -0.236730 0.000000 0.291979 0.396902 0.000000 -0.073863 0.695803 0.000000 -0.488308 0.425386 0.000000 -0.331507 0.612141 0.000000 -0.509761 0.451207 0.000000 -0.463663 0.180665 0.000000 -0.455248 -0.111848 0.000000 -0.332364 -0.482744 0.000000 -0.185679 -0.719368 0.000000 
0.000000 -1.054143 0.000000 0.142681 -0.902298 0.000000 0.269714 -0.646000 0.000000 0.392860 -0.213672 0.000000 0.421875 0.092893 0.000000 0.492426 0.475507 0.000000 0.258327 0.492494 0.000000 0.590417 0.654507 0.000000 -0.536937 1.186231 0.000000 -0.010331 0.008519 0.000000 0.436994 -0.393898 0.000000 -0.198059 0.109025 0.000000 0.078053 -0.292075 0.000000 -0.045874 -0.374016 0.000000 -0.017474 -0.113920 0.000000 -0.053782 0.242428 0.000000 0.000000 0.402694 0.000000 0.053782 0.242428 0.000000 0.017474 -0.113920 0.000000 0.045874 -0.374016 0.000000 -0.078053 -0.292075 0.000000 0.198059 0.109025 0.000000 -0.436994 -0.393898 0.000000 0.010331 0.008519 0.000000 0.536937 1.186231 0.000000 -0.590417 0.654507 0.000000 -0.258327 0.492494 0.000000 -0.492426 0.475507 0.000000 -0.421875 0.092893 0.000000 -0.392860 -0.213672 0.000000 -0.269714 -0.646000 0.000000 -0.142681 -0.902298 0.000000 
0.000000 -1.141194 0.000000 0.055249 -0.989082 0.000000 0.134741 -0.732924 0.000000 0.219794 -0.264009 0.000000 0.305224 0.081099 0.000000 0.313978 0.614755 0.000000 0.288101 0.514150 0.000000 0.154332 1.220650 0.000000 -0.587428 1.296552 0.000000 0.452808 -0.577028 0.000000 0.089504 -0.049002 0.000000 -0.339856 0.256396 0.000000 -0.100010 -0.318347 0.000000 -0.299185 -0.262585 0.000000 -0.243004 -0.255248 0.000000 -0.185141 0.000903 0.000000 0.000000 0.068633 0.000000 0.185141 0.000903 0.000000 0.243004 -0.255248 0.000000 0.299185 -0.262585 0.000000 0.100010 -0.318347 0.000000 0.339856 0.256396 0.000000 -0.089504 -0.049002 0.000000 -0.452808 -0.577028 0.000000 0.587428 1.296552 0.000000 -0.154332 1.220650 0.000000 -0.288101 0.514150 0.000000 -0.313978 0.614755 0.000000 -0.305224 0.081099 0.000000 -0.219794 -0.264009 0.000000 -0.134741 -0.732924 0.000000 -0.055249 -0.989082 0.000000 
0.000000 -1.164641 0.000000 -0.078008 -1.037039 0.000000 -0.085929 -0.810545 0.000000 -0.059522 -0.384155 0.000000 0.093850 -0.001291 0.000000 0.097016 0.492630 0.000000 0.229093 0.652140 0.000000 -0.497578 1.530037 0.000000 0.012434 0.887755 0.000000 0.516535 -0.668413 0.000000 -0.057918 0.398765 0.000000 0.013022 0.298539 0.000000 -0.010979 -0.332747 0.000000 -0.061728 -0.231022 0.000000 -0.091019 -0.227964 0.000000 -0.081694 -0.000576 0.000000 0.000000 0.032413 0.000000 0.081694 -0.000576 0.000000 0.091019 -0.227964 0.000000 0.061728 -0.231022 0.000000 0.010979 -0.332747 0.000000 -0.013022 0.298539 0.000000 0.057918 0.398765 0.000000 -0.516535 -0.668413 0.000000 -0.012434 0.887755 0.000000 0.497578 1.530037 0.000000 -0.229093 0.652140 0.000000 -0.097016 0.492630 0.000000 -0.093850 -0.001291 0.000000 0.059522 -0.384155 0.000000 0.085929 -0.810545 0.000000 0.078008 -1.037039 0.000000 
0.000000 -0.985178 0.000000 -0.262586 -0.903153 0.000000 -0.432730 -0.751409 0.000000 -0.539626 -0.443789 0.000000 -0.474825 -0.075439 0.000000 -0.496447 0.479512 0.000000 -0.394244 1.108744 0.000000 -0.713600 1.437309 0.000000 0.448713 0.282439 0.000000 0.160726 -0.506675 0.000000 -0.186791 0.454511 0.000000 0.232373 0.209456 0.000000 0.045523 -0.243597 0.000000 0.044302 -0.182544 0.000000 -0.058530 -0.235282 0.000000 -0.044763 -0.090116 0.000000 -0.000000 -0.094756 0.000000 0.044763 -0.090116 0.000000 0.058530 -0.235282 0.000000 -0.044302 -0.182544 0.000000 -0.045523 -0.243597 0.000000 -0.232373 0.209456 0.000000 0.186791 0.454511 0.000000 -0.160726 -0.506675 0.000000 -0.448713 0.282439 0.000000 0.713600 1.437309 0.000000 0.394244 1.108744 0.000000 0.496447 0.479512 0.000000 0.474825 -0.075439 0.000000 0.539626 -0.443789 0.000000 0.432730 -0.751409 0.000000 0.262586 -0.903153 0.000000 
0.000000 -0.639468 0.000000 -0.492589 -0.604309 0.000000 -0.903153 -0.533505 0.000000 -1.243999 -0.342059 0.000000 -1.346942 -0.044470 0.000000 -1.319438 0.412049 0.000000 -0.867430 0.869293 0.000000 -0.210693 0.687079 0.000000 0.569879 0.013429 0.000000 0.071745 -0.032909 0.000000 0.063204 0.327119 0.000000 0.526257 0.066225 0.000000 0.272660 -0.144677 0.000000 0.282660 -0.126970 0.000000 0.090116 -0.138899 0.000000 0.047378 -0.059106 0.000000 -0.000000 -0.057113 0.000000 -0.047378 -0.059106 0.000000 -0.090116 -0.138899 0.000000 -0.282660 -0.126970 0.000000 -0.272660 -0.144677 0.000000 -0.526257 0.066225 0.000000 -0.063204 0.327119 0.000000 -0.071745 -0.032909 0.000000 -0.569879 0.013429 0.000000 0.210693 0.687079 0.000000 0.867430 0.869293 0.000000 1.319438 0.412049 0.000000 1.346942 -0.044470 0.000000 1.243999 -0.342059 0.000000 0.903153 -0.533505 0.000000 0.492589 -0.604309 0.000000 
-0.000000 0.000000 0.000000 -0.639468 0.000000 0.000000 -1.208619 0.000000 0.000000 -1.706479 0.000000 0.000000 -1.892738 -0.000000 0.000000 -1.795418 -0.000000 0.000000 -1.068640 -0.000000 0.000000 -0.056832 -0.000000 0.000000 0.305518 0.000000 0.000000 -0.029974 0.000000 0.000000 0.239701 0.000000 0.000000 0.624263 -0.000000 0.000000 0.372151 -0.000000 0.000000 0.334910 -0.000000 0.000000 0.118211 -0.000000 0.000000 0.057113 -0.000000 0.000000 -0.000000 -0.000000 0.000000 -0.057113 -0.000000 0.000000 -0.118211 -0.000000 0.000000 -0.334910 -0.000000 0.000000 -0.372151 -0.000000 0.000000 -0.624263 -0.000000 0.000000 -0.239701 0.000000 0.000000 0.029974 0.000000 0.000000 -0.305518 0.000000 0.000000 0.056832 -0.000000 0.000000 1.068640 -0.000000 0.000000 1.795418 -0.000000 0.000000 1.892738 -0.000000 0.000000 1.706479 0.000000 0.000000 1.208619 0.000000 0.000000 0.639468 0.000000 0.000000 
-0.000000 0.639468 0.000000 -0.492589 0.604309 0.000000 -0.903153 0.533505 0.000000 -1.243999 0.342059 0.000000 -1.346942 0.044470 0.000000 -1.319438 -0.412049 0.000000 -0.867430 -0.869293 0.000000 -0.210693 -0.687079 0.000000 0.569879 -0.013429 0.000000 0.071745 0.032909 0.000000 0.063204 -0.327119 0.000000 0.526257 -0.066225 0.000000 0.272660 0.144677 0.000000 0.282660 0.126970 0.000000 0.090116 0.138899 0.000000 0.047378 0.059106 0.000000 -0.000000 0.057113 0.000000 -0.047378 0.059106 0.000000 -0.090116 0.138899 0.000000 -0.282660 0.126970 0.000000 -0.272660 0.144677 0.000000 -0.526257 -0.066225 0.000000 -0.063204 -0.327119 0.000000 -0.071745 0.032909 0.000000 -0.569879 -0.013429 0.000000 0.210693 -0.687079 0.000000 0.867430 -0.869293 0.000000 1.319438 -0.412049 0.000000 1.346942 0.044470 0.000000 1.243999 0.342059 0.000000 0.903153 0.533505 0.000000 0.492589 0.604309 0.000000 
-0.000000 0.985178 0.000000 -0.262586 0.903153 0.000000 -0.432730 0.751409 0.000000 -0.539626 0.443789 0.000000 -0.474825 0.075439 0.000000 -0.496447 -0.479512 0.000000 -0.394244 -1.108744 0.000000 -0.713600 -1.437309 0.000000 0.448713 -0.282439 0.000000 0.160726 0.506675 0.000000 -0.186791 -0.454511 0.000000 0.232373 -0.209456 0.000000 0.045523 0.243597 0.000000 0.044302 0.182544 0.000000 -0.058530 0.235282 0.000000 -0.044763 0.090116 0.000000 -0.000000 0.094756 0.000000 0.044763 0.090116 0.000000 0.058530 0.235282 0.000000 -0.044302 0.182544 0.000000 -0.045523 0.243597 0.000000 -0.232373 -0.209456 0.000000 0.186791 -0.454511 0.000000 -0.160726 0.506675 0.000000 -0.448713 -0.282439 0.000000 0.713600 -1.437309 0.000000 0.394244 -1.108744 0.000000 0.496447 -0.479512 0.000000 0.474825 0.075439 0.000000 0.539626 0.443789 0.000000 0.432730 0.751409 0.000000 0.262586 0.903153 0.000000 
-0.000000 1.164641 0.000000 -0.078008 1.037039 0.000000 -0.085929 0.810545 0.000000 -0.059522 0.384155 0.000000 0.093850 0.001291 0.000000 0.097016 -0.492630 0.000000 0.229093 -0.652140 0.000000 -0.497578 -1.530037 0.000000 0.012434 -0.887755 0.000000 0.516535 0.668413 0.000000 -0.057918 -0.398765 0.000000 0.013022 -0.298539 0.000000 -0.010979 0.332747 0.000000 -0.061728 0.231022 0.000000 -0.091019 0.227964 0.000000 -0.081694 0.000576 0.000000 -0.000000 -0.032413 0.000000 0.081694 0.000576 0.000000 0.091019 0.227964 0.000000 0.061728 0.231022 0.000000 0.010979 0.332747 0.000000 -0.013022 -0.298539 0.000000 0.057918 -0.398765 0.000000 -0.516535 0.668413 0.000000 -0.012434 -0.887755 0.000000 0.497578 -1.530037 0.000000 -0.229093 -0.652140 0.000000 -0.097016 -0.492630 0.000000 -0.093850 0.001291 0.000000 0.059522 0.384155 0.000000 0.085929 0.810545 0.000000 0.078008 1.037039 0.000000 
-0.000000 1.141194 0.000000 0.055249 0.989082 0.000000 0.134741 0.732924 0.000000 0.219794 0.264009 0.000000 0.305224 -0.081099 0.000000 0.313978 -0.614755 0.000000 0.288101 -0.514150 0.000000 0.154332 -1.220650 0.000000 -0.587428 -1.296552 0.000000 0.452808 0.577028 0.000000 0.089504 0.049002 0.000000 -0.339856 -0.256396 0.000000 -0.100010 0.318347 0.000000 -0.299185 0.262585 0.000000 -0.243004 0.255248 0.000000 -0.185141 -0.000903 0.000000 -0.000000 -0.068633 0.000000 0.185141 -0.000903 0.000000 0.243004 0.255248 0.000000 0.299185 0.262585 0.000000 0.100010 0.318347 0.000000 0.339856 -0.256396 0.000000 -0.089504 0.049002 0.000000 -0.452808 0.577028 0.000000 0.587428 -1.296552 0.000000 -0.154332 -1.220650 0.000000 -0.288101 -0.514150 0.000000 -0.313978 -0.614755 0.000000 -0.305224 -0.081099 0.000000 -0.219794 0.264009 0.000000 -0.134741 0.732924 0.000000 -0.055249 0.989082 0.000000 
-0.000000 1.054143 0.000000 0.142681 0.902298 0.000000 0.269714 0.646000 0.000000 0.392860 0.213672 0.000000 0.421875 -0.092893 0.000000 0.492426 -0.475507 0.000000 0.258327 -0.492494 0.000000 0.590417 -0.654507 0.000000 -0.536937 -1.186231 0.000000 -0.010331 -0.008519 0.000000 0.436994 0.393898 0.000000 -0.198059 -0.109025 0.000000 0.078053 0.292075 0.000000 -0.045874 0.374016 0.000000 -0.017474 0.113920 0.000000 -0.053782 -0.242428 0.000000 -0.000000 -0.402694 0.000000 0.053782 -0.242428 0.000000 0.017474 0.113920 0.000000 0.045874 0.374016 0.000000 -0.078053 0.292075 0.000000 0.198059 -0.109025 0.000000 -0.436994 0.393898 0.000000 0.010331 -0.008519 0.000000 0.536937 -1.186231 0.000000 -0.590417 -0.654507 0.000000 -0.258327 -0.492494 0.000000 -0.492426 -0.475507 0.000000 -0.421875 -0.092893 0.000000 -0.392860 0.213672 0.000000 -0.269714 0.646000 0.000000 -0.142681 0.902298 0.000000 
-0.000000 0.855832 0.000000 0.185679 0.719368 0.000000 0.332364 0.482744 0.000000 0.455248 0.111848 0.000000 0.463663 -0.180665 0.000000 0.509761 -0.451207 0.000000 0.331507 -0.612141 0.000000 0.488308 -0.425386 0.000000 0.073863 -0.695803 0.000000 -0.291979 -0.396902 0.000000 0.335771 0.236730 0.000000 0.056860 0.102544 0.000000 0.186795 0.166162 0.000000 0.447160 0.358112 0.000000 0.382762 0.263156 0.000000 0.214691 -0.018377 0.000000 -0.000000 -0.176198 0.000000 -0.214691 -0.018377 0.000000 -0.382762 0.263156 0.000000 -0.447160 0.358112 0.000000 -0.186795 0.166162 0.000000 -0.056860 0.102544 0.000000 -0.335771 0.236730 0.000000 0.291979 -0.396902 0.000000 -0.073863 -0.695803 0.000000 -0.488308 -0.425386 0.000000 -0.331507 -0.612141 0.000000 -0.509761 -0.451207 0.000000 -0.463663 -0.180665 0.000000 -0.455248 0.111848 0.000000 -0.332364 0.482744 0.000000 -0.185679 0.719368 0.000000 
0.000000 0.682785 0.000000 0.190768 0.569935 0.000000 0.331762 0.376430 0.000000 0.437548 0.082373 0.000000 0.432758 -0.147406 0.000000 0.428669 -0.343352 0.000000 0.305848 -0.471041 0.000000 0.243795 -0.396863 0.000000 0.330502 -0.405943 0.000000 -0.083444 -0.270427 0.000000 0.102207 0.045059 0.000000 -0.176567 0.039951 0.000000 -0.307659 -0.098224 0.000000 0.614623 0.178049 0.000000 1.051497 0.346389 0.000000 0.726741 0.140334 0.000000 -0.000000 0.026688 0.000000 -0.726741 0.140334 0.000000 -1.051497 0.346389 0.000000 -0.614623 0.178049 0.000000 0.307659 -0.098224 0.000000 0.176567 0.039951 0.000000 -0.102207 0.045059 0.000000 0.083444 -0.270427 0.000000 -0.330502 -0.405943 0.000000 -0.243795 -0.396863 0.000000 -0.305848 -0.471041 0.000000 -0.428669 -0.343352 0.000000 -0.432758 -0.147406 0.000000 -0.437548 0.082373 0.000000 -0.331762 0.376430 0.000000 -0.190768 0.569935 0.000000 
0.000000 0.474296 0.000000 0.177569 0.387606 0.000000 0.306525 0.235964 0.000000 0.403510 0.010852 0.000000 0.408645 -0.171786 0.000000 0.423677 -0.324296 0.000000 0.364098 -0.427267 0.000000 0.354718 -0.450041 0.000000 0.416807 -0.368564 0.000000 0.417201 -0.168607 0.000000 0.551507 0.329853 0.000000 0.354987 0.512411 0.000000 -0.527477 -0.625028 0.000000 -0.721738 -1.001044 0.000000 -0.187634 0.151038 0.000000 0.235350 1.033119 0.000000 -0.000000 1.277284 0.000000 -0.235350 1.033119 0.000000 0.187634 0.151038 0.000000 0.721738 -1.001044 0.000000 0.527477 -0.625028 0.000000 -0.354987 0.512411 0.000000 -0.551507 0.329853 0.000000 -0.417201 -0.168607 0.000000 -0.416807 -0.368564 0.000000 -0.354718 -0.450041 0.000000 -0.364098 -0.427267 0.000000 -0.423677 -0.324296 0.000000 -0.408645 -0.171786 0.000000 -0.403510 0.010852 0.000000 -0.306525 0.235964 0.000000 -0.177569 0.387606 0.000000 
0.000000 0.327648 0.000000 0.144137 0.263410 0.000000 0.246679 0.150489 0.000000 0.322051 -0.019748 0.000000 0.325504 -0.167573 0.000000 0.338064 -0.298804 0.000000 0.300791 -0.402082 0.000000 0.313719 -0.449572 0.000000 0.316776 -0.468425 0.000000 0.467677 -0.405127 0.000000 0.641622 0.107272 0.000000 1.219371 1.118936 0.000000 0.917571 0.978501 0.000000 -0.441367 -0.161794 0.000000 -1.331145 -0.610700 0.000000 -0.764885 -0.047301 0.000000 0.000000 0.497389 0.000000 0.764885 -0.047301 0.000000 1.331145 -0.610700 0.000000 0.441367 -0.161794 0.000000 -0.917571 0.978501 0.000000 -1.219371 1.118936 0.000000 -0.641622 0.107272 0.000000 -0.467677 -0.405127 0.000000 -0.316776 -0.468425 0.000000 -0.313719 -0.449572 0.000000 -0.300791 -0.402082 0.000000 -0.338064 -0.298804 0.000000 -0.325504 -0.167573 0.000000 -0.322051 -0.019748 0.000000 -0.246679 0.150489 0.000000 -0.144137 0.263410 0.000000 
0.000000 0.186021 0.000000 0.112473 0.140927 0.000000 0.192824 0.058051 0.000000 0.253713 -0.067973 0.000000 0.260562 -0.187798 0.000000 0.275181 -0.299583 0.000000 0.253591 -0.402922 0.000000 0.271179 -0.466026 0.000000 0.278906 -0.522523 0.000000 0.350497 -0.493453 0.000000 0.413093 -0.421842 0.000000 0.970159 0.236462 0.000000 1.759839 1.035711 0.000000 1.986304 1.247672 0.000000 1.116293 0.474556 0.000000 0.310513 -0.298026 0.000000 -0.000000 -0.252487 0.000000 -0.310513 -0.298026 0.000000 -1.116293 0.474556 0.000000 -1.986304 1.247672 0.000000 -1.759839 1.035711 0.000000 -0.970159 0.236462 0.000000 -0.413093 -0.421842 0.000000 -0.350497 -0.493453 0.000000 -0.278906 -0.522523 0.000000 -0.271179 -0.466026 0.000000 -0.253591 -0.402922 0.000000 -0.275181 -0.299583 0.000000 -0.260562 -0.187798 0.000000 -0.253713 -0.067973 0.000000 -0.192824 0.058051 0.000000 -0.112473 0.140927 0.000000 
-0.000000 0.102702 0.000000 0.075862 0.070587 0.000000 0.128426 0.009249 0.000000 0.166706 -0.087487 0.000000 0.165409 -0.189041 0.000000 0.167698 -0.291832 0.000000 0.143122 -0.398081 0.000000 0.141793 -0.474887 0.000000 0.128753 -0.547743 0.000000 0.140173 -0.539314 0.000000 0.134594 -0.512389 0.000000 0.160272 -0.227810 0.000000 0.557230 -0.037644 0.000000 1.070993 0.481753 0.000000 1.261313 1.065091 0.000000 0.699926 1.068992 0.000000 -0.000000 1.118414 0.000000 -0.699926 1.068992 0.000000 -1.261313 1.065091 0.000000 -1.070993 0.481753 0.000000 -0.557230 -0.037644 0.000000 -0.160272 -0.227810 0.000000 -0.134594 -0.512389 0.000000 -0.140173 -0.539314 0.000000 -0.128753 -0.547743 0.000000 -0.141793 -0.474887 0.000000 -0.143122 -0.398081 0.000000 -0.167698 -0.291832 0.000000 -0.165409 -0.189041 0.000000 -0.166706 -0.087487 0.000000 -0.128426 0.009249 0.000000 -0.075862 0.070587 0.000000 
0.000000 0.034297 0.000000 0.048863 0.012502 0.000000 0.080887 -0.032793 0.000000 0.101988 -0.104957 0.000000 0.092552 -0.188790 0.000000 0.081483 -0.277295 0.000000 0.047589 -0.377017 0.000000 0.023307 -0.451657 0.000000 -0.009656 -0.520903 0.000000 -0.033449 -0.499295 0.000000 -0.057477 -0.441940 0.000000 -0.090872 -0.186174 0.000000 -0.015155 0.124990 0.000000 -0.087537 0.543589 0.000000 0.087729 0.845622 0.000000 0.093209 0.963287 0.000000 -0.000000 1.147366 0.000000 -0.093209 0.963287 0.000000 -0.087729 0.845622 0.000000 0.087537 0.543589 0.000000 0.015155 0.124990 0.000000 0.090872 -0.186174 0.000000 0.057477 -0.441940 0.000000 0.033449 -0.499295 0.000000 0.009656 -0.520903 0.000000 -0.023307 -0.451657 0.000000 -0.047589 -0.377017 0.000000 -0.081483 -0.277295 0.000000 -0.092552 -0.188790 0.000000 -0.101988 -0.104957 0.000000 -0.080887 -0.032793 0.000000 -0.048863 0.012502 0.000000 
-0.000000 0.004975 0.000000 0.022894 -0.010300 0.000000 0.033337 -0.043876 0.000000 0.033246 -0.099153 0.000000 0.008252 -0.168536 0.000000 -0.026576 -0.246869 0.000000 -0.083379 -0.339904 0.000000 -0.148355 -0.417642 0.000000 -0.220860 -0.490988 0.000000 -0.301411 -0.491494 0.000000 -0.352608 -0.454966 0.000000 -0.412568 -0.270132 0.000000 -0.344134 -0.040979 0.000000 -0.289818 0.378869 0.000000 -0.100170 0.884346 0.000000 -0.068332 1.156721 0.000000 0.000000 1.304832 0.000000 0.068332 1.156721 0.000000 0.100170 0.884346 0.000000 0.289818 0.378869 0.000000 0.344134 -0.040979 0.000000 0.412568 -0.270132 0.000000 0.352608 -0.454966 0.000000 0.301411 -0.491494 0.000000 0.220860 -0.490988 0.000000 0.148355 -0.417642 0.000000 0.083379 -0.339904 0.000000 0.026576 -0.246869 0.000000 -0.008252 -0.168536 0.000000 -0.033246 -0.099153 0.000000 -0.033337 -0.043876 0.000000 -0.022894 -0.010300 0.000000 
-0.000000 -0.011490 0.000000 0.006689 -0.020836 0.000000 0.002836 -0.043146 0.000000 -0.012507 -0.079871 0.000000 -0.052216 -0.128968 0.000000 -0.110211 -0.185665 0.000000 -0.196312 -0.255238 0.000000 -0.307604 -0.314176 0.000000 -0.436235 -0.367848 0.000000 -0.588108 -0.367546 0.000000 -0.712289 -0.330783 0.000000 -0.841426 -0.194648 0.000000 -0.849242 0.002239 0.000000 -0.854771 0.299626 0.000000 -0.619100 0.624137 0.000000 -0.337954 0.863117 0.000000 0.000000 1.010702 0.000000 0.337954 0.863117 0.000000 0.619100 0.624137 0.000000 0.854771 0.299626 0.000000 0.849242 0.002239 0.000000 0.841426 -0.194648 0.000000 0.712289 -0.330783 0.000000 0.588108 -0.367546 0.000000 0.436235 -0.367848 0.000000 0.307604 -0.314176 0.000000 0.196312 -0.255238 0.000000 0.110211 -0.185665 0.000000 0.052216 -0.128968 0.000000 0.012507 -0.079871 0.000000 -0.002836 -0.043146 0.000000 -0.006689 -0.020836 0.000000 
-0.000000 -0.008404 0.000000 -0.005745 -0.013136 0.000000 -0.020836 -0.024680 0.000000 -0.048891 -0.044101 0.000000 -0.100707 -0.070832 0.000000 -0.177858 -0.102773 0.000000 -0.286372 -0.142511 0.000000 -0.433096 -0.177719 0.000000 -0.600548 -0.210483 0.000000 -0.800944 -0.215440 0.000000 -0.968095 -0.201648 0.000000 -1.131727 -0.133179 0.000000 -1.162743 -0.027635 0.000000 -1.129488 0.148728 0.000000 -0.863117 0.367529 0.000000 -0.505351 0.537621 0.000000 0.000000 0.628923 0.000000 0.505351 0.537621 0.000000 0.863117 0.367529 0.000000 1.129488 0.148728 0.000000 1.162743 -0.027635 0.000000 1.131727 -0.133179 0.000000 0.968095 -0.201648 0.000000 0.800944 -0.215440 0.000000 0.600548 -0.210483 0.000000 0.433096 -0.177719 0.000000 0.286372 -0.142511 0.000000 0.177858 -0.102773 0.000000 0.100707 -0.070832 0.000000 0.048891 -0.044101 0.000000 0.020836 -0.024680 0.000000 0.005745 -0.013136 0.000000 
