# vtk DataFile Version 2.0
Comment goes here
ASCII

DATASET STRUCTURED_POINTS
FIELD FieldData 1
TIME 1 1 double
1.08000000
DIMENSIONS    32   32   1

ORIGIN    0.000   0.000   0.000
SPACING   0.03125 0.03125   1.000

POINT_DATA   1024
VECTORS u double

-0.000000 -0.000000 0.000000 -0.016126 -0.000000 0.000000 -0.050720 -0.000000 0.000000 -0.111818 -0.000000 0.000000 -0.217066 -0.000000 0.000000 -0.358904 -0.000000 0.000000 -0.548130 -0.000000 0.000000 -0.758549 -0.000000 0.000000 -0.990844 0.000000 0.000000 -1.197979 0.000000 0.000000 -1.379249 0.000000 0.000000 -1.473013 0.000000 0.000000 -1.491021 0.000000 0.000000 -1.362691 0.000000 0.000000 -1.101699 0.000000 0.000000 -0.632606 0.000000 0.000000 0.000000 0.000000 0.000000 0.632606 -0.000000 0.000000 1.101699 -0.000000 0.000000 1.362691 -0.000000 0.000000 1.491021 -0.000000 0.000000 1.473013 -0.000000 0.000000 1.379249 -0.000000 0.000000 1.197979 -0.000000 0.000000 0.990844 -0.000000 0.000000 0.758549 -0.000000 0.000000 0.548130 -0.000000 0.000000 0.358904 -0.000000 0.000000 0.217066 -0.000000 0.000000 0.111818 -0.000000 0.000000 0.050720 -0.000000 0.000000 0.016126 -0.000000 0.000000 
-0.000000 0.016126 0.000000 -0.008463 0.025360 0.000000 -0.035281 0.047846 0.000000 -0.088013 0.083173 0.000000 -0.183510 0.123543 0.000000 -0.313166 0.165532 0.000000 -0.487844 0.199823 0.000000 -0.680586 0.221357 0.000000 -0.894679 0.219715 0.000000 -1.082428 0.194203 0.000000 -1.249028 0.137517 0.000000 -1.333068 0.055886 0.000000 -1.352885 -0.055161 0.000000 -1.240111 -0.194661 0.000000 -1.015500 -0.365043 0.000000 -0.582749 -0.550849 0.000000 0.000000 -0.632606 0.000000 0.582749 -0.550849 0.000000 1.015500 -0.365043 0.000000 1.240111 -0.194661 0.000000 1.352885 -0.055161 0.000000 1.333068 0.055886 0.000000 1.249028 0.137517 0.000000 1.082428 0.194203 0.000000 0.894679 0.219715 0.000000 0.680586 0.221357 0.000000 0.487844 0.199823 0.000000 0.313166 0.165532 0.000000 0.183510 0.123543 0.000000 0.088013 0.083173 0.000000 0.035281 0.047846 0.000000 0.008463 0.025360 0.000000 
-0.000000 0.016927 0.000000 0.012908 0.035281 0.000000 0.006487 0.079550 0.000000 -0.026109 0.148229 0.000000 -0.100777 0.225153 0.000000 -0.207048 0.304333 0.000000 -0.354550 0.367419 0.000000 -0.518441 0.406835 0.000000 -0.701349 0.401842 0.000000 -0.861878 0.354350 0.000000 -1.005187 0.250640 0.000000 -1.076251 0.103856 0.000000 -1.097128 -0.092956 0.000000 -1.002449 -0.337385 0.000000 -0.822530 -0.657362 0.000000 -0.463512 -1.015500 0.000000 -0.000000 -1.165499 0.000000 0.463512 -1.015500 0.000000 0.822530 -0.657362 0.000000 1.002449 -0.337385 0.000000 1.097128 -0.092956 0.000000 1.076251 0.103856 0.000000 1.005187 0.250640 0.000000 0.861878 0.354350 0.000000 0.701349 0.401842 0.000000 0.518441 0.406835 0.000000 0.354550 0.367419 0.000000 0.207048 0.304333 0.000000 0.100777 0.225153 0.000000 0.026109 0.148229 0.000000 -0.006487 0.079550 0.000000 -0.012908 0.035281 0.000000 
-0.000000 -0.009689 0.000000 0.044548 0.018873 0.000000 0.068335 0.086863 0.000000 0.064851 0.190437 0.000000 0.020336 0.304482 0.000000 -0.051854 0.419305 0.000000 -0.158998 0.511216 0.000000 -0.276605 0.568156 0.000000 -0.410050 0.563151 0.000000 -0.519436 0.498041 0.000000 -0.619464 0.351890 0.000000 -0.654488 0.147826 0.000000 -0.655850 -0.128962 0.000000 -0.587248 -0.469259 0.000000 -0.509519 -0.903980 0.000000 -0.274026 -1.373379 0.000000 -0.000000 -1.559630 0.000000 0.274026 -1.373379 0.000000 0.509519 -0.903980 0.000000 0.587248 -0.469259 0.000000 0.655850 -0.128962 0.000000 0.654488 0.147826 0.000000 0.619464 0.351890 0.000000 0.519436 0.498041 0.000000 0.410050 0.563151 0.000000 0.276605 0.568156 0.000000 0.158998 0.511216 0.000000 0.051854 0.419305 0.000000 -0.020336 0.304482 0.000000 -0.064851 0.190437 0.000000 -0.068335 0.086863 0.000000 -0.044548 0.018873 0.000000 
-0.000000 -0.072170 0.000000 0.084099 -0.033054 0.000000 0.144053 0.059247 0.000000 0.173613 0.196229 0.000000 0.158322 0.341858 0.000000 0.115888 0.483667 0.000000 0.040583 0.592170 0.000000 -0.044989 0.657887 0.000000 -0.144308 0.644674 0.000000 -0.229911 0.563763 0.000000 -0.310252 0.385692 0.000000 -0.339815 0.140242 0.000000 -0.341100 -0.160196 0.000000 -0.261248 -0.483715 0.000000 -0.198590 -0.970584 0.000000 -0.065436 -1.525019 0.000000 0.000000 -1.713551 0.000000 0.065436 -1.525019 0.000000 0.198590 -0.970584 0.000000 0.261248 -0.483715 0.000000 0.341100 -0.160196 0.000000 0.339815 0.140242 0.000000 0.310252 0.385692 0.000000 0.229911 0.563763 0.000000 0.144308 0.644674 0.000000 0.044989 0.657887 0.000000 -0.040583 0.592170 0.000000 -0.115888 0.483667 0.000000 -0.158322 0.341858 0.000000 -0.173613 0.196229 0.000000 -0.144053 0.059247 0.000000 -0.084099 -0.033054 0.000000 
0.000000 -0.177887 0.000000 0.121997 -0.125180 0.000000 0.216745 -0.002651 0.000000 0.276028 0.176168 0.000000 0.286540 0.362207 0.000000 0.267071 0.537045 0.000000 0.217687 0.672093 0.000000 0.158089 0.753047 0.000000 0.088552 0.748073 0.000000 0.032598 0.663985 0.000000 -0.032529 0.461794 0.000000 -0.026579 0.178674 0.000000 0.066738 -0.207528 0.000000 0.170417 -0.611769 0.000000 0.105534 -1.099793 0.000000 0.116433 -1.571970 0.000000 0.000000 -1.690502 0.000000 -0.116433 -1.571970 0.000000 -0.105534 -1.099793 0.000000 -0.170417 -0.611769 0.000000 -0.066738 -0.207528 0.000000 0.026579 0.178674 0.000000 0.032529 0.461794 0.000000 -0.032598 0.663985 0.000000 -0.088552 0.748073 0.000000 -0.158089 0.753047 0.000000 -0.217687 0.672093 0.000000 -0.267071 0.537045 0.000000 -0.286540 0.362207 0.000000 -0.276028 0.176168 0.000000 -0.216745 -0.002651 0.000000 -0.121997 -0.125180 0.000000 
0.000000 -0.316163 0.000000 0.159321 -0.249799 0.000000 0.287570 -0.094784 0.000000 0.377141 0.126434 0.000000 0.409271 0.350815 0.000000 0.408925 0.552520 0.000000 0.371722 0.701152 0.000000 0.317889 0.787023 0.000000 0.252190 0.770164 0.000000 0.173066 0.684843 0.000000 0.085378 0.444869 0.000000 0.028995 0.040976 0.000000 0.084011 -0.357192 0.000000 0.346786 -0.522511 0.000000 0.491999 -0.916600 0.000000 0.465814 -1.419486 0.000000 0.000000 -1.480684 0.000000 -0.465814 -1.419486 0.000000 -0.491999 -0.916600 0.000000 -0.346786 -0.522511 0.000000 -0.084011 -0.357192 0.000000 -0.028995 0.040976 0.000000 -0.085378 0.444869 0.000000 -0.173066 0.684843 0.000000 -0.252190 0.770164 0.000000 -0.317889 0.787023 0.000000 -0.371722 0.701152 0.000000 -0.408925 0.552520 0.000000 -0.409271 0.350815 0.000000 -0.377141 0.126434 0.000000 -0.287570 -0.094784 0.000000 -0.159321 -0.249799 0.000000 
0.000000 -0.496528 0.000000 0.179600 -0.412751 0.000000 0.326812 -0.220472 0.000000 0.431349 0.054467 0.000000 0.475324 0.330423 0.000000 0.480297 0.574594 0.000000 0.449304 0.763129 0.000000 0.386890 0.872579 0.000000 0.327793 0.892897 0.000000 0.225548 0.830796 0.000000 0.044522 0.605865 0.000000 0.244890 0.180042 0.000000 0.713428 -0.525320 0.000000 1.343786 -1.019757 0.000000 1.146024 -1.218821 0.000000 0.765941 -1.079971 0.000000 0.000000 -0.758873 0.000000 -0.765941 -1.079971 0.000000 -1.146024 -1.218821 0.000000 -1.343786 -1.019757 0.000000 -0.713428 -0.525320 0.000000 -0.244890 0.180042 0.000000 -0.044522 0.605865 0.000000 -0.225548 0.830796 0.000000 -0.327793 0.892897 0.000000 -0.386890 0.872579 0.000000 -0.449304 0.763129 0.000000 -0.480297 0.574594 0.000000 -0.475324 0.330423 0.000000 -0.431349 0.054467 0.000000 -0.326812 -0.220472 0.000000 -0.179600 -0.412751 0.000000 
0.000000 -0.675362 0.000000 0.191915 -0.576611 0.000000 0.350769 -0.346534 0.000000 0.471631 -0.022077 0.000000 0.527084 0.301867 0.000000 0.553435 0.578539 0.000000 0.528711 0.794558 0.000000 0.471389 0.908534 0.000000 0.405843 0.931507 0.000000 0.274069 0.968114 0.000000 0.226443 0.425526 0.000000 0.922419 -0.627929 0.000000 1.079885 -1.456087 0.000000 0.848308 -0.955107 0.000000 -0.088069 -0.338755 0.000000 -0.170820 -0.273462 0.000000 -0.000000 0.051197 0.000000 0.170820 -0.273462 0.000000 0.088069 -0.338755 0.000000 -0.848308 -0.955107 0.000000 -1.079885 -1.456087 0.000000 -0.922419 -0.627929 0.000000 -0.226443 0.425526 0.000000 -0.274069 0.968114 0.000000 -0.405843 0.931507 0.000000 -0.471389 0.908534 0.000000 -0.528711 0.794558 0.000000 -0.553435 0.578539 0.000000 -0.527084 0.301867 0.000000 -0.471631 -0.022077 0.000000 -0.350769 -0.346534 0.000000 -0.191915 -0.576611 0.000000 
0.000000 -0.880357 0.000000 0.176008 -0.763520 0.000000 0.321430 -0.500188 0.000000 0.433385 -0.121847 0.000000 0.483065 0.248619 0.000000 0.508369 0.572966 0.000000 0.482804 0.845175 0.000000 0.403992 0.995447 0.000000 0.457766 1.090217 0.000000 0.202788 1.010196 0.000000 0.289368 -0.042486 0.000000 0.552096 -0.673399 0.000000 -0.093396 -0.451208 0.000000 -0.770524 0.148197 0.000000 -0.805209 -0.199693 0.000000 -0.376248 -1.168040 0.000000 -0.000000 -1.100514 0.000000 0.376248 -1.168040 0.000000 0.805209 -0.199693 0.000000 0.770524 0.148197 0.000000 0.093396 -0.451208 0.000000 -0.552096 -0.673399 0.000000 -0.289368 -0.042486 0.000000 -0.202788 1.010196 0.000000 -0.457766 1.090217 0.000000 -0.403992 0.995447 0.000000 -0.482804 0.845175 0.000000 -0.508369 0.572966 0.000000 -0.483065 0.248619 0.000000 -0.433385 -0.121847 0.000000 -0.321430 -0.500188 0.000000 -0.176008 -0.763520 0.000000 
0.000000 -1.027379 0.000000 0.146952 -0.898041 0.000000 0.269767 -0.603910 0.000000 0.379251 -0.183712 0.000000 0.433073 0.226883 0.000000 0.504441 0.578799 0.000000 0.497931 0.898935 0.000000 0.486195 0.933572 0.000000 0.556864 1.132712 0.000000 -0.164042 1.136512 0.000000 0.335918 0.076217 0.000000 0.157126 -0.245166 0.000000 0.242392 -0.133467 0.000000 0.601763 -0.243295 0.000000 0.941153 -0.733030 0.000000 0.674322 -1.078671 0.000000 -0.000000 -0.701300 0.000000 -0.674322 -1.078671 0.000000 -0.941153 -0.733030 0.000000 -0.601763 -0.243295 0.000000 -0.242392 -0.133467 0.000000 -0.157126 -0.245166 0.000000 -0.335918 0.076217 0.000000 0.164042 1.136512 0.000000 -0.556864 1.132712 0.000000 -0.486195 0.933572 0.000000 -0.497931 0.898935 0.000000 -0.504441 0.578799 0.000000 -0.433073 0.226883 0.000000 -0.379251 -0.183712 0.000000 -0.269767 -0.603910 0.000000 -0.146952 -0.898041 0.000000 
0.000000 -1.174260 0.000000 0.082864 -1.033287 0.000000 0.153132 -0.732487 0.000000 0.235969 -0.285153 0.000000 0.269147 0.123429 0.000000 0.358631 0.508108 0.000000 0.242032 0.863420 0.000000 0.261248 0.936514 0.000000 -0.084875 1.740454 0.000000 -0.499608 1.231142 0.000000 0.697036 -0.363654 0.000000 0.387344 -0.579874 0.000000 0.531119 -0.895845 0.000000 0.659004 -0.550564 0.000000 0.731480 -0.272252 0.000000 0.287180 -0.226887 0.000000 0.000000 0.248131 0.000000 -0.287180 -0.226887 0.000000 -0.731480 -0.272252 0.000000 -0.659004 -0.550564 0.000000 -0.531119 -0.895845 0.000000 -0.387344 -0.579874 0.000000 -0.697036 -0.363654 0.000000 0.499608 1.231142 0.000000 0.084875 1.740454 0.000000 -0.261248 0.936514 0.000000 -0.242032 0.863420 0.000000 -0.358631 0.508108 0.000000 -0.269147 0.123429 0.000000 -0.235969 -0.285153 0.000000 -0.153132 -0.732487 0.000000 -0.082864 -1.033287 0.000000 
0.000000 -1.193107 0.000000 -0.009729 -1.051173 0.000000 -0.007156 -0.757016 0.000000 0.043088 -0.299727 0.000000 0.085439 0.104221 0.000000 0.248564 0.605915 0.000000 0.107799 0.996319 0.000000 0.487019 1.260479 0.000000 -0.614263 1.893567 0.000000 0.207474 0.354601 0.000000 1.001077 -0.810734 0.000000 0.332375 -0.079249 0.000000 0.322846 -0.405128 0.000000 -0.112391 -0.443655 0.000000 0.070221 -0.361206 0.000000 -0.127246 -0.347191 0.000000 0.000000 -0.126939 0.000000 0.127246 -0.347191 0.000000 -0.070221 -0.361206 0.000000 0.112391 -0.443655 0.000000 -0.322846 -0.405128 0.000000 -0.332375 -0.079249 0.000000 -1.001077 -0.810734 0.000000 -0.207474 0.354601 0.000000 0.614263 1.893567 0.000000 -0.487019 1.260479 0.000000 -0.107799 0.996319 0.000000 -0.248564 0.605915 0.000000 -0.085439 0.104221 0.000000 -0.043088 -0.299727 0.000000 0.007156 -0.757016 0.000000 0.009729 -1.051173 0.000000 
0.000000 -1.154803 0.000000 -0.137751 -1.026131 0.000000 -0.230518 -0.785304 0.000000 -0.234679 -0.377747 0.000000 -0.161612 -0.082047 0.000000 0.060019 0.485748 0.000000 0.156238 0.624965 0.000000 0.492102 1.658577 0.000000 -0.515501 2.020000 0.000000 1.000186 -0.384198 0.000000 0.764607 -0.488556 0.000000 0.247794 0.098357 0.000000 0.412311 -0.451079 0.000000 0.105955 -0.297940 0.000000 0.160605 -0.257398 0.000000 -0.004170 -0.156665 0.000000 0.000000 -0.006360 0.000000 0.004170 -0.156665 0.000000 -0.160605 -0.257398 0.000000 -0.105955 -0.297940 0.000000 -0.412311 -0.451079 0.000000 -0.247794 0.098357 0.000000 -0.764607 -0.488556 0.000000 -1.000186 -0.384198 0.000000 0.515501 2.020000 0.000000 -0.492102 1.658577 0.000000 -0.156238 0.624965 0.000000 -0.060019 0.485748 0.000000 0.161612 -0.082047 0.000000 0.234679 -0.377747 0.000000 0.230518 -0.785304 0.000000 0.137751 -1.026131 0.000000 
0.000000 -0.917606 0.000000 -0.305729 -0.820655 0.000000 -0.528906 -0.660087 0.000000 -0.672874 -0.368633 0.000000 -0.620123 -0.190476 0.000000 -0.586109 0.288065 0.000000 -0.246358 0.564235 0.000000 -0.556082 1.932219 0.000000 0.145141 1.385484 0.000000 1.055838 -0.925507 0.000000 0.321226 -0.058342 0.000000 0.339864 0.273048 0.000000 0.235966 -0.263289 0.000000 0.081804 -0.191950 0.000000 0.068600 -0.251081 0.000000 -0.027694 -0.186585 0.000000 0.000000 -0.135279 0.000000 0.027694 -0.186585 0.000000 -0.068600 -0.251081 0.000000 -0.081804 -0.191950 0.000000 -0.235966 -0.263289 0.000000 -0.339864 0.273048 0.000000 -0.321226 -0.058342 0.000000 -1.055838 -0.925507 0.000000 -0.145141 1.385484 0.000000 0.556082 1.932219 0.000000 0.246358 0.564235 0.000000 0.586109 0.288065 0.000000 0.620123 -0.190476 0.000000 0.672874 -0.368633 0.000000 0.528906 -0.660087 0.000000 0.305729 -0.820655 0.000000 
0.000000 -0.543344 0.000000 -0.458803 -0.497225 0.000000 -0.820655 -0.418160 0.000000 -1.118891 -0.286531 0.000000 -1.189288 -0.168812 0.000000 -1.309367 0.111983 0.000000 -0.901224 0.594938 0.000000 -0.745132 1.267078 0.000000 1.030995 0.408080 0.000000 0.640352 -0.560283 0.000000 0.105488 0.227419 0.000000 0.582010 0.183617 0.000000 0.378535 -0.193019 0.000000 0.318721 -0.130574 0.000000 0.186585 -0.147900 0.000000 0.067640 -0.088065 0.000000 -0.000000 -0.061748 0.000000 -0.067640 -0.088065 0.000000 -0.186585 -0.147900 0.000000 -0.318721 -0.130574 0.000000 -0.378535 -0.193019 0.000000 -0.582010 0.183617 0.000000 -0.105488 0.227419 0.000000 -0.640352 -0.560283 0.000000 -1.030995 0.408080 0.000000 0.745132 1.267078 0.000000 0.901224 0.594938 0.000000 1.309367 0.111983 0.000000 1.189288 -0.168812 0.000000 1.118891 -0.286531 0.000000 0.820655 -0.418160 0.000000 0.458803 -0.497225 0.000000 
-0.000000 0.000000 0.000000 -0.543344 0.000000 0.000000 -0.994450 -0.000000 0.000000 -1.379663 -0.000000 0.000000 -1.567512 -0.000000 0.000000 -1.717287 -0.000000 0.000000 -1.343546 0.000000 0.000000 -0.527411 0.000000 0.000000 1.190610 0.000000 0.000000 0.288748 -0.000000 0.000000 0.070043 0.000000 0.000000 0.743586 0.000000 0.000000 0.437278 0.000000 0.000000 0.357548 0.000000 0.000000 0.176130 0.000000 0.000000 0.061748 0.000000 0.000000 -0.000000 -0.000000 0.000000 -0.061748 -0.000000 0.000000 -0.176130 -0.000000 0.000000 -0.357548 -0.000000 0.000000 -0.437278 -0.000000 0.000000 -0.743586 0.000000 0.000000 -0.070043 0.000000 0.000000 -0.288748 0.000000 0.000000 -1.190610 -0.000000 0.000000 0.527411 -0.000000 0.000000 1.343546 -0.000000 0.000000 1.717287 -0.000000 0.000000 1.567512 0.000000 0.000000 1.379663 0.000000 0.000000 0.994450 0.000000 0.000000 0.543344 0.000000 0.000000 
-0.000000 0.543344 0.000000 -0.458803 0.497225 0.000000 -0.820655 0.418160 0.000000 -1.118891 0.286531 0.000000 -1.189288 0.168812 0.000000 -1.309367 -0.111983 0.000000 -0.901224 -0.594938 0.000000 -0.745132 -1.267078 0.000000 1.030995 -0.408080 0.000000 0.640352 0.560283 0.000000 0.105488 -0.227419 0.000000 0.582010 -0.183617 0.000000 0.378535 0.193019 0.000000 0.318721 0.130574 0.000000 0.186585 0.147900 0.000000 0.067640 0.088065 0.000000 -0.000000 0.061748 0.000000 -0.067640 0.088065 0.000000 -0.186585 0.147900 0.000000 -0.318721 0.130574 0.000000 -0.378535 0.193019 0.000000 -0.582010 -0.183617 0.000000 -0.105488 -0.227419 0.000000 -0.640352 0.560283 0.000000 -1.030995 -0.408080 0.000000 0.745132 -1.267078 0.000000 0.901224 -0.594938 0.000000 1.309367 -0.111983 0.000000 1.189288 0.168812 0.000000 1.118891 0.286531 0.000000 0.820655 0.418160 0.000000 0.458803 0.497225 0.000000 
-0.000000 0.917606 0.000000 -0.305729 0.820655 0.000000 -0.528906 0.660087 0.000000 -0.672874 0.368633 0.000000 -0.620123 0.190476 0.000000 -0.586109 -0.288065 0.000000 -0.246358 -0.564235 0.000000 -0.556082 -1.932219 0.000000 0.145141 -1.385484 0.000000 1.055838 0.925507 0.000000 0.321226 0.058342 0.000000 0.339864 -0.273048 0.000000 0.235966 0.263289 0.000000 0.081804 0.191950 0.000000 0.068600 0.251081 0.000000 -0.027694 0.186585 0.000000 -0.000000 0.135279 0.000000 0.027694 0.186585 0.000000 -0.068600 0.251081 0.000000 -0.081804 0.191950 0.000000 -0.235966 0.263289 0.000000 -0.339864 -0.273048 0.000000 -0.321226 0.058342 0.000000 -1.055838 0.925507 0.000000 -0.145141 -1.385484 0.000000 0.556082 -1.932219 0.000000 0.246358 -0.564235 0.000000 0.586109 -0.288065 0.000000 0.620123 0.190476 0.000000 0.672874 0.368633 0.000000 0.528906 0.660087 0.000000 0.305729 0.820655 0.000000 
-0.000000 1.154803 0.000000 -0.137751 1.026131 0.000000 -0.230518 0.785304 0.000000 -0.234679 0.377747 0.000000 -0.161612 0.082047 0.000000 0.060019 -0.485748 0.000000 0.156238 -0.624965 0.000000 0.492102 -1.658577 0.000000 -0.515501 -2.020000 0.000000 1.000186 0.384198 0.000000 0.764607 0.488556 0.000000 0.247794 -0.098357 0.000000 0.412311 0.451079 0.000000 0.105955 0.297940 0.000000 0.160605 0.257398 0.000000 -0.004170 0.156665 0.000000 -0.000000 0.006360 0.000000 0.004170 0.156665 0.000000 -0.160605 0.257398 0.000000 -0.105955 0.297940 0.000000 -0.412311 0.451079 0.000000 -0.247794 -0.098357 0.000000 -0.764607 0.488556 0.000000 -1.000186 0.384198 0.000000 0.515501 -2.020000 0.000000 -0.492102 -1.658577 0.000000 -0.156238 -0.624965 0.000000 -0.060019 -0.485748 0.000000 0.161612 0.082047 0.000000 0.234679 0.377747 0.000000 0.230518 0.785304 0.000000 0.137751 1.026131 0.000000 
-0.000000 1.193107 0.000000 -0.009729 1.051173 0.000000 -0.007156 0.757016 0.000000 0.043088 0.299727 0.000000 0.085439 -0.104221 0.000000 0.248564 -0.605915 0.000000 0.107799 -0.996319 0.000000 0.487019 -1.260479 0.000000 -0.614263 -1.893567 0.000000 0.207474 -0.354601 0.000000 1.001077 0.810734 0.000000 0.332375 0.079249 0.000000 0.322846 0.405128 0.000000 -0.112391 0.443655 0.000000 0.070221 0.361206 0.000000 -0.127246 0.347191 0.000000 -0.000000 0.126939 0.000000 0.127246 0.347191 0.000000 -0.070221 0.361206 0.000000 0.112391 0.443655 0.000000 -0.322846 0.405128 0.000000 -0.332375 0.079249 0.000000 -1.001077 0.810734 0.000000 -0.207474 -0.354601 0.000000 0.614263 -1.893567 0.000000 -0.487019 -1.260479 0.000000 -0.107799 -0.996319 0.000000 -0.248564 -0.605915 0.000000 -0.085439 -0.104221 0.000000 -0.043088 0.299727 0.000000 0.007156 0.757016 0.000000 0.009729 1.051173 0.000000 
-0.000000 1.174260 0.000000 0.082864 1.033287 0.000000 0.153132 0.732487 0.000000 0.235969 0.285153 0.000000 0.269147 -0.123429 0.000000 0.358631 -0.508108 0.000000 0.242032 -0.863420 0.000000 0.261248 -0.936514 0.000000 -0.084875 -1.740454 0.000000 -0.499608 -1.231142 0.000000 0.697036 0.363654 0.000000 0.387344 0.579874 0.000000 0.531119 0.895845 0.000000 0.659004 0.550564 0.000000 0.731480 0.272252 0.000000 0.287180 0.226887 0.000000 -0.000000 -0.248131 0.000000 -0.287180 0.226887 0.000000 -0.731480 0.272252 0.000000 -0.659004 0.550564 0.000000 -0.531119 0.895845 0.000000 -0.387344 0.579874 0.000000 -0.697036 0.363654 0.000000 0.499608 -1.231142 0.000000 0.084875 -1.740454 0.000000 -0.261248 -0.936514 0.000000 -0.242032 -0.863420 0.000000 -0.358631 -0.508108 0.000000 -0.269147 -0.123429 0.000000 -0.235969 0.285153 0.000000 -0.153132 0.732487 0.000000 -0.082864 1.033287 0.000000 
-0.000000 1.027379 0.000000 0.146952 0.898041 0.000000 0.269767 0.603910 0.000000 0.379251 0.183712 0.000000 0.433073 -0.226883 0.000000 0.504441 -0.578799 0.000000 0.497931 -0.898935 0.000000 0.486195 -0.933572 0.000000 0.556864 -1.132712 0.000000 -0.164042 -1.136512 0.000000 0.335918 -0.076217 0.000000 0.157126 0.245166 0.000000 0.242392 0.133467 0.000000 0.601763 0.243295 0.000000 0.941153 0.733030 0.000000 0.674322 1.078671 0.000000 0.000000 0.701300 0.000000 -0.674322 1.078671 0.000000 -0.941153 0.733030 0.000000 -0.601763 0.243295 0.000000 -0.242392 0.133467 0.000000 -0.157126 0.245166 0.000000 -0.335918 -0.076217 0.000000 0.164042 -1.136512 0.000000 -0.556864 -1.132712 0.000000 -0.486195 -0.933572 0.000000 -0.497931 -0.898935 0.000000 -0.504441 -0.578799 0.000000 -0.433073 -0.226883 0.000000 -0.379251 0.183712 0.000000 -0.269767 0.603910 0.000000 -0.146952 0.898041 0.000000 
-0.000000 0.880357 0.000000 0.176008 0.763520 0.000000 0.321430 0.500188 0.000000 0.433385 0.121847 0.000000 0.483065 -0.248619 0.000000 0.508369 -0.572966 0.000000 0.482804 -0.845175 0.000000 0.403992 -0.995447 0.000000 0.457766 -1.090217 0.000000 0.202788 -1.010196 0.000000 0.289368 0.042486 0.000000 0.552096 0.673399 0.000000 -0.093396 0.451208 0.000000 -0.770524 -0.148197 0.000000 -0.805209 0.199693 0.000000 -0.376248 1.168040 0.000000 0.000000 1.100514 0.000000 0.376248 1.168040 0.000000 0.805209 0.199693 0.000000 0.770524 -0.148197 0.000000 0.093396 0.451208 0.000000 -0.552096 0.673399 0.000000 -0.289368 0.042486 0.000000 -0.202788 -1.010196 0.000000 -0.457766 -1.090217 0.000000 -0.403992 -0.995447 0.000000 -0.482804 -0.845175 0.000000 -0.508369 -0.572966 0.000000 -0.483065 -0.248619 0.000000 -0.433385 0.121847 0.000000 -0.321430 0.500188 0.000000 -0.176008 0.763520 0.000000 
-0.000000 0.675362 0.000000 0.191915 0.576611 0.000000 0.350769 0.346534 0.000000 0.471631 0.022077 0.000000 0.527084 -0.301867 0.000000 0.553435 -0.578539 0.000000 0.528711 -0.794558 0.000000 0.471389 -0.908534 0.000000 0.405843 -0.931507 0.000000 0.274069 -0.968114 0.000000 0.226443 -0.425526 0.000000 0.922419 0.627929 0.000000 1.079885 1.456087 0.000000 0.848308 0.955107 0.000000 -0.088069 0.338755 0.000000 -0.170820 0.273462 0.000000 0.000000 -0.051197 0.000000 0.170820 0.273462 0.000000 0.088069 0.338755 0.000000 -0.848308 0.955107 0.000000 -1.079885 1.456087 0.000000 -0.922419 0.627929 0.000000 -0.226443 -0.425526 0.000000 -0.274069 -0.968114 0.000000 -0.405843 -0.931507 0.000000 -0.471389 -0.908534 0.000000 -0.528711 -0.794558 0.000000 -0.553435 -0.578539 0.000000 -0.527084 -0.301867 0.000000 -0.471631 0.022077 0.000000 -0.350769 0.346534 0.000000 -0.191915 0.576611 0.000000 
-0.000000 0.496528 0.000000 0.179600 0.412751 0.000000 0.326812 0.220472 0.000000 0.431349 -0.054467 0.000000 0.475324 -0.330423 0.000000 0.480297 -0.574594 0.000000 0.449304 -0.763129 0.000000 0.386890 -0.872579 0.000000 0.327793 -0.892897 0.000000 0.225548 -0.830796 0.000000 0.044522 -0.605865 0.000000 0.244890 -0.180042 0.000000 0.713428 0.525320 0.000000 1.343786 1.019757 0.000000 1.146024 1.218821 0.000000 0.765941 1.079971 0.000000 -0.000000 0.758873 0.000000 -0.765941 1.079971 0.000000 -1.146024 1.218821 0.000000 -1.343786 1.019757 0.000000 -0.713428 0.525320 0.000000 -0.244890 -0.180042 0.000000 -0.044522 -0.605865 0.000000 -0.225548 -0.830796 0.000000 -0.327793 -0.892897 0.000000 -0.386890 -0.872579 0.000000 -0.449304 -0.763129 0.000000 -0.480297 -0.574594 0.000000 -0.475324 -0.330423 0.000000 -0.431349 -0.054467 0.000000 -0.326812 0.220472 0.000000 -0.179600 0.412751 0.000000 
-0.000000 0.316163 0.000000 0.159321 0.249799 0.000000 0.287570 0.094784 0.000000 0.377141 -0.126434 0.000000 0.409271 -0.350815 0.000000 0.408925 -0.552520 0.000000 0.371722 -0.701152 0.000000 0.317889 -0.787023 0.000000 0.252190 -0.770164 0.000000 0.173066 -0.684843 0.000000 0.085378 -0.444869 0.000000 0.028995 -0.040976 0.000000 0.084011 0.357192 0.000000 0.346786 0.522511 0.000000 0.491999 0.916600 0.000000 0.465814 1.419486 0.000000 -0.000000 1.480684 0.000000 -0.465814 1.419486 0.000000 -0.491999 0.916600 0.000000 -0.346786 0.522511 0.000000 -0.084011 0.357192 0.000000 -0.028995 -0.040976 0.000000 -0.085378 -0.444869 0.000000 -0.173066 -0.684843 0.000000 -0.252190 -0.770164 0.000000 -0.317889 -0.787023 0.000000 -0.371722 -0.701152 0.000000 -0.408925 -0.552520 0.000000 -0.409271 -0.350815 0.000000 -0.377141 -0.126434 0.000000 -0.287570 0.094784 0.000000 -0.159321 0.249799 0.000000 
-0.000000 0.177887 0.000000 0.121997 0.125180 0.000000 0.216745 0.002651 0.000000 0.276028 -0.176168 0.000000 0.286540 -0.362207 0.000000 0.267071 -0.537045 0.000000 0.217687 -0.672093 0.000000 0.158089 -0.753047 0.000000 0.088552 -0.748073 0.000000 0.032598 -0.663985 0.000000 -0.032529 -0.461794 0.000000 -0.026579 -0.178674 0.000000 0.066738 0.207528 0.000000 0.170417 0.611769 0.000000 0.105534 1.099793 0.000000 0.116433 1.571970 0.000000 -0.000000 1.690502 0.000000 -0.116433 1.571970 0.000000 -0.105534 1.099793 0.000000 -0.170417 0.611769 0.000000 -0.066738 0.207528 0.000000 0.026579 -0.178674 0.000000 0.032529 -0.461794 0.000000 -0.032598 -0.663985 0.000000 -0.088552 -0.748073 0.000000 -0.158089 -0.753047 0.000000 -0.217687 -0.672093 0.000000 -0.267071 -0.537045 0.000000 -0.286540 -0.362207 0.000000 -0.276028 -0.176168 0.000000 -0.216745 0.002651 0.000000 -0.121997 0.125180 0.000000 
-0.000000 0.072170 0.000000 0.084099 0.033054 0.000000 0.144053 -0.059247 0.000000 0.173613 -0.196229 0.000000 0.158322 -0.341858 0.000000 0.115888 -0.483667 0.000000 0.040583 -0.592170 0.000000 -0.044989 -0.657887 0.000000 -0.144308 -0.644674 0.000000 -0.229911 -0.563763 0.000000 -0.310252 -0.385692 0.000000 -0.339815 -0.140242 0.000000 -0.341100 0.160196 0.000000 -0.261248 0.483715 0.000000 -0.198590 0.970584 0.000000 -0.065436 1.525019 0.000000 -0.000000 1.713551 0.000000 0.065436 1.525019 0.000000 0.198590 0.970584 0.000000 0.261248 0.483715 0.000000 0.341100 0.160196 0.000000 0.339815 -0.140242 0.000000 0.310252 -0.385692 0.000000 0.229911 -0.563763 0.000000 0.144308 -0.644674 0.000000 0.044989 -0.657887 0.000000 -0.040583 -0.592170 0.000000 -0.115888 -0.483667 0.000000 -0.158322 -0.341858 0.000000 -0.173613 -0.196229 0.000000 -0.144053 -0.059247 0.000000 -0.084099 0.033054 0.000000 
-0.000000 0.009689 0.000000 0.044548 -0.018873 0.000000 0.068335 -0.086863 0.000000 0.064851 -0.190437 0.000000 0.020336 -0.304482 0.000000 -0.051854 -0.419305 0.000000 -0.158998 -0.511216 0.000000 -0.276605 -0.568156 0.000000 -0.410050 -0.563151 0.000000 -0.519436 -0.498041 0.000000 -0.619464 -0.351890 0.000000 -0.654488 -0.147826 0.000000 -0.655850 0.128962 0.000000 -0.587248 0.469259 0.000000 -0.509519 0.903980 0.000000 -0.274026 1.373379 0.000000 0.000000 1.559630 0.000000 0.274026 1.373379 0.000000 0.509519 0.903980 0.000000 0.587248 0.469259 0.000000 0.655850 0.128962 0.000000 0.654488 -0.147826 0.000000 0.619464 -0.351890 0.000000 0.519436 -0.498041 0.000000 0.410050 -0.563151 0.000000 0.276605 -0.568156 0.000000 0.158998 -0.511216 0.000000 0.051854 -0.419305 0.000000 -0.020336 -0.304482 0.000000 -0.064851 -0.190437 0.000000 -0.068335 -0.086863 0.000000 -0.044548 -0.018873 0.000000 
-0.000000 -0.016927 0.000000 0.012908 -0.035281 0.000000 0.006487 -0.079550 0.000000 -0.026109 -0.148229 0.000000 -0.100777 -0.225153 0.000000 -0.207048 -0.304333 0.000000 -0.354550 -0.367419 0.000000 -0.518441 -0.406835 0.000000 -0.701349 -0.401842 0.000000 -0.861878 -0.354350 0.000000 -1.005187 -0.250640 0.000000 -1.076251 -0.103856 0.000000 -1.097128 0.092956 0.000000 -1.002449 0.337385 0.000000 -0.822530 0.657362 0.000000 -0.463512 1.015500 0.000000 0.000000 1.165499 0.000000 0.463512 1.015500 0.000000 0.822530 0.657362 0.000000 1.002449 0.337385 0.000000 1.097128 0.092956 0.000000 1.076251 -0.103856 0.000000 1.005187 -0.250640 0.000000 0.861878 -0.354350 0.000000 0.701349 -0.401842 0.000000 0.518441 -0.406835 0.000000 0.354550 -0.367419 0.000000 0.207048 -0.304333 0.000000 0.100777 -0.225153 0.000000 0.026109 -0.148229 0.000000 -0.006487 -0.079550 0.000000 -0.012908 -0.035281 0.000000 
-0.000000 -0.016126 0.000000 -0.008463 -0.025360 0.000000 -0.035281 -0.047846 0.000000 -0.088013 -0.083173 0.000000 -0.183510 -0.123543 0.000000 -0.313166 -0.165532 0.000000 -0.487844 -0.199823 0.000000 -0.680586 -0.221357 0.000000 -0.894679 -0.219715 0.000000 -1.082428 -0.194203 0.000000 -1.249028 -0.137517 0.000000 -1.333068 -0.055886 0.000000 -1.352885 0.055161 0.000000 -1.240111 0.194661 0.000000 -1.015500 0.365043 0.000000 -0.582749 0.550849 0.000000 0.000000 0.632606 0.000000 0.582749 0.550849 0.000000 1.015500 0.365043 0.000000 1.240111 0.194661 0.000000 1.352885 0.055161 0.000000 1.333068 -0.055886 0.000000 1.249028 -0.137517 0.000000 1.082428 -0.194203 0.000000 0.894679 -0.219715 0.000000 0.680586 -0.221357 0.000000 0.487844 -0.199823 0.000000 0.313166 -0.165532 0.000000 0.183510 -0.123543 0.000000 0.088013 -0.083173 0.000000 0.035281 -0.047846 0.000000 0.008463 -0.025360 0.000000 
