# vtk DataFile Version 2.0
Comment goes here
ASCII

DATASET STRUCTURED_POINTS
FIELD FieldData 1
TIME 1 1 double
0.50000000
DIMENSIONS    32   32   1

ORIGIN    0.000   0.000   0.000
SPACING   0.03125 0.03125   1.000

POINT_DATA   1024
VECTORS u double

-0.000000 -0.000000 0.000000 0.050319 -0.000000 0.000000 0.094818 -0.000000 0.000000 0.132275 0.000000 0.000000 0.152957 0.000000 0.000000 0.155386 0.000000 0.000000 0.128870 0.000000 0.000000 0.062068 0.000000 0.000000 -0.043405 0.000000 0.000000 -0.211982 0.000000 0.000000 -0.391721 0.000000 0.000000 -0.620362 0.000000 0.000000 -0.753893 -0.000000 0.000000 -0.842007 -0.000000 0.000000 -0.697147 -0.000000 0.000000 -0.413206 -0.000000 0.000000 -0.000000 0.000000 0.000000 0.413206 0.000000 0.000000 0.697147 0.000000 0.000000 0.842007 0.000000 0.000000 0.753893 0.000000 0.000000 0.620362 0.000000 0.000000 0.391721 -0.000000 0.000000 0.211982 -0.000000 0.000000 0.043405 -0.000000 0.000000 -0.062068 -0.000000 0.000000 -0.128870 -0.000000 0.000000 -0.155386 -0.000000 0.000000 -0.152957 -0.000000 0.000000 -0.132275 -0.000000 0.000000 -0.094818 -0.000000 0.000000 -0.050319 -0.000000 0.000000 
0.000000 -0.050319 0.000000 0.054283 -0.047409 0.000000 0.103142 -0.040978 0.000000 0.145530 -0.029069 0.000000 0.173004 -0.011556 0.000000 0.184522 0.012044 0.000000 0.171631 0.046659 0.000000 0.123755 0.086137 0.000000 0.043759 0.137025 0.000000 -0.093611 0.174158 0.000000 -0.242010 0.204190 0.000000 -0.445744 0.181086 0.000000 -0.576618 0.110822 0.000000 -0.696867 -0.028373 0.000000 -0.645713 -0.214400 0.000000 -0.408551 -0.348573 0.000000 -0.000000 -0.413206 0.000000 0.408551 -0.348573 0.000000 0.645713 -0.214400 0.000000 0.696867 -0.028373 0.000000 0.576618 0.110822 0.000000 0.445744 0.181086 0.000000 0.242010 0.204190 0.000000 0.093611 0.174158 0.000000 -0.043759 0.137025 0.000000 -0.123755 0.086137 0.000000 -0.171631 0.046659 0.000000 -0.184522 0.012044 0.000000 -0.173004 -0.011556 0.000000 -0.145530 -0.029069 0.000000 -0.103142 -0.040978 0.000000 -0.054283 -0.047409 0.000000 
-0.000000 -0.108567 0.000000 0.058950 -0.103142 0.000000 0.111760 -0.091246 0.000000 0.159811 -0.069862 0.000000 0.192668 -0.038993 0.000000 0.216220 0.001373 0.000000 0.218648 0.060768 0.000000 0.201254 0.127873 0.000000 0.158991 0.217366 0.000000 0.078145 0.285769 0.000000 -0.012228 0.352133 0.000000 -0.165689 0.334608 0.000000 -0.245954 0.251123 0.000000 -0.348795 0.069096 0.000000 -0.261226 -0.288317 0.000000 -0.143849 -0.645713 0.000000 -0.000000 -0.817101 0.000000 0.143849 -0.645713 0.000000 0.261226 -0.288317 0.000000 0.348795 0.069096 0.000000 0.245954 0.251123 0.000000 0.165689 0.334608 0.000000 0.012228 0.352133 0.000000 -0.078145 0.285769 0.000000 -0.158991 0.217366 0.000000 -0.201254 0.127873 0.000000 -0.218648 0.060768 0.000000 -0.216220 0.001373 0.000000 -0.192668 -0.038993 0.000000 -0.159811 -0.069862 0.000000 -0.111760 -0.091246 0.000000 -0.058950 -0.103142 0.000000 
0.000000 -0.168218 0.000000 0.069843 -0.159169 0.000000 0.132993 -0.141839 0.000000 0.193008 -0.109978 0.000000 0.239579 -0.067965 0.000000 0.285102 -0.013936 0.000000 0.318323 0.061625 0.000000 0.351365 0.145794 0.000000 0.375676 0.260133 0.000000 0.389355 0.345378 0.000000 0.400440 0.448024 0.000000 0.340535 0.414811 0.000000 0.351721 0.293929 0.000000 0.157616 -0.013101 0.000000 -0.066887 -0.419346 0.000000 -0.131646 -0.609799 0.000000 -0.000000 -0.700904 0.000000 0.131646 -0.609799 0.000000 0.066887 -0.419346 0.000000 -0.157616 -0.013101 0.000000 -0.351721 0.293929 0.000000 -0.340535 0.414811 0.000000 -0.400440 0.448024 0.000000 -0.389355 0.345378 0.000000 -0.375676 0.260133 0.000000 -0.351365 0.145794 0.000000 -0.318323 0.061625 0.000000 -0.285102 -0.013936 0.000000 -0.239579 -0.067965 0.000000 -0.193008 -0.109978 0.000000 -0.132993 -0.141839 0.000000 -0.069843 -0.159169 0.000000 
-0.000000 -0.248252 0.000000 0.081768 -0.236135 0.000000 0.154274 -0.214412 0.000000 0.224547 -0.176448 0.000000 0.278921 -0.131086 0.000000 0.341081 -0.077371 0.000000 0.393551 -0.005495 0.000000 0.468082 0.070520 0.000000 0.536919 0.179375 0.000000 0.633840 0.261005 0.000000 0.698476 0.400953 0.000000 0.673950 0.383327 0.000000 0.761367 0.434042 0.000000 0.793152 0.487704 0.000000 1.079879 0.000945 0.000000 0.903536 -0.712601 0.000000 -0.000000 -1.080393 0.000000 -0.903536 -0.712601 0.000000 -1.079879 0.000945 0.000000 -0.793152 0.487704 0.000000 -0.761367 0.434042 0.000000 -0.673950 0.383327 0.000000 -0.698476 0.400953 0.000000 -0.633840 0.261005 0.000000 -0.536919 0.179375 0.000000 -0.468082 0.070520 0.000000 -0.393551 -0.005495 0.000000 -0.341081 -0.077371 0.000000 -0.278921 -0.131086 0.000000 -0.224547 -0.176448 0.000000 -0.154274 -0.214412 0.000000 -0.081768 -0.236135 0.000000 
0.000000 -0.331754 0.000000 0.096690 -0.313443 0.000000 0.180207 -0.284618 0.000000 0.259888 -0.234625 0.000000 0.320290 -0.184499 0.000000 0.395014 -0.128566 0.000000 0.465419 -0.065376 0.000000 0.577662 0.002427 0.000000 0.699353 0.094374 0.000000 0.913400 0.183821 0.000000 1.095301 0.407915 0.000000 1.379777 0.351920 0.000000 2.154669 0.174726 0.000000 2.877142 -0.331613 0.000000 2.753274 -0.529730 0.000000 1.469887 0.470080 0.000000 -0.000000 1.106168 0.000000 -1.469887 0.470080 0.000000 -2.753274 -0.529730 0.000000 -2.877142 -0.331613 0.000000 -2.154669 0.174726 0.000000 -1.379777 0.351920 0.000000 -1.095301 0.407915 0.000000 -0.913400 0.183821 0.000000 -0.699353 0.094374 0.000000 -0.577662 0.002427 0.000000 -0.465419 -0.065376 0.000000 -0.395014 -0.128566 0.000000 -0.320290 -0.184499 0.000000 -0.259888 -0.234625 0.000000 -0.180207 -0.284618 0.000000 -0.096690 -0.313443 0.000000 
-0.000000 -0.441631 0.000000 0.114799 -0.416342 0.000000 0.209508 -0.377611 0.000000 0.295911 -0.316531 0.000000 0.354419 -0.266212 0.000000 0.431237 -0.222500 0.000000 0.506039 -0.188144 0.000000 0.640109 -0.163415 0.000000 0.805710 -0.156363 0.000000 1.191170 -0.134942 0.000000 1.496017 -0.065424 0.000000 2.155981 -0.676042 0.000000 2.444946 -1.063323 0.000000 1.681354 -0.110902 0.000000 0.118296 1.408200 0.000000 -0.562780 2.040674 0.000000 0.000000 1.859381 0.000000 0.562780 2.040674 0.000000 -0.118296 1.408200 0.000000 -1.681354 -0.110902 0.000000 -2.444946 -1.063323 0.000000 -2.155981 -0.676042 0.000000 -1.496017 -0.065424 0.000000 -1.191170 -0.134942 0.000000 -0.805710 -0.156363 0.000000 -0.640109 -0.163415 0.000000 -0.506039 -0.188144 0.000000 -0.431237 -0.222500 0.000000 -0.354419 -0.266212 0.000000 -0.295911 -0.316531 0.000000 -0.209508 -0.377611 0.000000 -0.114799 -0.416342 0.000000 
0.000000 -0.561351 0.000000 0.132337 -0.522951 0.000000 0.235396 -0.465730 0.000000 0.321365 -0.379536 0.000000 0.365325 -0.319825 0.000000 0.426004 -0.280186 0.000000 0.483183 -0.274248 0.000000 0.595934 -0.297245 0.000000 0.817795 -0.456686 0.000000 1.202522 -0.506486 0.000000 1.357769 -0.556896 0.000000 1.232057 -0.597009 0.000000 0.039753 0.649353 0.000000 -1.311500 1.995037 0.000000 -1.341686 1.714404 0.000000 -0.542742 0.588376 0.000000 0.000000 -0.019391 0.000000 0.542742 0.588376 0.000000 1.341686 1.714404 0.000000 1.311500 1.995037 0.000000 -0.039753 0.649353 0.000000 -1.232057 -0.597009 0.000000 -1.357769 -0.556896 0.000000 -1.202522 -0.506486 0.000000 -0.817795 -0.456686 0.000000 -0.595934 -0.297245 0.000000 -0.483183 -0.274248 0.000000 -0.426004 -0.280186 0.000000 -0.365325 -0.319825 0.000000 -0.321365 -0.379536 0.000000 -0.235396 -0.465730 0.000000 -0.132337 -0.522951 0.000000 
0.000000 -0.706306 0.000000 0.152888 -0.651738 0.000000 0.266328 -0.566639 0.000000 0.352475 -0.446461 0.000000 0.375212 -0.370850 0.000000 0.407684 -0.340357 0.000000 0.433537 -0.358074 0.000000 0.472698 -0.498028 0.000000 0.785185 -0.762950 0.000000 0.618666 -0.674915 0.000000 0.418290 -0.094958 0.000000 -0.155619 0.641973 0.000000 -0.817542 1.480234 0.000000 -0.512233 1.270537 0.000000 0.282452 0.639442 0.000000 0.476208 0.698988 0.000000 0.000000 0.773897 0.000000 -0.476208 0.698988 0.000000 -0.282452 0.639442 0.000000 0.512233 1.270537 0.000000 0.817542 1.480234 0.000000 0.155619 0.641973 0.000000 -0.418290 -0.094958 0.000000 -0.618666 -0.674915 0.000000 -0.785185 -0.762950 0.000000 -0.472698 -0.498028 0.000000 -0.433537 -0.358074 0.000000 -0.407684 -0.340357 0.000000 -0.375212 -0.370850 0.000000 -0.352475 -0.446461 0.000000 -0.266328 -0.566639 0.000000 -0.152888 -0.651738 0.000000 
0.000000 -0.867126 0.000000 0.161979 -0.789279 0.000000 0.277704 -0.665318 0.000000 0.356529 -0.488420 0.000000 0.340537 -0.375034 0.000000 0.334975 -0.338511 0.000000 0.277035 -0.339262 0.000000 0.306931 -0.648893 0.000000 0.467518 -0.602654 0.000000 -0.253584 -0.139590 0.000000 -0.189912 0.217388 0.000000 -0.384503 0.638823 0.000000 -0.585577 1.005967 0.000000 0.204112 0.895042 0.000000 0.324056 0.725962 0.000000 0.235368 0.870828 0.000000 0.000000 0.933026 0.000000 -0.235368 0.870828 0.000000 -0.324056 0.725962 0.000000 -0.204112 0.895042 0.000000 0.585577 1.005967 0.000000 0.384503 0.638823 0.000000 0.189912 0.217388 0.000000 0.253584 -0.139590 0.000000 -0.467518 -0.602654 0.000000 -0.306931 -0.648893 0.000000 -0.277035 -0.339262 0.000000 -0.334975 -0.338511 0.000000 -0.340537 -0.375034 0.000000 -0.356529 -0.488420 0.000000 -0.277704 -0.665318 0.000000 -0.161979 -0.789279 0.000000 
0.000000 -1.030263 0.000000 0.160333 -0.929442 0.000000 0.275532 -0.761189 0.000000 0.358606 -0.509294 0.000000 0.311358 -0.349296 0.000000 0.312527 -0.276854 0.000000 0.134757 -0.330031 0.000000 0.311207 -0.688511 0.000000 -0.198947 -0.202435 0.000000 -0.526869 -0.017485 0.000000 -0.093400 0.035961 0.000000 -0.567365 1.037638 0.000000 -0.565865 0.891619 0.000000 -0.098483 0.360904 0.000000 0.012764 0.608186 0.000000 0.063368 1.023044 0.000000 0.000000 1.244634 0.000000 -0.063368 1.023044 0.000000 -0.012764 0.608186 0.000000 0.098483 0.360904 0.000000 0.565865 0.891619 0.000000 0.567365 1.037638 0.000000 0.093400 0.035961 0.000000 0.526869 -0.017485 0.000000 0.198947 -0.202435 0.000000 -0.311207 -0.688511 0.000000 -0.134757 -0.330031 0.000000 -0.312527 -0.276854 0.000000 -0.311358 -0.349296 0.000000 -0.358606 -0.509294 0.000000 -0.275532 -0.761189 0.000000 -0.160333 -0.929442 0.000000 
0.000000 -1.187793 0.000000 0.124442 -1.064811 0.000000 0.219799 -0.863590 0.000000 0.286556 -0.524246 0.000000 0.220497 -0.328955 0.000000 0.176617 -0.161909 0.000000 -0.103722 -0.337942 0.000000 -0.005982 -0.315190 0.000000 -1.047514 0.235422 0.000000 -0.509515 -0.245137 0.000000 -0.462310 0.257884 0.000000 -1.183807 1.111288 0.000000 -0.538357 0.537086 0.000000 -0.577872 0.316413 0.000000 -0.420295 0.564111 0.000000 -0.267027 0.883593 0.000000 0.000000 1.059761 0.000000 0.267027 0.883593 0.000000 0.420295 0.564111 0.000000 0.577872 0.316413 0.000000 0.538357 0.537086 0.000000 1.183807 1.111288 0.000000 0.462310 0.257884 0.000000 0.509515 -0.245137 0.000000 1.047514 0.235422 0.000000 0.005982 -0.315190 0.000000 0.103722 -0.337942 0.000000 -0.176617 -0.161909 0.000000 -0.220497 -0.328955 0.000000 -0.286556 -0.524246 0.000000 -0.219799 -0.863590 0.000000 -0.124442 -1.064811 0.000000 
0.000000 -1.279146 0.000000 0.053516 -1.149241 0.000000 0.107175 -0.923304 0.000000 0.136307 -0.509993 0.000000 0.094053 -0.239356 0.000000 0.007508 0.047365 0.000000 -0.188689 -0.147432 0.000000 -0.409932 0.255281 0.000000 -1.028093 0.301098 0.000000 -0.375598 -0.602689 0.000000 -0.772210 0.710253 0.000000 -1.186640 1.113685 0.000000 -0.616666 0.285684 0.000000 -0.735391 0.242842 0.000000 -0.495527 0.297340 0.000000 -0.320979 0.602750 0.000000 0.000000 0.710581 0.000000 0.320979 0.602750 0.000000 0.495527 0.297340 0.000000 0.735391 0.242842 0.000000 0.616666 0.285684 0.000000 1.186640 1.113685 0.000000 0.772210 0.710253 0.000000 0.375598 -0.602689 0.000000 1.028093 0.301098 0.000000 0.409932 0.255281 0.000000 0.188689 -0.147432 0.000000 -0.007508 0.047365 0.000000 -0.094053 -0.239356 0.000000 -0.136307 -0.509993 0.000000 -0.107175 -0.923304 0.000000 -0.053516 -1.149241 0.000000 
0.000000 -1.294825 0.000000 -0.072527 -1.171986 0.000000 -0.106057 -0.946382 0.000000 -0.141745 -0.511125 0.000000 -0.143506 -0.200156 0.000000 -0.274379 0.120833 0.000000 -0.430129 0.079499 0.000000 -0.895680 0.524214 0.000000 -0.663442 0.201088 0.000000 -0.540021 -0.501019 0.000000 -1.027527 1.068925 0.000000 -0.836985 0.955744 0.000000 -0.580240 0.085837 0.000000 -0.555246 0.195273 0.000000 -0.423561 0.149699 0.000000 -0.266582 0.388066 0.000000 -0.000000 0.417804 0.000000 0.266582 0.388066 0.000000 0.423561 0.149699 0.000000 0.555246 0.195273 0.000000 0.580240 0.085837 0.000000 0.836985 0.955744 0.000000 1.027527 1.068925 0.000000 0.540021 -0.501019 0.000000 0.663442 0.201088 0.000000 0.895680 0.524214 0.000000 0.430129 0.079499 0.000000 0.274379 0.120833 0.000000 0.143506 -0.200156 0.000000 0.141745 -0.511125 0.000000 0.106057 -0.946382 0.000000 0.072527 -1.171986 0.000000 
0.000000 -1.134092 0.000000 -0.266393 -1.043183 0.000000 -0.470291 -0.854086 0.000000 -0.659823 -0.472544 0.000000 -0.731186 -0.106722 0.000000 -0.920594 0.333988 0.000000 -0.980295 0.473869 0.000000 -1.230721 0.488594 0.000000 -0.642253 -0.054561 0.000000 -0.947926 -0.238604 0.000000 -1.129715 1.007217 0.000000 -0.453305 0.666398 0.000000 -0.499296 0.003945 0.000000 -0.356014 0.086163 0.000000 -0.325379 0.008676 0.000000 -0.180817 0.179189 0.000000 0.000000 0.177417 0.000000 0.180817 0.179189 0.000000 0.325379 0.008676 0.000000 0.356014 0.086163 0.000000 0.499296 0.003945 0.000000 0.453305 0.666398 0.000000 1.129715 1.007217 0.000000 0.947926 -0.238604 0.000000 0.642253 -0.054561 0.000000 1.230721 0.488594 0.000000 0.980295 0.473869 0.000000 0.920594 0.333988 0.000000 0.731186 -0.106722 0.000000 0.659823 -0.472544 0.000000 0.470291 -0.854086 0.000000 0.266393 -1.043183 0.000000 
0.000000 -0.762039 0.000000 -0.567046 -0.701695 0.000000 -1.043183 -0.552951 0.000000 -1.421132 -0.250229 0.000000 -1.515727 0.060615 0.000000 -1.527855 0.369942 0.000000 -1.181739 0.389625 0.000000 -1.053986 0.186171 0.000000 -0.693145 -0.081706 0.000000 -1.108547 -0.013557 0.000000 -0.931750 0.574304 0.000000 -0.101330 0.325325 0.000000 -0.265352 -0.011454 0.000000 -0.097385 0.021356 0.000000 -0.179189 -0.025498 0.000000 -0.088709 0.062687 0.000000 -0.000000 0.056170 0.000000 0.088709 0.062687 0.000000 0.179189 -0.025498 0.000000 0.097385 0.021356 0.000000 0.265352 -0.011454 0.000000 0.101330 0.325325 0.000000 0.931750 0.574304 0.000000 1.108547 -0.013557 0.000000 0.693145 -0.081706 0.000000 1.053986 0.186171 0.000000 1.181739 0.389625 0.000000 1.527855 0.369942 0.000000 1.515727 0.060615 0.000000 1.421132 -0.250229 0.000000 1.043183 -0.552951 0.000000 0.567046 -0.701695 0.000000 
-0.000000 -0.000000 0.000000 -0.762039 -0.000000 0.000000 -1.403390 0.000000 0.000000 -1.867941 0.000000 0.000000 -1.903848 0.000000 0.000000 -1.746711 0.000000 0.000000 -1.163964 0.000000 0.000000 -0.967461 0.000000 0.000000 -0.791622 0.000000 0.000000 -1.130874 -0.000000 0.000000 -0.818736 -0.000000 0.000000 0.017734 -0.000000 0.000000 -0.168085 -0.000000 0.000000 -0.005174 0.000000 0.000000 -0.125373 -0.000000 0.000000 -0.056170 -0.000000 0.000000 0.000000 -0.000000 0.000000 0.056170 -0.000000 0.000000 0.125373 -0.000000 0.000000 0.005174 -0.000000 0.000000 0.168085 -0.000000 0.000000 -0.017734 0.000000 0.000000 0.818736 0.000000 0.000000 1.130874 0.000000 0.000000 0.791622 -0.000000 0.000000 0.967461 -0.000000 0.000000 1.163964 -0.000000 0.000000 1.746711 0.000000 0.000000 1.903848 0.000000 0.000000 1.867941 0.000000 0.000000 1.403390 -0.000000 0.000000 0.762039 -0.000000 0.000000 
-0.000000 0.762039 0.000000 -0.567046 0.701695 0.000000 -1.043183 0.552951 0.000000 -1.421132 0.250229 0.000000 -1.515727 -0.060615 0.000000 -1.527855 -0.369942 0.000000 -1.181739 -0.389625 0.000000 -1.053986 -0.186171 0.000000 -0.693145 0.081706 0.000000 -1.108547 0.013557 0.000000 -0.931750 -0.574304 0.000000 -0.101330 -0.325325 0.000000 -0.265352 0.011454 0.000000 -0.097385 -0.021356 0.000000 -0.179189 0.025498 0.000000 -0.088709 -0.062687 0.000000 -0.000000 -0.056170 0.000000 0.088709 -0.062687 0.000000 0.179189 0.025498 0.000000 0.097385 -0.021356 0.000000 0.265352 0.011454 0.000000 0.101330 -0.325325 0.000000 0.931750 -0.574304 0.000000 1.108547 0.013557 0.000000 0.693145 0.081706 0.000000 1.053986 -0.186171 0.000000 1.181739 -0.389625 0.000000 1.527855 -0.369942 0.000000 1.515727 -0.060615 0.000000 1.421132 0.250229 0.000000 1.043183 0.552951 0.000000 0.567046 0.701695 0.000000 
-0.000000 1.134092 0.000000 -0.266393 1.043183 0.000000 -0.470291 0.854086 0.000000 -0.659823 0.472544 0.000000 -0.731186 0.106722 0.000000 -0.920594 -0.333988 0.000000 -0.980295 -0.473869 0.000000 -1.230721 -0.488594 0.000000 -0.642253 0.054561 0.000000 -0.947926 0.238604 0.000000 -1.129715 -1.007217 0.000000 -0.453305 -0.666398 0.000000 -0.499296 -0.003945 0.000000 -0.356014 -0.086163 0.000000 -0.325379 -0.008676 0.000000 -0.180817 -0.179189 0.000000 0.000000 -0.177417 0.000000 0.180817 -0.179189 0.000000 0.325379 -0.008676 0.000000 0.356014 -0.086163 0.000000 0.499296 -0.003945 0.000000 0.453305 -0.666398 0.000000 1.129715 -1.007217 0.000000 0.947926 0.238604 0.000000 0.642253 0.054561 0.000000 1.230721 -0.488594 0.000000 0.980295 -0.473869 0.000000 0.920594 -0.333988 0.000000 0.731186 0.106722 0.000000 0.659823 0.472544 0.000000 0.470291 0.854086 0.000000 0.266393 1.043183 0.000000 
-0.000000 1.294825 0.000000 -0.072527 1.171986 0.000000 -0.106057 0.946382 0.000000 -0.141745 0.511125 0.000000 -0.143506 0.200156 0.000000 -0.274379 -0.120833 0.000000 -0.430129 -0.079499 0.000000 -0.895680 -0.524214 0.000000 -0.663442 -0.201088 0.000000 -0.540021 0.501019 0.000000 -1.027527 -1.068925 0.000000 -0.836985 -0.955744 0.000000 -0.580240 -0.085837 0.000000 -0.555246 -0.195273 0.000000 -0.423561 -0.149699 0.000000 -0.266582 -0.388066 0.000000 -0.000000 -0.417804 0.000000 0.266582 -0.388066 0.000000 0.423561 -0.149699 0.000000 0.555246 -0.195273 0.000000 0.580240 -0.085837 0.000000 0.836985 -0.955744 0.000000 1.027527 -1.068925 0.000000 0.540021 0.501019 0.000000 0.663442 -0.201088 0.000000 0.895680 -0.524214 0.000000 0.430129 -0.079499 0.000000 0.274379 -0.120833 0.000000 0.143506 0.200156 0.000000 0.141745 0.511125 0.000000 0.106057 0.946382 0.000000 0.072527 1.171986 0.000000 
-0.000000 1.279146 0.000000 0.053516 1.149241 0.000000 0.107175 0.923304 0.000000 0.136307 0.509993 0.000000 0.094053 0.239356 0.000000 0.007508 -0.047365 0.000000 -0.188689 0.147432 0.000000 -0.409932 -0.255281 0.000000 -1.028093 -0.301098 0.000000 -0.375598 0.602689 0.000000 -0.772210 -0.710253 0.000000 -1.186640 -1.113685 0.000000 -0.616666 -0.285684 0.000000 -0.735391 -0.242842 0.000000 -0.495527 -0.297340 0.000000 -0.320979 -0.602750 0.000000 0.000000 -0.710581 0.000000 0.320979 -0.602750 0.000000 0.495527 -0.297340 0.000000 0.735391 -0.242842 0.000000 0.616666 -0.285684 0.000000 1.186640 -1.113685 0.000000 0.772210 -0.710253 0.000000 0.375598 0.602689 0.000000 1.028093 -0.301098 0.000000 0.409932 -0.255281 0.000000 0.188689 0.147432 0.000000 -0.007508 -0.047365 0.000000 -0.094053 0.239356 0.000000 -0.136307 0.509993 0.000000 -0.107175 0.923304 0.000000 -0.053516 1.149241 0.000000 
-0.000000 1.187793 0.000000 0.124442 1.064811 0.000000 0.219799 0.863590 0.000000 0.286556 0.524246 0.000000 0.220497 0.328955 0.000000 0.176617 0.161909 0.000000 -0.103722 0.337942 0.000000 -0.005982 0.315190 0.000000 -1.047514 -0.235422 0.000000 -0.509515 0.245137 0.000000 -0.462310 -0.257884 0.000000 -1.183807 -1.111288 0.000000 -0.538357 -0.537086 0.000000 -0.577872 -0.316413 0.000000 -0.420295 -0.564111 0.000000 -0.267027 -0.883593 0.000000 -0.000000 -1.059761 0.000000 0.267027 -0.883593 0.000000 0.420295 -0.564111 0.000000 0.577872 -0.316413 0.000000 0.538357 -0.537086 0.000000 1.183807 -1.111288 0.000000 0.462310 -0.257884 0.000000 0.509515 0.245137 0.000000 1.047514 -0.235422 0.000000 0.005982 0.315190 0.000000 0.103722 0.337942 0.000000 -0.176617 0.161909 0.000000 -0.220497 0.328955 0.000000 -0.286556 0.524246 0.000000 -0.219799 0.863590 0.000000 -0.124442 1.064811 0.000000 
0.000000 1.030263 0.000000 0.160333 0.929442 0.000000 0.275532 0.761189 0.000000 0.358606 0.509294 0.000000 0.311358 0.349296 0.000000 0.312527 0.276854 0.000000 0.134757 0.330031 0.000000 0.311207 0.688511 0.000000 -0.198947 0.202435 0.000000 -0.526869 0.017485 0.000000 -0.093400 -0.035961 0.000000 -0.567365 -1.037638 0.000000 -0.565865 -0.891619 0.000000 -0.098483 -0.360904 0.000000 0.012764 -0.608186 0.000000 0.063368 -1.023044 0.000000 -0.000000 -1.244634 0.000000 -0.063368 -1.023044 0.000000 -0.012764 -0.608186 0.000000 0.098483 -0.360904 0.000000 0.565865 -0.891619 0.000000 0.567365 -1.037638 0.000000 0.093400 -0.035961 0.000000 0.526869 0.017485 0.000000 0.198947 0.202435 0.000000 -0.311207 0.688511 0.000000 -0.134757 0.330031 0.000000 -0.312527 0.276854 0.000000 -0.311358 0.349296 0.000000 -0.358606 0.509294 0.000000 -0.275532 0.761189 0.000000 -0.160333 0.929442 0.000000 
0.000000 0.867126 0.000000 0.161979 0.789279 0.000000 0.277704 0.665318 0.000000 0.356529 0.488420 0.000000 0.340537 0.375034 0.000000 0.334975 0.338511 0.000000 0.277035 0.339262 0.000000 0.306931 0.648893 0.000000 0.467518 0.602654 0.000000 -0.253584 0.139590 0.000000 -0.189912 -0.217388 0.000000 -0.384503 -0.638823 0.000000 -0.585577 -1.005967 0.000000 0.204112 -0.895042 0.000000 0.324056 -0.725962 0.000000 0.235368 -0.870828 0.000000 -0.000000 -0.933026 0.000000 -0.235368 -0.870828 0.000000 -0.324056 -0.725962 0.000000 -0.204112 -0.895042 0.000000 0.585577 -1.005967 0.000000 0.384503 -0.638823 0.000000 0.189912 -0.217388 0.000000 0.253584 0.139590 0.000000 -0.467518 0.602654 0.000000 -0.306931 0.648893 0.000000 -0.277035 0.339262 0.000000 -0.334975 0.338511 0.000000 -0.340537 0.375034 0.000000 -0.356529 0.488420 0.000000 -0.277704 0.665318 0.000000 -0.161979 0.789279 0.000000 
-0.000000 0.706306 0.000000 0.152888 0.651738 0.000000 0.266328 0.566639 0.000000 0.352475 0.446461 0.000000 0.375212 0.370850 0.000000 0.407684 0.340357 0.000000 0.433537 0.358074 0.000000 0.472698 0.498028 0.000000 0.785185 0.762950 0.000000 0.618666 0.674915 0.000000 0.418290 0.094958 0.000000 -0.155619 -0.641973 0.000000 -0.817542 -1.480234 0.000000 -0.512233 -1.270537 0.000000 0.282452 -0.639442 0.000000 0.476208 -0.698988 0.000000 -0.000000 -0.773897 0.000000 -0.476208 -0.698988 0.000000 -0.282452 -0.639442 0.000000 0.512233 -1.270537 0.000000 0.817542 -1.480234 0.000000 0.155619 -0.641973 0.000000 -0.418290 0.094958 0.000000 -0.618666 0.674915 0.000000 -0.785185 0.762950 0.000000 -0.472698 0.498028 0.000000 -0.433537 0.358074 0.000000 -0.407684 0.340357 0.000000 -0.375212 0.370850 0.000000 -0.352475 0.446461 0.000000 -0.266328 0.566639 0.000000 -0.152888 0.651738 0.000000 
0.000000 0.561351 0.000000 0.132337 0.522951 0.000000 0.235396 0.465730 0.000000 0.321365 0.379536 0.000000 0.365325 0.319825 0.000000 0.426004 0.280186 0.000000 0.483183 0.274248 0.000000 0.595934 0.297245 0.000000 0.817795 0.456686 0.000000 1.202522 0.506486 0.000000 1.357769 0.556896 0.000000 1.232057 0.597009 0.000000 0.039753 -0.649353 0.000000 -1.311500 -1.995037 0.000000 -1.341686 -1.714404 0.000000 -0.542742 -0.588376 0.000000 0.000000 0.019391 0.000000 0.542742 -0.588376 0.000000 1.341686 -1.714404 0.000000 1.311500 -1.995037 0.000000 -0.039753 -0.649353 0.000000 -1.232057 0.597009 0.000000 -1.357769 0.556896 0.000000 -1.202522 0.506486 0.000000 -0.817795 0.456686 0.000000 -0.595934 0.297245 0.000000 -0.483183 0.274248 0.000000 -0.426004 0.280186 0.000000 -0.365325 0.319825 0.000000 -0.321365 0.379536 0.000000 -0.235396 0.465730 0.000000 -0.132337 0.522951 0.000000 
-0.000000 0.441631 0.000000 0.114799 0.416342 0.000000 0.209508 0.377611 0.000000 0.295911 0.316531 0.000000 0.354419 0.266212 0.000000 0.431237 0.222500 0.000000 0.506039 0.188144 0.000000 0.640109 0.163415 0.000000 0.805710 0.156363 0.000000 1.191170 0.134942 0.000000 1.496017 0.065424 0.000000 2.155981 0.676042 0.000000 2.444946 1.063323 0.000000 1.681354 0.110902 0.000000 0.118296 -1.408200 0.000000 -0.562780 -2.040674 0.000000 0.000000 -1.859381 0.000000 0.562780 -2.040674 0.000000 -0.118296 -1.408200 0.000000 -1.681354 0.110902 0.000000 -2.444946 1.063323 0.000000 -2.155981 0.676042 0.000000 -1.496017 0.065424 0.000000 -1.191170 0.134942 0.000000 -0.805710 0.156363 0.000000 -0.640109 0.163415 0.000000 -0.506039 0.188144 0.000000 -0.431237 0.222500 0.000000 -0.354419 0.266212 0.000000 -0.295911 0.316531 0.000000 -0.209508 0.377611 0.000000 -0.114799 0.416342 0.000000 
-0.000000 0.331754 0.000000 0.096690 0.313443 0.000000 0.180207 0.284618 0.000000 0.259888 0.234625 0.000000 0.320290 0.184499 0.000000 0.395014 0.128566 0.000000 0.465419 0.065376 0.000000 0.577662 -0.002427 0.000000 0.699353 -0.094374 0.000000 0.913400 -0.183821 0.000000 1.095301 -0.407915 0.000000 1.379777 -0.351920 0.000000 2.154669 -0.174726 0.000000 2.877142 0.331613 0.000000 2.753274 0.529730 0.000000 1.469887 -0.470080 0.000000 0.000000 -1.106168 0.000000 -1.469887 -0.470080 0.000000 -2.753274 0.529730 0.000000 -2.877142 0.331613 0.000000 -2.154669 -0.174726 0.000000 -1.379777 -0.351920 0.000000 -1.095301 -0.407915 0.000000 -0.913400 -0.183821 0.000000 -0.699353 -0.094374 0.000000 -0.577662 -0.002427 0.000000 -0.465419 0.065376 0.000000 -0.395014 0.128566 0.000000 -0.320290 0.184499 0.000000 -0.259888 0.234625 0.000000 -0.180207 0.284618 0.000000 -0.096690 0.313443 0.000000 
-0.000000 0.248252 0.000000 0.081768 0.236135 0.000000 0.154274 0.214412 0.000000 0.224547 0.176448 0.000000 0.278921 0.131086 0.000000 0.341081 0.077371 0.000000 0.393551 0.005495 0.000000 0.468082 -0.070520 0.000000 0.536919 -0.179375 0.000000 0.633840 -0.261005 0.000000 0.698476 -0.400953 0.000000 0.673950 -0.383327 0.000000 0.761367 -0.434042 0.000000 0.793152 -0.487704 0.000000 1.079879 -0.000945 0.000000 0.903536 0.712601 0.000000 -0.000000 1.080393 0.000000 -0.903536 0.712601 0.000000 -1.079879 -0.000945 0.000000 -0.793152 -0.487704 0.000000 -0.761367 -0.434042 0.000000 -0.673950 -0.383327 0.000000 -0.698476 -0.400953 0.000000 -0.633840 -0.261005 0.000000 -0.536919 -0.179375 0.000000 -0.468082 -0.070520 0.000000 -0.393551 0.005495 0.000000 -0.341081 0.077371 0.000000 -0.278921 0.131086 0.000000 -0.224547 0.176448 0.000000 -0.154274 0.214412 0.000000 -0.081768 0.236135 0.000000 
-0.000000 0.168218 0.000000 0.069843 0.159169 0.000000 0.132993 0.141839 0.000000 0.193008 0.109978 0.000000 0.239579 0.067965 0.000000 0.285102 0.013936 0.000000 0.318323 -0.061625 0.000000 0.351365 -0.145794 0.000000 0.375676 -0.260133 0.000000 0.389355 -0.345378 0.000000 0.400440 -0.448024 0.000000 0.340535 -0.414811 0.000000 0.351721 -0.293929 0.000000 0.157616 0.013101 0.000000 -0.066887 0.419346 0.000000 -0.131646 0.609799 0.000000 0.000000 0.700904 0.000000 0.131646 0.609799 0.000000 0.066887 0.419346 0.000000 -0.157616 0.013101 0.000000 -0.351721 -0.293929 0.000000 -0.340535 -0.414811 0.000000 -0.400440 -0.448024 0.000000 -0.389355 -0.345378 0.000000 -0.375676 -0.260133 0.000000 -0.351365 -0.145794 0.000000 -0.318323 -0.061625 0.000000 -0.285102 0.013936 0.000000 -0.239579 0.067965 0.000000 -0.193008 0.109978 0.000000 -0.132993 0.141839 0.000000 -0.069843 0.159169 0.000000 
-0.000000 0.108567 0.000000 0.058950 0.103142 0.000000 0.111760 0.091246 0.000000 0.159811 0.069862 0.000000 0.192668 0.038993 0.000000 0.216220 -0.001373 0.000000 0.218648 -0.060768 0.000000 0.201254 -0.127873 0.000000 0.158991 -0.217366 0.000000 0.078145 -0.285769 0.000000 -0.012228 -0.352133 0.000000 -0.165689 -0.334608 0.000000 -0.245954 -0.251123 0.000000 -0.348795 -0.069096 0.000000 -0.261226 0.288317 0.000000 -0.143849 0.645713 0.000000 0.000000 0.817101 0.000000 0.143849 0.645713 0.000000 0.261226 0.288317 0.000000 0.348795 -0.069096 0.000000 0.245954 -0.251123 0.000000 0.165689 -0.334608 0.000000 0.012228 -0.352133 0.000000 -0.078145 -0.285769 0.000000 -0.158991 -0.217366 0.000000 -0.201254 -0.127873 0.000000 -0.218648 -0.060768 0.000000 -0.216220 -0.001373 0.000000 -0.192668 0.038993 0.000000 -0.159811 0.069862 0.000000 -0.111760 0.091246 0.000000 -0.058950 0.103142 0.000000 
0.000000 0.050319 0.000000 0.054283 0.047409 0.000000 0.103142 0.040978 0.000000 0.145530 0.029069 0.000000 0.173004 0.011556 0.000000 0.184522 -0.012044 0.000000 0.171631 -0.046659 0.000000 0.123755 -0.086137 0.000000 0.043759 -0.137025 0.000000 -0.093611 -0.174158 0.000000 -0.242010 -0.204190 0.000000 -0.445744 -0.181086 0.000000 -0.576618 -0.110822 0.000000 -0.696867 0.028373 0.000000 -0.645713 0.214400 0.000000 -0.408551 0.348573 0.000000 -0.000000 0.413206 0.000000 0.408551 0.348573 0.000000 0.645713 0.214400 0.000000 0.696867 0.028373 0.000000 0.576618 -0.110822 0.000000 0.445744 -0.181086 0.000000 0.242010 -0.204190 0.000000 0.093611 -0.174158 0.000000 -0.043759 -0.137025 0.000000 -0.123755 -0.086137 0.000000 -0.171631 -0.046659 0.000000 -0.184522 -0.012044 0.000000 -0.173004 0.011556 0.000000 -0.145530 0.029069 0.000000 -0.103142 0.040978 0.000000 -0.054283 0.047409 0.000000 
