# vtk DataFile Version 2.0
Comment goes here
ASCII

DATASET STRUCTURED_POINTS
FIELD FieldData 1
TIME 1 1 double
0.42000000
DIMENSIONS    32   32   1

ORIGIN    0.000   0.000   0.000
SPACING   0.03125 0.03125   1.000

POINT_DATA   1024
VECTORS u double

0.000000 -0.000000 0.000000 -0.033357 -0.000000 0.000000 -0.073975 -0.000000 0.000000 -0.112864 -0.000000 0.000000 -0.170587 -0.000000 0.000000 -0.222949 -0.000000 0.000000 -0.301202 -0.000000 0.000000 -0.373084 -0.000000 0.000000 -0.477753 0.000000 0.000000 -0.583799 -0.000000 0.000000 -0.729555 0.000000 0.000000 -0.873977 -0.000000 0.000000 -1.015351 -0.000000 0.000000 -1.075210 -0.000000 0.000000 -0.997758 -0.000000 0.000000 -0.688136 -0.000000 0.000000 -0.000000 -0.000000 0.000000 0.688136 0.000000 0.000000 0.997758 0.000000 0.000000 1.075210 0.000000 0.000000 1.015351 0.000000 0.000000 0.873977 0.000000 0.000000 0.729555 0.000000 0.000000 0.583799 0.000000 0.000000 0.477753 0.000000 0.000000 0.373084 0.000000 0.000000 0.301202 0.000000 0.000000 0.222949 0.000000 0.000000 0.170587 0.000000 0.000000 0.112864 0.000000 0.000000 0.073975 -0.000000 0.000000 0.033357 0.000000 0.000000 
0.000000 0.033357 0.000000 -0.031661 0.036987 0.000000 -0.071016 0.039754 0.000000 -0.108623 0.048306 0.000000 -0.165661 0.055042 0.000000 -0.216482 0.065307 0.000000 -0.292458 0.075068 0.000000 -0.359194 0.088276 0.000000 -0.454604 0.105357 0.000000 -0.544686 0.125901 0.000000 -0.669468 0.145089 0.000000 -0.788027 0.142898 0.000000 -0.915847 0.100617 0.000000 -0.973527 -0.008797 0.000000 -0.923012 -0.193537 0.000000 -0.640406 -0.498879 0.000000 -0.000000 -0.688136 0.000000 0.640406 -0.498879 0.000000 0.923012 -0.193537 0.000000 0.973527 -0.008797 0.000000 0.915847 0.100617 0.000000 0.788027 0.142898 0.000000 0.669468 0.145089 0.000000 0.544686 0.125901 0.000000 0.454604 0.105357 0.000000 0.359194 0.088276 0.000000 0.292458 0.075068 0.000000 0.216482 0.065307 0.000000 0.165661 0.055042 0.000000 0.108623 0.048306 0.000000 0.071016 0.039754 0.000000 0.031661 0.036987 0.000000 
0.000000 0.063322 0.000000 -0.027404 0.071016 0.000000 -0.063607 0.076962 0.000000 -0.099243 0.094645 0.000000 -0.156085 0.107859 0.000000 -0.206189 0.126797 0.000000 -0.281335 0.142713 0.000000 -0.342335 0.162146 0.000000 -0.425918 0.185491 0.000000 -0.493000 0.214864 0.000000 -0.584431 0.243341 0.000000 -0.668021 0.246379 0.000000 -0.763539 0.185500 0.000000 -0.805334 0.007165 0.000000 -0.781334 -0.333121 0.000000 -0.523449 -0.923012 0.000000 -0.000000 -1.280811 0.000000 0.523449 -0.923012 0.000000 0.781334 -0.333121 0.000000 0.805334 0.007165 0.000000 0.763539 0.185500 0.000000 0.668021 0.246379 0.000000 0.584431 0.243341 0.000000 0.493000 0.214864 0.000000 0.425918 0.185491 0.000000 0.342335 0.162146 0.000000 0.281335 0.142713 0.000000 0.206189 0.126797 0.000000 0.156085 0.107859 0.000000 0.099243 0.094645 0.000000 0.063607 0.076962 0.000000 0.027404 0.071016 0.000000 
0.000000 0.088164 0.000000 -0.019305 0.100594 0.000000 -0.050012 0.111593 0.000000 -0.082108 0.140784 0.000000 -0.139862 0.161988 0.000000 -0.189997 0.190557 0.000000 -0.266211 0.211214 0.000000 -0.321330 0.232859 0.000000 -0.387684 0.256022 0.000000 -0.418745 0.284414 0.000000 -0.446907 0.320110 0.000000 -0.440900 0.322006 0.000000 -0.457213 0.237929 0.000000 -0.454975 0.008998 0.000000 -0.470433 -0.475422 0.000000 -0.248621 -1.280213 0.000000 0.000000 -1.735034 0.000000 0.248621 -1.280213 0.000000 0.470433 -0.475422 0.000000 0.454975 0.008998 0.000000 0.457213 0.237929 0.000000 0.440900 0.322006 0.000000 0.446907 0.320110 0.000000 0.418745 0.284414 0.000000 0.387684 0.256022 0.000000 0.321330 0.232859 0.000000 0.266211 0.211214 0.000000 0.189997 0.190557 0.000000 0.139862 0.161988 0.000000 0.082108 0.140784 0.000000 0.050012 0.111593 0.000000 0.019305 0.100594 0.000000 
0.000000 0.101932 0.000000 -0.007077 0.121027 0.000000 -0.029400 0.139765 0.000000 -0.058153 0.184496 0.000000 -0.119067 0.215748 0.000000 -0.173423 0.253146 0.000000 -0.257996 0.274046 0.000000 -0.313619 0.283619 0.000000 -0.373243 0.282906 0.000000 -0.379082 0.274087 0.000000 -0.371136 0.265497 0.000000 -0.329561 0.256684 0.000000 -0.273741 0.199574 0.000000 -0.214066 0.020385 0.000000 -0.149408 -0.539474 0.000000 0.061840 -1.393444 0.000000 0.000000 -1.778054 0.000000 -0.061840 -1.393444 0.000000 0.149408 -0.539474 0.000000 0.214066 0.020385 0.000000 0.273741 0.199574 0.000000 0.329561 0.256684 0.000000 0.371136 0.265497 0.000000 0.379082 0.274087 0.000000 0.373243 0.282906 0.000000 0.313619 0.283619 0.000000 0.257996 0.274046 0.000000 0.173423 0.253146 0.000000 0.119067 0.215748 0.000000 0.058153 0.184496 0.000000 0.029400 0.139765 0.000000 0.007077 0.121027 0.000000 
0.000000 0.102318 0.000000 0.011253 0.129994 0.000000 0.000354 0.162669 0.000000 -0.024784 0.230451 0.000000 -0.094833 0.277258 0.000000 -0.161090 0.329486 0.000000 -0.269533 0.351410 0.000000 -0.345007 0.348106 0.000000 -0.416647 0.321485 0.000000 -0.429676 0.282307 0.000000 -0.375699 0.270589 0.000000 -0.227058 0.224611 0.000000 -0.067176 0.122434 0.000000 0.067360 -0.115335 0.000000 0.299601 -0.751328 0.000000 0.389371 -1.429621 0.000000 0.000000 -1.611354 0.000000 -0.389371 -1.429621 0.000000 -0.299601 -0.751328 0.000000 -0.067360 -0.115335 0.000000 0.067176 0.122434 0.000000 0.227058 0.224611 0.000000 0.375699 0.270589 0.000000 0.429676 0.282307 0.000000 0.416647 0.321485 0.000000 0.345007 0.348106 0.000000 0.269533 0.351410 0.000000 0.161090 0.329486 0.000000 0.094833 0.277258 0.000000 0.024784 0.230451 0.000000 -0.000354 0.162669 0.000000 -0.011253 0.129994 0.000000 
0.000000 0.079425 0.000000 0.036600 0.120674 0.000000 0.042927 0.175802 0.000000 0.020205 0.279682 0.000000 -0.061224 0.352054 0.000000 -0.146607 0.427846 0.000000 -0.289474 0.457963 0.000000 -0.389544 0.430733 0.000000 -0.478184 0.367576 0.000000 -0.480449 0.233139 0.000000 -0.481623 0.062879 0.000000 -0.459734 -0.051838 0.000000 -0.308368 -0.094844 0.000000 0.000088 -0.346392 0.000000 0.411104 -0.861485 0.000000 0.372187 -1.093843 0.000000 -0.000000 -0.999313 0.000000 -0.372187 -1.093843 0.000000 -0.411104 -0.861485 0.000000 -0.000088 -0.346392 0.000000 0.308368 -0.094844 0.000000 0.459734 -0.051838 0.000000 0.481623 0.062879 0.000000 0.480449 0.233139 0.000000 0.478184 0.367576 0.000000 0.389544 0.430733 0.000000 0.289474 0.457963 0.000000 0.146607 0.427846 0.000000 0.061224 0.352054 0.000000 -0.020205 0.279682 0.000000 -0.042927 0.175802 0.000000 -0.036600 0.120674 0.000000 
0.000000 0.029117 0.000000 0.070378 0.087067 0.000000 0.099672 0.179064 0.000000 0.081726 0.334603 0.000000 -0.016399 0.444070 0.000000 -0.125834 0.557736 0.000000 -0.331192 0.594348 0.000000 -0.498661 0.536816 0.000000 -0.724430 0.412390 0.000000 -0.939849 0.285746 0.000000 -0.913546 0.249874 0.000000 -0.504523 0.051356 0.000000 0.029524 -0.337388 0.000000 0.369980 -0.834807 0.000000 0.428263 -1.123427 0.000000 0.166927 -1.018517 0.000000 -0.000000 -0.866980 0.000000 -0.166927 -1.018517 0.000000 -0.428263 -1.123427 0.000000 -0.369980 -0.834807 0.000000 -0.029524 -0.337388 0.000000 0.504523 0.051356 0.000000 0.913546 0.249874 0.000000 0.939849 0.285746 0.000000 0.724430 0.412390 0.000000 0.498661 0.536816 0.000000 0.331192 0.594348 0.000000 0.125834 0.557736 0.000000 0.016399 0.444070 0.000000 -0.081726 0.334603 0.000000 -0.099672 0.179064 0.000000 -0.070378 0.087067 0.000000 
0.000000 -0.061330 0.000000 0.108274 0.021002 0.000000 0.168812 0.164454 0.000000 0.153360 0.395753 0.000000 0.045618 0.559614 0.000000 -0.099115 0.742639 0.000000 -0.403092 0.830789 0.000000 -0.716017 0.823971 0.000000 -1.008217 0.808763 0.000000 -0.829519 0.422255 0.000000 -0.365060 -0.372448 0.000000 0.057712 -0.994908 0.000000 0.288291 -0.969347 0.000000 0.236443 -0.745131 0.000000 0.100447 -0.658431 0.000000 -0.003057 -0.665580 0.000000 -0.000000 -0.665459 0.000000 0.003057 -0.665580 0.000000 -0.100447 -0.658431 0.000000 -0.236443 -0.745131 0.000000 -0.288291 -0.969347 0.000000 -0.057712 -0.994908 0.000000 0.365060 -0.372448 0.000000 0.829519 0.422255 0.000000 1.008217 0.808763 0.000000 0.716017 0.823971 0.000000 0.403092 0.830789 0.000000 0.099115 0.742639 0.000000 -0.045618 0.559614 0.000000 -0.153360 0.395753 0.000000 -0.168812 0.164454 0.000000 -0.108274 0.021002 0.000000 
0.000000 -0.187432 0.000000 0.145496 -0.081744 0.000000 0.242976 0.133978 0.000000 0.237858 0.457797 0.000000 0.137138 0.696546 0.000000 -0.017843 1.006446 0.000000 -0.448638 1.211250 0.000000 -0.818796 1.141940 0.000000 -0.795120 0.525891 0.000000 -0.012331 -0.357411 0.000000 0.193923 -0.637357 0.000000 0.023936 -0.601995 0.000000 -0.115011 -0.516119 0.000000 -0.170774 -0.646964 0.000000 -0.009921 -0.883926 0.000000 0.062201 -0.918069 0.000000 -0.000000 -0.873094 0.000000 -0.062201 -0.918069 0.000000 0.009921 -0.883926 0.000000 0.170774 -0.646964 0.000000 0.115011 -0.516119 0.000000 -0.023936 -0.601995 0.000000 -0.193923 -0.637357 0.000000 0.012331 -0.357411 0.000000 0.795120 0.525891 0.000000 0.818796 1.141940 0.000000 0.448638 1.211250 0.000000 0.017843 1.006446 0.000000 -0.137138 0.696546 0.000000 -0.237858 0.457797 0.000000 -0.242976 0.133978 0.000000 -0.145496 -0.081744 0.000000 
0.000000 -0.352323 0.000000 0.167240 -0.221974 0.000000 0.304833 0.072093 0.000000 0.306991 0.501591 0.000000 0.267112 0.815315 0.000000 0.115251 1.328415 0.000000 -0.496297 1.631743 0.000000 -0.709870 1.170453 0.000000 -0.000411 0.002298 0.000000 0.455105 -0.566788 0.000000 0.368078 -0.408715 0.000000 0.657738 -0.685974 0.000000 1.008430 -0.774636 0.000000 1.201872 -0.850221 0.000000 1.029280 -0.891407 0.000000 0.565925 -0.675501 0.000000 -0.000000 -0.541057 0.000000 -0.565925 -0.675501 0.000000 -1.029280 -0.891407 0.000000 -1.201872 -0.850221 0.000000 -1.008430 -0.774636 0.000000 -0.657738 -0.685974 0.000000 -0.368078 -0.408715 0.000000 -0.455105 -0.566788 0.000000 0.000411 0.002298 0.000000 0.709870 1.170453 0.000000 0.496297 1.631743 0.000000 -0.115251 1.328415 0.000000 -0.267112 0.815315 0.000000 -0.306991 0.501591 0.000000 -0.304833 0.072093 0.000000 -0.167240 -0.221974 0.000000 
0.000000 -0.521911 0.000000 0.156472 -0.386578 0.000000 0.325086 -0.005774 0.000000 0.327057 0.495518 0.000000 0.397996 0.888286 0.000000 0.149227 1.769854 0.000000 -0.912786 2.036371 0.000000 -0.110085 0.646054 0.000000 0.984547 -0.639084 0.000000 0.997619 -0.725899 0.000000 1.119026 -0.839990 0.000000 1.095856 -1.242347 0.000000 0.931002 -1.060253 0.000000 0.823010 -0.667814 0.000000 0.558544 -0.247979 0.000000 0.275558 0.111211 0.000000 0.000000 0.258755 0.000000 -0.275558 0.111211 0.000000 -0.558544 -0.247979 0.000000 -0.823010 -0.667814 0.000000 -0.931002 -1.060253 0.000000 -1.095856 -1.242347 0.000000 -1.119026 -0.839990 0.000000 -0.997619 -0.725899 0.000000 -0.984547 -0.639084 0.000000 0.110085 0.646054 0.000000 0.912786 2.036371 0.000000 -0.149227 1.769854 0.000000 -0.397996 0.888286 0.000000 -0.327057 0.495518 0.000000 -0.325086 -0.005774 0.000000 -0.156472 -0.386578 0.000000 
0.000000 -0.665267 0.000000 0.092447 -0.547061 0.000000 0.254380 -0.098493 0.000000 0.199849 0.428682 0.000000 0.488296 0.993145 0.000000 -0.325485 2.639197 0.000000 -0.939351 1.891055 0.000000 1.300068 -0.726881 0.000000 1.319935 -1.105406 0.000000 1.003180 -0.701267 0.000000 0.555952 -0.506952 0.000000 0.277097 -0.497950 0.000000 0.026039 -0.501791 0.000000 -0.081964 -0.477763 0.000000 -0.119386 -0.343955 0.000000 -0.071519 -0.116957 0.000000 0.000000 0.010060 0.000000 0.071519 -0.116957 0.000000 0.119386 -0.343955 0.000000 0.081964 -0.477763 0.000000 -0.026039 -0.501791 0.000000 -0.277097 -0.497950 0.000000 -0.555952 -0.506952 0.000000 -1.003180 -0.701267 0.000000 -1.319935 -1.105406 0.000000 -1.300068 -0.726881 0.000000 0.939351 1.891055 0.000000 0.325485 2.639197 0.000000 -0.488296 0.993145 0.000000 -0.199849 0.428682 0.000000 -0.254380 -0.098493 0.000000 -0.092447 -0.547061 0.000000 
0.000000 -0.706805 0.000000 -0.034727 -0.640958 0.000000 0.070795 -0.113176 0.000000 -0.072331 0.261603 0.000000 0.465763 1.413621 0.000000 -0.820014 3.197501 0.000000 0.658230 0.410817 0.000000 2.434495 -1.613232 0.000000 1.034417 -0.342196 0.000000 0.644898 0.038084 0.000000 0.091959 -0.113906 0.000000 0.090551 -0.712435 0.000000 0.061733 -0.701192 0.000000 0.047555 -0.522389 0.000000 -0.012493 -0.258425 0.000000 -0.031610 -0.008175 0.000000 0.000000 0.115717 0.000000 0.031610 -0.008175 0.000000 0.012493 -0.258425 0.000000 -0.047555 -0.522389 0.000000 -0.061733 -0.701192 0.000000 -0.090551 -0.712435 0.000000 -0.091959 -0.113906 0.000000 -0.644898 0.038084 0.000000 -1.034417 -0.342196 0.000000 -2.434495 -1.613232 0.000000 -0.658230 0.410817 0.000000 0.820014 3.197501 0.000000 -0.465763 1.413621 0.000000 0.072331 0.261603 0.000000 -0.070795 -0.113176 0.000000 0.034727 -0.640958 0.000000 
-0.000000 -0.595813 0.000000 -0.169803 -0.617856 0.000000 -0.263277 -0.060889 0.000000 -0.215532 0.033714 0.000000 0.000268 1.740828 0.000000 -0.035168 2.446730 0.000000 2.071592 -1.363454 0.000000 1.544865 -1.103068 0.000000 0.709341 0.684192 0.000000 0.571407 0.241191 0.000000 0.573440 0.047395 0.000000 0.397767 -0.467724 0.000000 0.178006 -0.458796 0.000000 0.023381 -0.403537 0.000000 -0.066458 -0.264790 0.000000 -0.071958 -0.129450 0.000000 0.000000 -0.053160 0.000000 0.071958 -0.129450 0.000000 0.066458 -0.264790 0.000000 -0.023381 -0.403537 0.000000 -0.178006 -0.458796 0.000000 -0.397767 -0.467724 0.000000 -0.573440 0.047395 0.000000 -0.571407 0.241191 0.000000 -0.709341 0.684192 0.000000 -1.544865 -1.103068 0.000000 -2.071592 -1.363454 0.000000 0.035168 2.446730 0.000000 -0.000268 1.740828 0.000000 0.215532 0.033714 0.000000 0.263277 -0.060889 0.000000 0.169803 -0.617856 0.000000 
0.000000 -0.367199 0.000000 -0.297907 -0.377681 0.000000 -0.617856 -0.067446 0.000000 -0.358795 -0.001941 0.000000 -0.584142 1.233256 0.000000 1.382032 1.126177 0.000000 1.862588 -1.169216 0.000000 0.018578 -0.250981 0.000000 0.759520 0.631262 0.000000 0.702770 0.173985 0.000000 1.000711 0.059735 0.000000 0.750165 -0.317000 0.000000 0.532987 -0.326806 0.000000 0.291369 -0.277925 0.000000 0.129450 -0.163085 0.000000 0.026580 -0.074633 0.000000 0.000000 -0.028200 0.000000 -0.026580 -0.074633 0.000000 -0.129450 -0.163085 0.000000 -0.291369 -0.277925 0.000000 -0.532987 -0.326806 0.000000 -0.750165 -0.317000 0.000000 -1.000711 0.059735 0.000000 -0.702770 0.173985 0.000000 -0.759520 0.631262 0.000000 -0.018578 -0.250981 0.000000 -1.862588 -1.169216 0.000000 -1.382032 1.126177 0.000000 0.584142 1.233256 0.000000 0.358795 -0.001941 0.000000 0.617856 -0.067446 0.000000 0.297907 -0.377681 0.000000 
-0.000000 -0.000000 0.000000 -0.367199 -0.000000 0.000000 -0.755362 -0.000000 0.000000 -0.502092 0.000000 0.000000 -0.759245 0.000000 0.000000 1.964421 0.000000 0.000000 1.493109 -0.000000 0.000000 -0.374011 -0.000000 0.000000 0.991146 0.000000 0.000000 0.888513 0.000000 0.000000 1.339117 0.000000 0.000000 1.007982 0.000000 0.000000 0.705116 0.000000 0.000000 0.354370 -0.000000 0.000000 0.149266 0.000000 0.000000 0.028200 -0.000000 0.000000 0.000000 0.000000 0.000000 -0.028200 -0.000000 0.000000 -0.149266 -0.000000 0.000000 -0.354370 -0.000000 0.000000 -0.705116 -0.000000 0.000000 -1.007982 -0.000000 0.000000 -1.339117 -0.000000 0.000000 -0.888513 -0.000000 0.000000 -0.991146 -0.000000 0.000000 0.374011 0.000000 0.000000 -1.493109 0.000000 0.000000 -1.964421 -0.000000 0.000000 0.759245 -0.000000 0.000000 0.502092 0.000000 0.000000 0.755362 0.000000 0.000000 0.367199 0.000000 0.000000 
-0.000000 0.367199 0.000000 -0.297907 0.377681 0.000000 -0.617856 0.067446 0.000000 -0.358795 0.001941 0.000000 -0.584142 -1.233256 0.000000 1.382032 -1.126177 0.000000 1.862588 1.169216 0.000000 0.018578 0.250981 0.000000 0.759520 -0.631262 0.000000 0.702770 -0.173985 0.000000 1.000711 -0.059735 0.000000 0.750165 0.317000 0.000000 0.532987 0.326806 0.000000 0.291369 0.277925 0.000000 0.129450 0.163085 0.000000 0.026580 0.074633 0.000000 0.000000 0.028200 0.000000 -0.026580 0.074633 0.000000 -0.129450 0.163085 0.000000 -0.291369 0.277925 0.000000 -0.532987 0.326806 0.000000 -0.750165 0.317000 0.000000 -1.000711 -0.059735 0.000000 -0.702770 -0.173985 0.000000 -0.759520 -0.631262 0.000000 -0.018578 0.250981 0.000000 -1.862588 1.169216 0.000000 -1.382032 -1.126177 0.000000 0.584142 -1.233256 0.000000 0.358795 0.001941 0.000000 0.617856 0.067446 0.000000 0.297907 0.377681 0.000000 
-0.000000 0.595813 0.000000 -0.169803 0.617856 0.000000 -0.263277 0.060889 0.000000 -0.215532 -0.033714 0.000000 0.000268 -1.740828 0.000000 -0.035168 -2.446730 0.000000 2.071592 1.363454 0.000000 1.544865 1.103068 0.000000 0.709341 -0.684192 0.000000 0.571407 -0.241191 0.000000 0.573440 -0.047395 0.000000 0.397767 0.467724 0.000000 0.178006 0.458796 0.000000 0.023381 0.403537 0.000000 -0.066458 0.264790 0.000000 -0.071958 0.129450 0.000000 0.000000 0.053160 0.000000 0.071958 0.129450 0.000000 0.066458 0.264790 0.000000 -0.023381 0.403537 0.000000 -0.178006 0.458796 0.000000 -0.397767 0.467724 0.000000 -0.573440 -0.047395 0.000000 -0.571407 -0.241191 0.000000 -0.709341 -0.684192 0.000000 -1.544865 1.103068 0.000000 -2.071592 1.363454 0.000000 0.035168 -2.446730 0.000000 -0.000268 -1.740828 0.000000 0.215532 -0.033714 0.000000 0.263277 0.060889 0.000000 0.169803 0.617856 0.000000 
-0.000000 0.706805 0.000000 -0.034727 0.640958 0.000000 0.070795 0.113176 0.000000 -0.072331 -0.261603 0.000000 0.465763 -1.413621 0.000000 -0.820014 -3.197501 0.000000 0.658230 -0.410817 0.000000 2.434495 1.613232 0.000000 1.034417 0.342196 0.000000 0.644898 -0.038084 0.000000 0.091959 0.113906 0.000000 0.090551 0.712435 0.000000 0.061733 0.701192 0.000000 0.047555 0.522389 0.000000 -0.012493 0.258425 0.000000 -0.031610 0.008175 0.000000 0.000000 -0.115717 0.000000 0.031610 0.008175 0.000000 0.012493 0.258425 0.000000 -0.047555 0.522389 0.000000 -0.061733 0.701192 0.000000 -0.090551 0.712435 0.000000 -0.091959 0.113906 0.000000 -0.644898 -0.038084 0.000000 -1.034417 0.342196 0.000000 -2.434495 1.613232 0.000000 -0.658230 -0.410817 0.000000 0.820014 -3.197501 0.000000 -0.465763 -1.413621 0.000000 0.072331 -0.261603 0.000000 -0.070795 0.113176 0.000000 0.034727 0.640958 0.000000 
-0.000000 0.665267 0.000000 0.092447 0.547061 0.000000 0.254380 0.098493 0.000000 0.199849 -0.428682 0.000000 0.488296 -0.993145 0.000000 -0.325485 -2.639197 0.000000 -0.939351 -1.891055 0.000000 1.300068 0.726881 0.000000 1.319935 1.105406 0.000000 1.003180 0.701267 0.000000 0.555952 0.506952 0.000000 0.277097 0.497950 0.000000 0.026039 0.501791 0.000000 -0.081964 0.477763 0.000000 -0.119386 0.343955 0.000000 -0.071519 0.116957 0.000000 0.000000 -0.010060 0.000000 0.071519 0.116957 0.000000 0.119386 0.343955 0.000000 0.081964 0.477763 0.000000 -0.026039 0.501791 0.000000 -0.277097 0.497950 0.000000 -0.555952 0.506952 0.000000 -1.003180 0.701267 0.000000 -1.319935 1.105406 0.000000 -1.300068 0.726881 0.000000 0.939351 -1.891055 0.000000 0.325485 -2.639197 0.000000 -0.488296 -0.993145 0.000000 -0.199849 -0.428682 0.000000 -0.254380 0.098493 0.000000 -0.092447 0.547061 0.000000 
-0.000000 0.521911 0.000000 0.156472 0.386578 0.000000 0.325086 0.005774 0.000000 0.327057 -0.495518 0.000000 0.397996 -0.888286 0.000000 0.149227 -1.769854 0.000000 -0.912786 -2.036371 0.000000 -0.110085 -0.646054 0.000000 0.984547 0.639084 0.000000 0.997619 0.725899 0.000000 1.119026 0.839990 0.000000 1.095856 1.242347 0.000000 0.931002 1.060253 0.000000 0.823010 0.667814 0.000000 0.558544 0.247979 0.000000 0.275558 -0.111211 0.000000 0.000000 -0.258755 0.000000 -0.275558 -0.111211 0.000000 -0.558544 0.247979 0.000000 -0.823010 0.667814 0.000000 -0.931002 1.060253 0.000000 -1.095856 1.242347 0.000000 -1.119026 0.839990 0.000000 -0.997619 0.725899 0.000000 -0.984547 0.639084 0.000000 0.110085 -0.646054 0.000000 0.912786 -2.036371 0.000000 -0.149227 -1.769854 0.000000 -0.397996 -0.888286 0.000000 -0.327057 -0.495518 0.000000 -0.325086 0.005774 0.000000 -0.156472 0.386578 0.000000 
0.000000 0.352323 0.000000 0.167240 0.221974 0.000000 0.304833 -0.072093 0.000000 0.306991 -0.501591 0.000000 0.267112 -0.815315 0.000000 0.115251 -1.328415 0.000000 -0.496297 -1.631743 0.000000 -0.709870 -1.170453 0.000000 -0.000411 -0.002298 0.000000 0.455105 0.566788 0.000000 0.368078 0.408715 0.000000 0.657738 0.685974 0.000000 1.008430 0.774636 0.000000 1.201872 0.850221 0.000000 1.029280 0.891407 0.000000 0.565925 0.675501 0.000000 -0.000000 0.541057 0.000000 -0.565925 0.675501 0.000000 -1.029280 0.891407 0.000000 -1.201872 0.850221 0.000000 -1.008430 0.774636 0.000000 -0.657738 0.685974 0.000000 -0.368078 0.408715 0.000000 -0.455105 0.566788 0.000000 0.000411 -0.002298 0.000000 0.709870 -1.170453 0.000000 0.496297 -1.631743 0.000000 -0.115251 -1.328415 0.000000 -0.267112 -0.815315 0.000000 -0.306991 -0.501591 0.000000 -0.304833 -0.072093 0.000000 -0.167240 0.221974 0.000000 
0.000000 0.187432 0.000000 0.145496 0.081744 0.000000 0.242976 -0.133978 0.000000 0.237858 -0.457797 0.000000 0.137138 -0.696546 0.000000 -0.017843 -1.006446 0.000000 -0.448638 -1.211250 0.000000 -0.818796 -1.141940 0.000000 -0.795120 -0.525891 0.000000 -0.012331 0.357411 0.000000 0.193923 0.637357 0.000000 0.023936 0.601995 0.000000 -0.115011 0.516119 0.000000 -0.170774 0.646964 0.000000 -0.009921 0.883926 0.000000 0.062201 0.918069 0.000000 -0.000000 0.873094 0.000000 -0.062201 0.918069 0.000000 0.009921 0.883926 0.000000 0.170774 0.646964 0.000000 0.115011 0.516119 0.000000 -0.023936 0.601995 0.000000 -0.193923 0.637357 0.000000 0.012331 0.357411 0.000000 0.795120 -0.525891 0.000000 0.818796 -1.141940 0.000000 0.448638 -1.211250 0.000000 0.017843 -1.006446 0.000000 -0.137138 -0.696546 0.000000 -0.237858 -0.457797 0.000000 -0.242976 -0.133978 0.000000 -0.145496 0.081744 0.000000 
0.000000 0.061330 0.000000 0.108274 -0.021002 0.000000 0.168812 -0.164454 0.000000 0.153360 -0.395753 0.000000 0.045618 -0.559614 0.000000 -0.099115 -0.742639 0.000000 -0.403092 -0.830789 0.000000 -0.716017 -0.823971 0.000000 -1.008217 -0.808763 0.000000 -0.829519 -0.422255 0.000000 -0.365060 0.372448 0.000000 0.057712 0.994908 0.000000 0.288291 0.969347 0.000000 0.236443 0.745131 0.000000 0.100447 0.658431 0.000000 -0.003057 0.665580 0.000000 0.000000 0.665459 0.000000 0.003057 0.665580 0.000000 -0.100447 0.658431 0.000000 -0.236443 0.745131 0.000000 -0.288291 0.969347 0.000000 -0.057712 0.994908 0.000000 0.365060 0.372448 0.000000 0.829519 -0.422255 0.000000 1.008217 -0.808763 0.000000 0.716017 -0.823971 0.000000 0.403092 -0.830789 0.000000 0.099115 -0.742639 0.000000 -0.045618 -0.559614 0.000000 -0.153360 -0.395753 0.000000 -0.168812 -0.164454 0.000000 -0.108274 -0.021002 0.000000 
-0.000000 -0.029117 0.000000 0.070378 -0.087067 0.000000 0.099672 -0.179064 0.000000 0.081726 -0.334603 0.000000 -0.016399 -0.444070 0.000000 -0.125834 -0.557736 0.000000 -0.331192 -0.594348 0.000000 -0.498661 -0.536816 0.000000 -0.724430 -0.412390 0.000000 -0.939849 -0.285746 0.000000 -0.913546 -0.249874 0.000000 -0.504523 -0.051356 0.000000 0.029524 0.337388 0.000000 0.369980 0.834807 0.000000 0.428263 1.123427 0.000000 0.166927 1.018517 0.000000 0.000000 0.866980 0.000000 -0.166927 1.018517 0.000000 -0.428263 1.123427 0.000000 -0.369980 0.834807 0.000000 -0.029524 0.337388 0.000000 0.504523 -0.051356 0.000000 0.913546 -0.249874 0.000000 0.939849 -0.285746 0.000000 0.724430 -0.412390 0.000000 0.498661 -0.536816 0.000000 0.331192 -0.594348 0.000000 0.125834 -0.557736 0.000000 0.016399 -0.444070 0.000000 -0.081726 -0.334603 0.000000 -0.099672 -0.179064 0.000000 -0.070378 -0.087067 0.000000 
0.000000 -0.079425 0.000000 0.036600 -0.120674 0.000000 0.042927 -0.175802 0.000000 0.020205 -0.279682 0.000000 -0.061224 -0.352054 0.000000 -0.146607 -0.427846 0.000000 -0.289474 -0.457963 0.000000 -0.389544 -0.430733 0.000000 -0.478184 -0.367576 0.000000 -0.480449 -0.233139 0.000000 -0.481623 -0.062879 0.000000 -0.459734 0.051838 0.000000 -0.308368 0.094844 0.000000 0.000088 0.346392 0.000000 0.411104 0.861485 0.000000 0.372187 1.093843 0.000000 0.000000 0.999313 0.000000 -0.372187 1.093843 0.000000 -0.411104 0.861485 0.000000 -0.000088 0.346392 0.000000 0.308368 0.094844 0.000000 0.459734 0.051838 0.000000 0.481623 -0.062879 0.000000 0.480449 -0.233139 0.000000 0.478184 -0.367576 0.000000 0.389544 -0.430733 0.000000 0.289474 -0.457963 0.000000 0.146607 -0.427846 0.000000 0.061224 -0.352054 0.000000 -0.020205 -0.279682 0.000000 -0.042927 -0.175802 0.000000 -0.036600 -0.120674 0.000000 
-0.000000 -0.102318 0.000000 0.011253 -0.129994 0.000000 0.000354 -0.162669 0.000000 -0.024784 -0.230451 0.000000 -0.094833 -0.277258 0.000000 -0.161090 -0.329486 0.000000 -0.269533 -0.351410 0.000000 -0.345007 -0.348106 0.000000 -0.416647 -0.321485 0.000000 -0.429676 -0.282307 0.000000 -0.375699 -0.270589 0.000000 -0.227058 -0.224611 0.000000 -0.067176 -0.122434 0.000000 0.067360 0.115335 0.000000 0.299601 0.751328 0.000000 0.389371 1.429621 0.000000 0.000000 1.611354 0.000000 -0.389371 1.429621 0.000000 -0.299601 0.751328 0.000000 -0.067360 0.115335 0.000000 0.067176 -0.122434 0.000000 0.227058 -0.224611 0.000000 0.375699 -0.270589 0.000000 0.429676 -0.282307 0.000000 0.416647 -0.321485 0.000000 0.345007 -0.348106 0.000000 0.269533 -0.351410 0.000000 0.161090 -0.329486 0.000000 0.094833 -0.277258 0.000000 0.024784 -0.230451 0.000000 -0.000354 -0.162669 0.000000 -0.011253 -0.129994 0.000000 
0.000000 -0.101932 0.000000 -0.007077 -0.121027 0.000000 -0.029400 -0.139765 0.000000 -0.058153 -0.184496 0.000000 -0.119067 -0.215748 0.000000 -0.173423 -0.253146 0.000000 -0.257996 -0.274046 0.000000 -0.313619 -0.283619 0.000000 -0.373243 -0.282906 0.000000 -0.379082 -0.274087 0.000000 -0.371136 -0.265497 0.000000 -0.329561 -0.256684 0.000000 -0.273741 -0.199574 0.000000 -0.214066 -0.020385 0.000000 -0.149408 0.539474 0.000000 0.061840 1.393444 0.000000 0.000000 1.778054 0.000000 -0.061840 1.393444 0.000000 0.149408 0.539474 0.000000 0.214066 -0.020385 0.000000 0.273741 -0.199574 0.000000 0.329561 -0.256684 0.000000 0.371136 -0.265497 0.000000 0.379082 -0.274087 0.000000 0.373243 -0.282906 0.000000 0.313619 -0.283619 0.000000 0.257996 -0.274046 0.000000 0.173423 -0.253146 0.000000 0.119067 -0.215748 0.000000 0.058153 -0.184496 0.000000 0.029400 -0.139765 0.000000 0.007077 -0.121027 0.000000 
-0.000000 -0.088164 0.000000 -0.019305 -0.100594 0.000000 -0.050012 -0.111593 0.000000 -0.082108 -0.140784 0.000000 -0.139862 -0.161988 0.000000 -0.189997 -0.190557 0.000000 -0.266211 -0.211214 0.000000 -0.321330 -0.232859 0.000000 -0.387684 -0.256022 0.000000 -0.418745 -0.284414 0.000000 -0.446907 -0.320110 0.000000 -0.440900 -0.322006 0.000000 -0.457213 -0.237929 0.000000 -0.454975 -0.008998 0.000000 -0.470433 0.475422 0.000000 -0.248621 1.280213 0.000000 0.000000 1.735034 0.000000 0.248621 1.280213 0.000000 0.470433 0.475422 0.000000 0.454975 -0.008998 0.000000 0.457213 -0.237929 0.000000 0.440900 -0.322006 0.000000 0.446907 -0.320110 0.000000 0.418745 -0.284414 0.000000 0.387684 -0.256022 0.000000 0.321330 -0.232859 0.000000 0.266211 -0.211214 0.000000 0.189997 -0.190557 0.000000 0.139862 -0.161988 0.000000 0.082108 -0.140784 0.000000 0.050012 -0.111593 0.000000 0.019305 -0.100594 0.000000 
0.000000 -0.063322 0.000000 -0.027404 -0.071016 0.000000 -0.063607 -0.076962 0.000000 -0.099243 -0.094645 0.000000 -0.156085 -0.107859 0.000000 -0.206189 -0.126797 0.000000 -0.281335 -0.142713 0.000000 -0.342335 -0.162146 0.000000 -0.425918 -0.185491 0.000000 -0.493000 -0.214864 0.000000 -0.584431 -0.243341 0.000000 -0.668021 -0.246379 0.000000 -0.763539 -0.185500 0.000000 -0.805334 -0.007165 0.000000 -0.781334 0.333121 0.000000 -0.523449 0.923012 0.000000 0.000000 1.280811 0.000000 0.523449 0.923012 0.000000 0.781334 0.333121 0.000000 0.805334 -0.007165 0.000000 0.763539 -0.185500 0.000000 0.668021 -0.246379 0.000000 0.584431 -0.243341 0.000000 0.493000 -0.214864 0.000000 0.425918 -0.185491 0.000000 0.342335 -0.162146 0.000000 0.281335 -0.142713 0.000000 0.206189 -0.126797 0.000000 0.156085 -0.107859 0.000000 0.099243 -0.094645 0.000000 0.063607 -0.076962 0.000000 0.027404 -0.071016 0.000000 
-0.000000 -0.033357 0.000000 -0.031661 -0.036987 0.000000 -0.071016 -0.039754 0.000000 -0.108623 -0.048306 0.000000 -0.165661 -0.055042 0.000000 -0.216482 -0.065307 0.000000 -0.292458 -0.075068 0.000000 -0.359194 -0.088276 0.000000 -0.454604 -0.105357 0.000000 -0.544686 -0.125901 0.000000 -0.669468 -0.145089 0.000000 -0.788027 -0.142898 0.000000 -0.915847 -0.100617 0.000000 -0.973527 0.008797 0.000000 -0.923012 0.193537 0.000000 -0.640406 0.498879 0.000000 -0.000000 0.688136 0.000000 0.640406 0.498879 0.000000 0.923012 0.193537 0.000000 0.973527 0.008797 0.000000 0.915847 -0.100617 0.000000 0.788027 -0.142898 0.000000 0.669468 -0.145089 0.000000 0.544686 -0.125901 0.000000 0.454604 -0.105357 0.000000 0.359194 -0.088276 0.000000 0.292458 -0.075068 0.000000 0.216482 -0.065307 0.000000 0.165661 -0.055042 0.000000 0.108623 -0.048306 0.000000 0.071016 -0.039754 0.000000 0.031661 -0.036987 0.000000 
