# vtk DataFile Version 2.0
Comment goes here
ASCII

DATASET STRUCTURED_POINTS
FIELD FieldData 1
TIME 1 1 double
0.14000000
DIMENSIONS    32   32   1

ORIGIN    0.000   0.000   0.000
SPACING   0.03125 0.03125   1.000

POINT_DATA   1024
VECTORS u double

-0.000000 -0.000000 0.000000 -0.146641 -0.000000 0.000000 -0.295493 -0.000000 0.000000 -0.451429 -0.000000 0.000000 -0.612650 -0.000000 0.000000 -0.784873 -0.000000 0.000000 -0.960918 -0.000000 0.000000 -1.144053 -0.000000 0.000000 -1.319576 -0.000000 0.000000 -1.481263 -0.000000 0.000000 -1.601917 -0.000000 0.000000 -1.662189 -0.000000 0.000000 -1.623530 -0.000000 0.000000 -1.450597 -0.000000 0.000000 -1.112695 -0.000000 0.000000 -0.621586 0.000000 0.000000 0.000000 -0.000000 0.000000 0.621586 0.000000 0.000000 1.112695 0.000000 0.000000 1.450597 0.000000 0.000000 1.623530 0.000000 0.000000 1.662189 -0.000000 0.000000 1.601917 0.000000 0.000000 1.481263 0.000000 0.000000 1.319576 0.000000 0.000000 1.144053 0.000000 0.000000 0.960918 0.000000 0.000000 0.784873 0.000000 0.000000 0.612650 0.000000 0.000000 0.451429 0.000000 0.000000 0.295493 0.000000 0.000000 0.146641 -0.000000 0.000000 
-0.000000 0.146641 0.000000 -0.144635 0.147747 0.000000 -0.291381 0.152394 0.000000 -0.445927 0.158578 0.000000 -0.605301 0.166722 0.000000 -0.777680 0.174134 0.000000 -0.952940 0.179590 0.000000 -1.139937 0.179329 0.000000 -1.318233 0.168605 0.000000 -1.490625 0.141171 0.000000 -1.619880 0.090463 0.000000 -1.697547 0.010806 0.000000 -1.668165 -0.105796 0.000000 -1.512167 -0.255417 0.000000 -1.167295 -0.414505 0.000000 -0.642832 -0.556348 0.000000 0.000000 -0.621586 0.000000 0.642832 -0.556348 0.000000 1.167295 -0.414505 0.000000 1.512167 -0.255417 0.000000 1.668165 -0.105796 0.000000 1.697547 0.010806 0.000000 1.619880 0.090463 0.000000 1.490625 0.141171 0.000000 1.318233 0.168605 0.000000 1.139937 0.179329 0.000000 0.952940 0.179590 0.000000 0.777680 0.174134 0.000000 0.605301 0.166722 0.000000 0.445927 0.158578 0.000000 0.291381 0.152394 0.000000 0.144635 0.147747 0.000000 
0.000000 0.289270 0.000000 -0.140822 0.291381 0.000000 -0.284544 0.301292 0.000000 -0.436879 0.313920 0.000000 -0.596816 0.331754 0.000000 -0.771674 0.347639 0.000000 -0.955504 0.362256 0.000000 -1.154792 0.365293 0.000000 -1.356896 0.350688 0.000000 -1.558122 0.301647 0.000000 -1.731755 0.206922 0.000000 -1.855929 0.048285 0.000000 -1.864665 -0.185380 0.000000 -1.668455 -0.500870 0.000000 -1.231968 -0.869335 0.000000 -0.640923 -1.167295 0.000000 0.000000 -1.285664 0.000000 0.640923 -1.167295 0.000000 1.231968 -0.869335 0.000000 1.668455 -0.500870 0.000000 1.864665 -0.185380 0.000000 1.855929 0.048285 0.000000 1.731755 0.206922 0.000000 1.558122 0.301647 0.000000 1.356896 0.350688 0.000000 1.154792 0.365293 0.000000 0.955504 0.362256 0.000000 0.771674 0.347639 0.000000 0.596816 0.331754 0.000000 0.436879 0.313920 0.000000 0.284544 0.301292 0.000000 0.140822 0.291381 0.000000 
-0.000000 0.428285 0.000000 -0.132457 0.432291 0.000000 -0.268589 0.448452 0.000000 -0.415084 0.470849 0.000000 -0.571232 0.501517 0.000000 -0.747051 0.532823 0.000000 -0.935752 0.562708 0.000000 -1.152396 0.580720 0.000000 -1.382466 0.571934 0.000000 -1.637386 0.516030 0.000000 -1.880257 0.388271 0.000000 -2.079881 0.143716 0.000000 -2.124205 -0.293271 0.000000 -1.931974 -0.888114 0.000000 -1.407900 -1.442037 0.000000 -0.705877 -1.788315 0.000000 0.000000 -1.903431 0.000000 0.705877 -1.788315 0.000000 1.407900 -1.442037 0.000000 1.931974 -0.888114 0.000000 2.124205 -0.293271 0.000000 2.079881 0.143716 0.000000 1.880257 0.388271 0.000000 1.637386 0.516030 0.000000 1.382466 0.571934 0.000000 1.152396 0.580720 0.000000 0.935752 0.562708 0.000000 0.747051 0.532823 0.000000 0.571232 0.501517 0.000000 0.415084 0.470849 0.000000 0.268589 0.448452 0.000000 0.132457 0.432291 0.000000 
0.000000 0.554185 0.000000 -0.120458 0.559970 0.000000 -0.245688 0.583919 0.000000 -0.383206 0.616563 0.000000 -0.534360 0.663721 0.000000 -0.710672 0.712159 0.000000 -0.910784 0.767601 0.000000 -1.154021 0.812007 0.000000 -1.440082 0.835678 0.000000 -1.779305 0.799439 0.000000 -2.155747 0.649417 0.000000 -2.531854 0.292233 0.000000 -2.655451 -0.333287 0.000000 -2.216236 -1.217175 0.000000 -1.384885 -2.095431 0.000000 -0.649300 -2.575195 0.000000 0.000000 -2.697419 0.000000 0.649300 -2.575195 0.000000 1.384885 -2.095431 0.000000 2.216236 -1.217175 0.000000 2.655451 -0.333287 0.000000 2.531854 0.292233 0.000000 2.155747 0.649417 0.000000 1.779305 0.799439 0.000000 1.440082 0.835678 0.000000 1.154021 0.812007 0.000000 0.910784 0.767601 0.000000 0.710672 0.712159 0.000000 0.534360 0.663721 0.000000 0.383206 0.616563 0.000000 0.245688 0.583919 0.000000 0.120458 0.559970 0.000000 
-0.000000 0.669201 0.000000 -0.102302 0.677979 0.000000 -0.211346 0.711199 0.000000 -0.334371 0.759522 0.000000 -0.476075 0.828983 0.000000 -0.648661 0.909246 0.000000 -0.854923 1.006057 0.000000 -1.127327 1.110018 0.000000 -1.473867 1.197218 0.000000 -1.959556 1.231695 0.000000 -2.494076 1.140820 0.000000 -2.725810 0.643420 0.000000 -2.323695 -0.608890 0.000000 -1.473436 -2.158680 0.000000 -0.723231 -3.008973 0.000000 -0.369710 -3.173201 0.000000 -0.000000 -3.202032 0.000000 0.369710 -3.173201 0.000000 0.723231 -3.008973 0.000000 1.473436 -2.158680 0.000000 2.323695 -0.608890 0.000000 2.725810 0.643420 0.000000 2.494076 1.140820 0.000000 1.959556 1.231695 0.000000 1.473867 1.197218 0.000000 1.127327 1.110018 0.000000 0.854923 1.006057 0.000000 0.648661 0.909246 0.000000 0.476075 0.828983 0.000000 0.334371 0.759522 0.000000 0.211346 0.711199 0.000000 0.102302 0.677979 0.000000 
0.000000 0.758788 0.000000 -0.078132 0.771316 0.000000 -0.164111 0.815988 0.000000 -0.266263 0.881292 0.000000 -0.390678 0.978011 0.000000 -0.550794 1.091007 0.000000 -0.753523 1.246267 0.000000 -1.061596 1.430951 0.000000 -1.539016 1.667907 0.000000 -2.038412 1.819648 0.000000 -2.079317 1.415671 0.000000 -1.656139 0.121851 0.000000 -0.853828 -1.585661 0.000000 -0.148569 -2.817639 0.000000 0.036608 -3.199157 0.000000 -0.057392 -3.298426 0.000000 -0.000000 -3.436840 0.000000 0.057392 -3.298426 0.000000 -0.036608 -3.199157 0.000000 0.148569 -2.817639 0.000000 0.853828 -1.585661 0.000000 1.656139 0.121851 0.000000 2.079317 1.415671 0.000000 2.038412 1.819648 0.000000 1.539016 1.667907 0.000000 1.061596 1.430951 0.000000 0.753523 1.246267 0.000000 0.550794 1.091007 0.000000 0.390678 0.978011 0.000000 0.266263 0.881292 0.000000 0.164111 0.815988 0.000000 0.078132 0.771316 0.000000 
-0.000000 0.825465 0.000000 -0.044476 0.842091 0.000000 -0.100729 0.899331 0.000000 -0.172794 0.986088 0.000000 -0.278970 1.113513 0.000000 -0.434998 1.272091 0.000000 -0.684150 1.516860 0.000000 -1.101023 1.895511 0.000000 -1.488757 2.174033 0.000000 -1.383631 1.771997 0.000000 -0.922447 0.758548 0.000000 -0.809757 -0.582069 0.000000 -0.071282 -2.116460 0.000000 0.618923 -3.049117 0.000000 0.698145 -3.100149 0.000000 0.498641 -3.136592 0.000000 -0.000000 -3.316816 0.000000 -0.498641 -3.136592 0.000000 -0.698145 -3.100149 0.000000 -0.618923 -3.049117 0.000000 0.071282 -2.116460 0.000000 0.809757 -0.582069 0.000000 0.922447 0.758548 0.000000 1.383631 1.771997 0.000000 1.488757 2.174033 0.000000 1.101023 1.895511 0.000000 0.684150 1.516860 0.000000 0.434998 1.272091 0.000000 0.278970 1.113513 0.000000 0.172794 0.986088 0.000000 0.100729 0.899331 0.000000 0.044476 0.842091 0.000000 
0.000000 0.847740 0.000000 -0.003770 0.872045 0.000000 -0.021720 0.944305 0.000000 -0.062194 1.059532 0.000000 -0.148687 1.240216 0.000000 -0.296766 1.496188 0.000000 -0.561840 1.912291 0.000000 -0.867721 2.235558 0.000000 -0.695346 1.950515 0.000000 -0.137587 1.253337 0.000000 -0.437981 0.841797 0.000000 -0.500633 -0.729313 0.000000 0.821765 -3.014340 0.000000 1.610214 -3.587066 0.000000 1.509657 -3.078876 0.000000 1.004849 -2.600281 0.000000 0.000000 -2.439558 0.000000 -1.004849 -2.600281 0.000000 -1.509657 -3.078876 0.000000 -1.610214 -3.587066 0.000000 -0.821765 -3.014340 0.000000 0.500633 -0.729313 0.000000 0.437981 0.841797 0.000000 0.137587 1.253337 0.000000 0.695346 1.950515 0.000000 0.867721 2.235558 0.000000 0.561840 1.912291 0.000000 0.296766 1.496188 0.000000 0.148687 1.240216 0.000000 0.062194 1.059532 0.000000 0.021720 0.944305 0.000000 0.003770 0.872045 0.000000 
-0.000000 0.833006 0.000000 0.051262 0.863811 0.000000 0.079667 0.957754 0.000000 0.086189 1.113055 0.000000 0.009836 1.348086 0.000000 -0.131981 1.685245 0.000000 -0.352546 2.087815 0.000000 -0.332011 2.029016 0.000000 0.153248 1.443899 0.000000 0.120049 1.514631 0.000000 -0.463945 1.121594 0.000000 0.836972 -1.841814 0.000000 2.003273 -4.227307 0.000000 1.992716 -3.737009 0.000000 1.578296 -2.494784 0.000000 0.842280 -1.626935 0.000000 0.000000 -1.307119 0.000000 -0.842280 -1.626935 0.000000 -1.578296 -2.494784 0.000000 -1.992716 -3.737009 0.000000 -2.003273 -4.227307 0.000000 -0.836972 -1.841814 0.000000 0.463945 1.121594 0.000000 -0.120049 1.514631 0.000000 -0.153248 1.443899 0.000000 0.332011 2.029016 0.000000 0.352546 2.087815 0.000000 0.131981 1.685245 0.000000 -0.009836 1.348086 0.000000 -0.086189 1.113055 0.000000 -0.079667 0.957754 0.000000 -0.051262 0.863811 0.000000 
-0.000000 0.745217 0.000000 0.118450 0.792378 0.000000 0.211928 0.909378 0.000000 0.254870 1.129363 0.000000 0.213165 1.458386 0.000000 0.144674 1.858569 0.000000 0.151197 2.112322 0.000000 0.332983 1.729765 0.000000 0.359707 1.498455 0.000000 -0.095647 1.870530 0.000000 0.768638 0.124874 0.000000 1.976959 -3.196532 0.000000 1.527140 -4.170084 0.000000 0.619476 -3.162089 0.000000 0.222930 -1.928439 0.000000 0.045429 -1.021985 0.000000 -0.000000 -0.754998 0.000000 -0.045429 -1.021985 0.000000 -0.222930 -1.928439 0.000000 -0.619476 -3.162089 0.000000 -1.527140 -4.170084 0.000000 -1.976959 -3.196532 0.000000 -0.768638 0.124874 0.000000 0.095647 1.870530 0.000000 -0.359707 1.498455 0.000000 -0.332983 1.729765 0.000000 -0.151197 2.112322 0.000000 -0.144674 1.858569 0.000000 -0.213165 1.458386 0.000000 -0.254870 1.129363 0.000000 -0.211928 0.909378 0.000000 -0.118450 0.792378 0.000000 
-0.000000 0.596106 0.000000 0.206353 0.651883 0.000000 0.385529 0.821333 0.000000 0.510762 1.111819 0.000000 0.451315 1.458283 0.000000 0.591370 1.747212 0.000000 0.593719 1.899506 0.000000 0.597849 1.820506 0.000000 0.386853 1.872529 0.000000 0.804374 1.105701 0.000000 1.937657 -0.951012 0.000000 1.454195 -2.600317 0.000000 0.326024 -2.869824 0.000000 -0.263703 -2.432799 0.000000 -0.453253 -1.920737 0.000000 -0.282820 -1.404005 0.000000 0.000000 -1.216261 0.000000 0.282820 -1.404005 0.000000 0.453253 -1.920737 0.000000 0.263703 -2.432799 0.000000 -0.326024 -2.869824 0.000000 -1.454195 -2.600317 0.000000 -1.937657 -0.951012 0.000000 -0.804374 1.105701 0.000000 -0.386853 1.872529 0.000000 -0.597849 1.820506 0.000000 -0.593719 1.899506 0.000000 -0.591370 1.747212 0.000000 -0.451315 1.458283 0.000000 -0.510762 1.111819 0.000000 -0.385529 0.821333 0.000000 -0.206353 0.651883 0.000000 
-0.000000 0.332510 0.000000 0.305704 0.406849 0.000000 0.618962 0.604970 0.000000 0.741363 1.063577 0.000000 0.899914 1.377778 0.000000 1.129713 1.716165 0.000000 0.770285 2.105842 0.000000 0.795945 1.936631 0.000000 1.184789 1.291929 0.000000 1.855798 0.319726 0.000000 1.803923 -0.524946 0.000000 1.330265 -1.584898 0.000000 0.666011 -2.452187 0.000000 0.335256 -2.382812 0.000000 0.080534 -1.909322 0.000000 -0.004897 -1.475238 0.000000 0.000000 -1.320638 0.000000 0.004897 -1.475238 0.000000 -0.080534 -1.909322 0.000000 -0.335256 -2.382812 0.000000 -0.666011 -2.452187 0.000000 -1.330265 -1.584898 0.000000 -1.803923 -0.524946 0.000000 -1.855798 0.319726 0.000000 -1.184789 1.291929 0.000000 -0.795945 1.936631 0.000000 -0.770285 2.105842 0.000000 -1.129713 1.716165 0.000000 -0.899914 1.377778 0.000000 -0.741363 1.063577 0.000000 -0.618962 0.604970 0.000000 -0.305704 0.406849 0.000000 
-0.000000 -0.015301 0.000000 0.340388 0.032920 0.000000 0.761275 0.385674 0.000000 0.995140 0.830867 0.000000 1.461188 1.069933 0.000000 1.295977 1.876841 0.000000 1.157821 2.233273 0.000000 1.814848 1.406002 0.000000 2.358589 0.812675 0.000000 2.158026 0.486567 0.000000 1.943018 -0.425479 0.000000 2.067152 -1.462404 0.000000 1.437894 -1.874815 0.000000 0.860754 -1.847323 0.000000 0.419638 -1.580584 0.000000 0.171680 -1.323471 0.000000 -0.000000 -1.226054 0.000000 -0.171680 -1.323471 0.000000 -0.419638 -1.580584 0.000000 -0.860754 -1.847323 0.000000 -1.437894 -1.874815 0.000000 -2.067152 -1.462404 0.000000 -1.943018 -0.425479 0.000000 -2.158026 0.486567 0.000000 -2.358589 0.812675 0.000000 -1.814848 1.406002 0.000000 -1.157821 2.233273 0.000000 -1.295977 1.876841 0.000000 -1.461188 1.069933 0.000000 -0.995140 0.830867 0.000000 -0.761275 0.385674 0.000000 -0.340388 0.032920 0.000000 
-0.000000 -0.348265 0.000000 0.271270 -0.354425 0.000000 0.570824 -0.049783 0.000000 0.842857 0.363663 0.000000 0.988058 1.076942 0.000000 0.871426 2.019532 0.000000 1.558227 1.586971 0.000000 2.440000 0.735863 0.000000 2.752711 0.948751 0.000000 2.633487 0.735298 0.000000 2.707320 -0.434072 0.000000 2.489138 -1.079775 0.000000 1.867389 -1.245789 0.000000 1.262306 -1.364556 0.000000 0.740739 -1.220248 0.000000 0.342713 -1.055600 0.000000 0.000000 -0.977279 0.000000 -0.342713 -1.055600 0.000000 -0.740739 -1.220248 0.000000 -1.262306 -1.364556 0.000000 -1.867389 -1.245789 0.000000 -2.489138 -1.079775 0.000000 -2.707320 -0.434072 0.000000 -2.633487 0.735298 0.000000 -2.752711 0.948751 0.000000 -2.440000 0.735863 0.000000 -1.558227 1.586971 0.000000 -0.871426 2.019532 0.000000 -0.988058 1.076942 0.000000 -0.842857 0.363663 0.000000 -0.570824 -0.049783 0.000000 -0.271270 -0.354425 0.000000 
0.000000 -0.557842 0.000000 -0.174132 -0.537904 0.000000 -0.354425 -0.185913 0.000000 -0.223916 0.413634 0.000000 0.009238 1.041364 0.000000 0.853026 1.306672 0.000000 2.028770 0.664699 0.000000 2.439997 0.211518 0.000000 2.764633 0.619188 0.000000 3.388748 0.531957 0.000000 3.499931 -0.281130 0.000000 2.954676 -0.622473 0.000000 2.420156 -0.647983 0.000000 1.708887 -0.720673 0.000000 1.055600 -0.660991 0.000000 0.488639 -0.582731 0.000000 -0.000000 -0.540627 0.000000 -0.488639 -0.582731 0.000000 -1.055600 -0.660991 0.000000 -1.708887 -0.720673 0.000000 -2.420156 -0.647983 0.000000 -2.954676 -0.622473 0.000000 -3.499931 -0.281130 0.000000 -3.388748 0.531957 0.000000 -2.764633 0.619188 0.000000 -2.439997 0.211518 0.000000 -2.028770 0.664699 0.000000 -0.853026 1.306672 0.000000 -0.009238 1.041364 0.000000 0.223916 0.413634 0.000000 0.354425 -0.185913 0.000000 0.174132 -0.537904 0.000000 
0.000000 -0.000000 0.000000 -0.557842 -0.000000 0.000000 -1.075808 -0.000000 0.000000 -0.929667 -0.000000 0.000000 -0.248541 -0.000000 0.000000 1.153061 -0.000000 0.000000 2.364803 -0.000000 0.000000 2.482459 0.000000 0.000000 2.787840 0.000000 0.000000 3.720835 0.000000 0.000000 3.851754 -0.000000 0.000000 3.158576 -0.000000 0.000000 2.606808 -0.000000 0.000000 1.862610 -0.000000 0.000000 1.165463 -0.000000 0.000000 0.540627 -0.000000 0.000000 -0.000000 -0.000000 0.000000 -0.540627 -0.000000 0.000000 -1.165463 0.000000 0.000000 -1.862610 0.000000 0.000000 -2.606808 0.000000 0.000000 -3.158576 0.000000 0.000000 -3.851754 0.000000 0.000000 -3.720835 -0.000000 0.000000 -2.787840 -0.000000 0.000000 -2.482459 -0.000000 0.000000 -2.364803 0.000000 0.000000 -1.153061 0.000000 0.000000 0.248541 -0.000000 0.000000 0.929667 0.000000 0.000000 1.075808 0.000000 0.000000 0.557842 -0.000000 0.000000 
-0.000000 0.557842 0.000000 -0.174132 0.537904 0.000000 -0.354425 0.185913 0.000000 -0.223916 -0.413634 0.000000 0.009238 -1.041364 0.000000 0.853026 -1.306672 0.000000 2.028770 -0.664699 0.000000 2.439997 -0.211518 0.000000 2.764633 -0.619188 0.000000 3.388748 -0.531957 0.000000 3.499931 0.281130 0.000000 2.954676 0.622473 0.000000 2.420156 0.647983 0.000000 1.708887 0.720673 0.000000 1.055600 0.660991 0.000000 0.488639 0.582731 0.000000 0.000000 0.540627 0.000000 -0.488639 0.582731 0.000000 -1.055600 0.660991 0.000000 -1.708887 0.720673 0.000000 -2.420156 0.647983 0.000000 -2.954676 0.622473 0.000000 -3.499931 0.281130 0.000000 -3.388748 -0.531957 0.000000 -2.764633 -0.619188 0.000000 -2.439997 -0.211518 0.000000 -2.028770 -0.664699 0.000000 -0.853026 -1.306672 0.000000 -0.009238 -1.041364 0.000000 0.223916 -0.413634 0.000000 0.354425 0.185913 0.000000 0.174132 0.537904 0.000000 
0.000000 0.348265 0.000000 0.271270 0.354425 0.000000 0.570824 0.049783 0.000000 0.842857 -0.363663 0.000000 0.988058 -1.076942 0.000000 0.871426 -2.019532 0.000000 1.558227 -1.586971 0.000000 2.440000 -0.735863 0.000000 2.752711 -0.948751 0.000000 2.633487 -0.735298 0.000000 2.707320 0.434072 0.000000 2.489138 1.079775 0.000000 1.867389 1.245789 0.000000 1.262306 1.364556 0.000000 0.740739 1.220248 0.000000 0.342713 1.055600 0.000000 -0.000000 0.977279 0.000000 -0.342713 1.055600 0.000000 -0.740739 1.220248 0.000000 -1.262306 1.364556 0.000000 -1.867389 1.245789 0.000000 -2.489138 1.079775 0.000000 -2.707320 0.434072 0.000000 -2.633487 -0.735298 0.000000 -2.752711 -0.948751 0.000000 -2.440000 -0.735863 0.000000 -1.558227 -1.586971 0.000000 -0.871426 -2.019532 0.000000 -0.988058 -1.076942 0.000000 -0.842857 -0.363663 0.000000 -0.570824 0.049783 0.000000 -0.271270 0.354425 0.000000 
0.000000 0.015301 0.000000 0.340388 -0.032920 0.000000 0.761275 -0.385674 0.000000 0.995140 -0.830867 0.000000 1.461188 -1.069933 0.000000 1.295977 -1.876841 0.000000 1.157821 -2.233273 0.000000 1.814848 -1.406002 0.000000 2.358589 -0.812675 0.000000 2.158026 -0.486567 0.000000 1.943018 0.425479 0.000000 2.067152 1.462404 0.000000 1.437894 1.874815 0.000000 0.860754 1.847323 0.000000 0.419638 1.580584 0.000000 0.171680 1.323471 0.000000 0.000000 1.226054 0.000000 -0.171680 1.323471 0.000000 -0.419638 1.580584 0.000000 -0.860754 1.847323 0.000000 -1.437894 1.874815 0.000000 -2.067152 1.462404 0.000000 -1.943018 0.425479 0.000000 -2.158026 -0.486567 0.000000 -2.358589 -0.812675 0.000000 -1.814848 -1.406002 0.000000 -1.157821 -2.233273 0.000000 -1.295977 -1.876841 0.000000 -1.461188 -1.069933 0.000000 -0.995140 -0.830867 0.000000 -0.761275 -0.385674 0.000000 -0.340388 -0.032920 0.000000 
0.000000 -0.332510 0.000000 0.305704 -0.406849 0.000000 0.618962 -0.604970 0.000000 0.741363 -1.063577 0.000000 0.899914 -1.377778 0.000000 1.129713 -1.716165 0.000000 0.770285 -2.105842 0.000000 0.795945 -1.936631 0.000000 1.184789 -1.291929 0.000000 1.855798 -0.319726 0.000000 1.803923 0.524946 0.000000 1.330265 1.584898 0.000000 0.666011 2.452187 0.000000 0.335256 2.382812 0.000000 0.080534 1.909322 0.000000 -0.004897 1.475238 0.000000 -0.000000 1.320638 0.000000 0.004897 1.475238 0.000000 -0.080534 1.909322 0.000000 -0.335256 2.382812 0.000000 -0.666011 2.452187 0.000000 -1.330265 1.584898 0.000000 -1.803923 0.524946 0.000000 -1.855798 -0.319726 0.000000 -1.184789 -1.291929 0.000000 -0.795945 -1.936631 0.000000 -0.770285 -2.105842 0.000000 -1.129713 -1.716165 0.000000 -0.899914 -1.377778 0.000000 -0.741363 -1.063577 0.000000 -0.618962 -0.604970 0.000000 -0.305704 -0.406849 0.000000 
0.000000 -0.596106 0.000000 0.206353 -0.651883 0.000000 0.385529 -0.821333 0.000000 0.510762 -1.111819 0.000000 0.451315 -1.458283 0.000000 0.591370 -1.747212 0.000000 0.593719 -1.899506 0.000000 0.597849 -1.820506 0.000000 0.386853 -1.872529 0.000000 0.804374 -1.105701 0.000000 1.937657 0.951012 0.000000 1.454195 2.600317 0.000000 0.326024 2.869824 0.000000 -0.263703 2.432799 0.000000 -0.453253 1.920737 0.000000 -0.282820 1.404005 0.000000 0.000000 1.216261 0.000000 0.282820 1.404005 0.000000 0.453253 1.920737 0.000000 0.263703 2.432799 0.000000 -0.326024 2.869824 0.000000 -1.454195 2.600317 0.000000 -1.937657 0.951012 0.000000 -0.804374 -1.105701 0.000000 -0.386853 -1.872529 0.000000 -0.597849 -1.820506 0.000000 -0.593719 -1.899506 0.000000 -0.591370 -1.747212 0.000000 -0.451315 -1.458283 0.000000 -0.510762 -1.111819 0.000000 -0.385529 -0.821333 0.000000 -0.206353 -0.651883 0.000000 
0.000000 -0.745217 0.000000 0.118450 -0.792378 0.000000 0.211928 -0.909378 0.000000 0.254870 -1.129363 0.000000 0.213165 -1.458386 0.000000 0.144674 -1.858569 0.000000 0.151197 -2.112322 0.000000 0.332983 -1.729765 0.000000 0.359707 -1.498455 0.000000 -0.095647 -1.870530 0.000000 0.768638 -0.124874 0.000000 1.976959 3.196532 0.000000 1.527140 4.170084 0.000000 0.619476 3.162089 0.000000 0.222930 1.928439 0.000000 0.045429 1.021985 0.000000 -0.000000 0.754998 0.000000 -0.045429 1.021985 0.000000 -0.222930 1.928439 0.000000 -0.619476 3.162089 0.000000 -1.527140 4.170084 0.000000 -1.976959 3.196532 0.000000 -0.768638 -0.124874 0.000000 0.095647 -1.870530 0.000000 -0.359707 -1.498455 0.000000 -0.332983 -1.729765 0.000000 -0.151197 -2.112322 0.000000 -0.144674 -1.858569 0.000000 -0.213165 -1.458386 0.000000 -0.254870 -1.129363 0.000000 -0.211928 -0.909378 0.000000 -0.118450 -0.792378 0.000000 
0.000000 -0.833006 0.000000 0.051262 -0.863811 0.000000 0.079667 -0.957754 0.000000 0.086189 -1.113055 0.000000 0.009836 -1.348086 0.000000 -0.131981 -1.685245 0.000000 -0.352546 -2.087815 0.000000 -0.332011 -2.029016 0.000000 0.153248 -1.443899 0.000000 0.120049 -1.514631 0.000000 -0.463945 -1.121594 0.000000 0.836972 1.841814 0.000000 2.003273 4.227307 0.000000 1.992716 3.737009 0.000000 1.578296 2.494784 0.000000 0.842280 1.626935 0.000000 0.000000 1.307119 0.000000 -0.842280 1.626935 0.000000 -1.578296 2.494784 0.000000 -1.992716 3.737009 0.000000 -2.003273 4.227307 0.000000 -0.836972 1.841814 0.000000 0.463945 -1.121594 0.000000 -0.120049 -1.514631 0.000000 -0.153248 -1.443899 0.000000 0.332011 -2.029016 0.000000 0.352546 -2.087815 0.000000 0.131981 -1.685245 0.000000 -0.009836 -1.348086 0.000000 -0.086189 -1.113055 0.000000 -0.079667 -0.957754 0.000000 -0.051262 -0.863811 0.000000 
-0.000000 -0.847740 0.000000 -0.003770 -0.872045 0.000000 -0.021720 -0.944305 0.000000 -0.062194 -1.059532 0.000000 -0.148687 -1.240216 0.000000 -0.296766 -1.496188 0.000000 -0.561840 -1.912291 0.000000 -0.867721 -2.235558 0.000000 -0.695346 -1.950515 0.000000 -0.137587 -1.253337 0.000000 -0.437981 -0.841797 0.000000 -0.500633 0.729313 0.000000 0.821765 3.014340 0.000000 1.610214 3.587066 0.000000 1.509657 3.078876 0.000000 1.004849 2.600281 0.000000 0.000000 2.439558 0.000000 -1.004849 2.600281 0.000000 -1.509657 3.078876 0.000000 -1.610214 3.587066 0.000000 -0.821765 3.014340 0.000000 0.500633 0.729313 0.000000 0.437981 -0.841797 0.000000 0.137587 -1.253337 0.000000 0.695346 -1.950515 0.000000 0.867721 -2.235558 0.000000 0.561840 -1.912291 0.000000 0.296766 -1.496188 0.000000 0.148687 -1.240216 0.000000 0.062194 -1.059532 0.000000 0.021720 -0.944305 0.000000 0.003770 -0.872045 0.000000 
0.000000 -0.825465 0.000000 -0.044476 -0.842091 0.000000 -0.100729 -0.899331 0.000000 -0.172794 -0.986088 0.000000 -0.278970 -1.113513 0.000000 -0.434998 -1.272091 0.000000 -0.684150 -1.516860 0.000000 -1.101023 -1.895511 0.000000 -1.488757 -2.174033 0.000000 -1.383631 -1.771997 0.000000 -0.922447 -0.758548 0.000000 -0.809757 0.582069 0.000000 -0.071282 2.116460 0.000000 0.618923 3.049117 0.000000 0.698145 3.100149 0.000000 0.498641 3.136592 0.000000 -0.000000 3.316816 0.000000 -0.498641 3.136592 0.000000 -0.698145 3.100149 0.000000 -0.618923 3.049117 0.000000 0.071282 2.116460 0.000000 0.809757 0.582069 0.000000 0.922447 -0.758548 0.000000 1.383631 -1.771997 0.000000 1.488757 -2.174033 0.000000 1.101023 -1.895511 0.000000 0.684150 -1.516860 0.000000 0.434998 -1.272091 0.000000 0.278970 -1.113513 0.000000 0.172794 -0.986088 0.000000 0.100729 -0.899331 0.000000 0.044476 -0.842091 0.000000 
-0.000000 -0.758788 0.000000 -0.078132 -0.771316 0.000000 -0.164111 -0.815988 0.000000 -0.266263 -0.881292 0.000000 -0.390678 -0.978011 0.000000 -0.550794 -1.091007 0.000000 -0.753523 -1.246267 0.000000 -1.061596 -1.430951 0.000000 -1.539016 -1.667907 0.000000 -2.038412 -1.819648 0.000000 -2.079317 -1.415671 0.000000 -1.656139 -0.121851 0.000000 -0.853828 1.585661 0.000000 -0.148569 2.817639 0.000000 0.036608 3.199157 0.000000 -0.057392 3.298426 0.000000 -0.000000 3.436840 0.000000 0.057392 3.298426 0.000000 -0.036608 3.199157 0.000000 0.148569 2.817639 0.000000 0.853828 1.585661 0.000000 1.656139 -0.121851 0.000000 2.079317 -1.415671 0.000000 2.038412 -1.819648 0.000000 1.539016 -1.667907 0.000000 1.061596 -1.430951 0.000000 0.753523 -1.246267 0.000000 0.550794 -1.091007 0.000000 0.390678 -0.978011 0.000000 0.266263 -0.881292 0.000000 0.164111 -0.815988 0.000000 0.078132 -0.771316 0.000000 
-0.000000 -0.669201 0.000000 -0.102302 -0.677979 0.000000 -0.211346 -0.711199 0.000000 -0.334371 -0.759522 0.000000 -0.476075 -0.828983 0.000000 -0.648661 -0.909246 0.000000 -0.854923 -1.006057 0.000000 -1.127327 -1.110018 0.000000 -1.473867 -1.197218 0.000000 -1.959556 -1.231695 0.000000 -2.494076 -1.140820 0.000000 -2.725810 -0.643420 0.000000 -2.323695 0.608890 0.000000 -1.473436 2.158680 0.000000 -0.723231 3.008973 0.000000 -0.369710 3.173201 0.000000 0.000000 3.202032 0.000000 0.369710 3.173201 0.000000 0.723231 3.008973 0.000000 1.473436 2.158680 0.000000 2.323695 0.608890 0.000000 2.725810 -0.643420 0.000000 2.494076 -1.140820 0.000000 1.959556 -1.231695 0.000000 1.473867 -1.197218 0.000000 1.127327 -1.110018 0.000000 0.854923 -1.006057 0.000000 0.648661 -0.909246 0.000000 0.476075 -0.828983 0.000000 0.334371 -0.759522 0.000000 0.211346 -0.711199 0.000000 0.102302 -0.677979 0.000000 
-0.000000 -0.554185 0.000000 -0.120458 -0.559970 0.000000 -0.245688 -0.583919 0.000000 -0.383206 -0.616563 0.000000 -0.534360 -0.663721 0.000000 -0.710672 -0.712159 0.000000 -0.910784 -0.767601 0.000000 -1.154021 -0.812007 0.000000 -1.440082 -0.835678 0.000000 -1.779305 -0.799439 0.000000 -2.155747 -0.649417 0.000000 -2.531854 -0.292233 0.000000 -2.655451 0.333287 0.000000 -2.216236 1.217175 0.000000 -1.384885 2.095431 0.000000 -0.649300 2.575195 0.000000 0.000000 2.697419 0.000000 0.649300 2.575195 0.000000 1.384885 2.095431 0.000000 2.216236 1.217175 0.000000 2.655451 0.333287 0.000000 2.531854 -0.292233 0.000000 2.155747 -0.649417 0.000000 1.779305 -0.799439 0.000000 1.440082 -0.835678 0.000000 1.154021 -0.812007 0.000000 0.910784 -0.767601 0.000000 0.710672 -0.712159 0.000000 0.534360 -0.663721 0.000000 0.383206 -0.616563 0.000000 0.245688 -0.583919 0.000000 0.120458 -0.559970 0.000000 
-0.000000 -0.428285 0.000000 -0.132457 -0.432291 0.000000 -0.268589 -0.448452 0.000000 -0.415084 -0.470849 0.000000 -0.571232 -0.501517 0.000000 -0.747051 -0.532823 0.000000 -0.935752 -0.562708 0.000000 -1.152396 -0.580720 0.000000 -1.382466 -0.571934 0.000000 -1.637386 -0.516030 0.000000 -1.880257 -0.388271 0.000000 -2.079881 -0.143716 0.000000 -2.124205 0.293271 0.000000 -1.931974 0.888114 0.000000 -1.407900 1.442037 0.000000 -0.705877 1.788315 0.000000 0.000000 1.903431 0.000000 0.705877 1.788315 0.000000 1.407900 1.442037 0.000000 1.931974 0.888114 0.000000 2.124205 0.293271 0.000000 2.079881 -0.143716 0.000000 1.880257 -0.388271 0.000000 1.637386 -0.516030 0.000000 1.382466 -0.571934 0.000000 1.152396 -0.580720 0.000000 0.935752 -0.562708 0.000000 0.747051 -0.532823 0.000000 0.571232 -0.501517 0.000000 0.415084 -0.470849 0.000000 0.268589 -0.448452 0.000000 0.132457 -0.432291 0.000000 
-0.000000 -0.289270 0.000000 -0.140822 -0.291381 0.000000 -0.284544 -0.301292 0.000000 -0.436879 -0.313920 0.000000 -0.596816 -0.331754 0.000000 -0.771674 -0.347639 0.000000 -0.955504 -0.362256 0.000000 -1.154792 -0.365293 0.000000 -1.356896 -0.350688 0.000000 -1.558122 -0.301647 0.000000 -1.731755 -0.206922 0.000000 -1.855929 -0.048285 0.000000 -1.864665 0.185380 0.000000 -1.668455 0.500870 0.000000 -1.231968 0.869335 0.000000 -0.640923 1.167295 0.000000 0.000000 1.285664 0.000000 0.640923 1.167295 0.000000 1.231968 0.869335 0.000000 1.668455 0.500870 0.000000 1.864665 0.185380 0.000000 1.855929 -0.048285 0.000000 1.731755 -0.206922 0.000000 1.558122 -0.301647 0.000000 1.356896 -0.350688 0.000000 1.154792 -0.365293 0.000000 0.955504 -0.362256 0.000000 0.771674 -0.347639 0.000000 0.596816 -0.331754 0.000000 0.436879 -0.313920 0.000000 0.284544 -0.301292 0.000000 0.140822 -0.291381 0.000000 
-0.000000 -0.146641 0.000000 -0.144635 -0.147747 0.000000 -0.291381 -0.152394 0.000000 -0.445927 -0.158578 0.000000 -0.605301 -0.166722 0.000000 -0.777680 -0.174134 0.000000 -0.952940 -0.179590 0.000000 -1.139937 -0.179329 0.000000 -1.318233 -0.168605 0.000000 -1.490625 -0.141171 0.000000 -1.619880 -0.090463 0.000000 -1.697547 -0.010806 0.000000 -1.668165 0.105796 0.000000 -1.512167 0.255417 0.000000 -1.167295 0.414505 0.000000 -0.642832 0.556348 0.000000 0.000000 0.621586 0.000000 0.642832 0.556348 0.000000 1.167295 0.414505 0.000000 1.512167 0.255417 0.000000 1.668165 0.105796 0.000000 1.697547 -0.010806 0.000000 1.619880 -0.090463 0.000000 1.490625 -0.141171 0.000000 1.318233 -0.168605 0.000000 1.139937 -0.179329 0.000000 0.952940 -0.179590 0.000000 0.777680 -0.174134 0.000000 0.605301 -0.166722 0.000000 0.445927 -0.158578 0.000000 0.291381 -0.152394 0.000000 0.144635 -0.147747 0.000000 
