# vtk DataFile Version 2.0
Comment goes here
ASCII

DATASET STRUCTURED_POINTS
FIELD FieldData 1
TIME 1 1 double
0.06000000
DIMENSIONS    32   32   1

ORIGIN    0.000   0.000   0.000
SPACING   0.03125 0.03125   1.000

POINT_DATA   1024
VECTORS u double

0.000000 -0.000000 0.000000 0.193913 -0.000000 0.000000 0.384941 -0.000000 0.000000 0.564735 -0.000000 0.000000 0.733859 -0.000000 0.000000 0.878280 -0.000000 0.000000 0.999171 -0.000000 0.000000 1.081131 -0.000000 0.000000 1.124420 -0.000000 0.000000 1.115134 -0.000000 0.000000 1.060664 -0.000000 0.000000 0.950044 -0.000000 0.000000 0.801720 -0.000000 0.000000 0.604754 -0.000000 0.000000 0.414586 -0.000000 0.000000 0.142330 -0.000000 0.000000 -0.000000 0.000000 0.000000 -0.142330 -0.000000 0.000000 -0.414586 0.000000 0.000000 -0.604754 0.000000 0.000000 -0.801720 0.000000 0.000000 -0.950044 0.000000 0.000000 -1.060664 0.000000 0.000000 -1.115134 0.000000 0.000000 -1.124420 0.000000 0.000000 -1.081131 0.000000 0.000000 -0.999171 0.000000 0.000000 -0.878280 0.000000 0.000000 -0.733859 0.000000 0.000000 -0.564735 0.000000 0.000000 -0.384941 -0.000000 0.000000 -0.193913 0.000000 0.000000 
0.000000 -0.193913 0.000000 0.195976 -0.192471 0.000000 0.389110 -0.185411 0.000000 0.571361 -0.174459 0.000000 0.742988 -0.156773 0.000000 0.890132 -0.132656 0.000000 1.013703 -0.101426 0.000000 1.098257 -0.062624 0.000000 1.144578 -0.017002 0.000000 1.137816 0.031878 0.000000 1.087146 0.082545 0.000000 0.983681 0.129472 0.000000 0.819480 0.172645 0.000000 0.635044 0.193567 0.000000 0.371631 0.231212 0.000000 0.005670 0.207293 0.000000 -0.000000 0.142330 0.000000 -0.005670 0.207293 0.000000 -0.371631 0.231212 0.000000 -0.635044 0.193567 0.000000 -0.819480 0.172645 0.000000 -0.983681 0.129472 0.000000 -1.087146 0.082545 0.000000 -1.137816 0.031878 0.000000 -1.144578 -0.017002 0.000000 -1.098257 -0.062624 0.000000 -1.013703 -0.101426 0.000000 -0.890132 -0.132656 0.000000 -0.742988 -0.156773 0.000000 -0.571361 -0.174459 0.000000 -0.389110 -0.185411 0.000000 -0.195976 -0.192471 0.000000 
0.000000 -0.391953 0.000000 0.202528 -0.389110 0.000000 0.403063 -0.375385 0.000000 0.593741 -0.353878 0.000000 0.775879 -0.318771 0.000000 0.934093 -0.270716 0.000000 1.069904 -0.208125 0.000000 1.166066 -0.130874 0.000000 1.220015 -0.039559 0.000000 1.214275 0.057431 0.000000 1.162995 0.154136 0.000000 1.041512 0.267666 0.000000 0.884088 0.348636 0.000000 0.665170 0.447849 0.000000 0.173284 0.629374 0.000000 -0.140516 0.371631 0.000000 -0.000000 0.011340 0.000000 0.140516 0.371631 0.000000 -0.173284 0.629374 0.000000 -0.665170 0.447849 0.000000 -0.884088 0.348636 0.000000 -1.041512 0.267666 0.000000 -1.162995 0.154136 0.000000 -1.214275 0.057431 0.000000 -1.220015 -0.039559 0.000000 -1.166066 -0.130874 0.000000 -1.069904 -0.208125 0.000000 -0.934093 -0.270716 0.000000 -0.775879 -0.318771 0.000000 -0.593741 -0.353878 0.000000 -0.403063 -0.375385 0.000000 -0.202528 -0.389110 0.000000 
0.000000 -0.598970 0.000000 0.212766 -0.595534 0.000000 0.424608 -0.576623 0.000000 0.628805 -0.547274 0.000000 0.826582 -0.497124 0.000000 1.002126 -0.426681 0.000000 1.155455 -0.333399 0.000000 1.268236 -0.212736 0.000000 1.333119 -0.065210 0.000000 1.333602 0.088898 0.000000 1.300366 0.255308 0.000000 1.204348 0.408379 0.000000 1.042492 0.548987 0.000000 0.735472 0.904371 0.000000 0.312558 1.036898 0.000000 0.259065 0.380577 0.000000 -0.000000 -0.138701 0.000000 -0.259065 0.380577 0.000000 -0.312558 1.036898 0.000000 -0.735472 0.904371 0.000000 -1.042492 0.548987 0.000000 -1.204348 0.408379 0.000000 -1.300366 0.255308 0.000000 -1.333602 0.088898 0.000000 -1.333119 -0.065210 0.000000 -1.268236 -0.212736 0.000000 -1.155455 -0.333399 0.000000 -1.002126 -0.426681 0.000000 -0.826582 -0.497124 0.000000 -0.628805 -0.547274 0.000000 -0.424608 -0.576623 0.000000 -0.212766 -0.595534 0.000000 
0.000000 -0.817485 0.000000 0.225174 -0.813718 0.000000 0.451721 -0.791424 0.000000 0.674520 -0.755851 0.000000 0.896660 -0.692092 0.000000 1.100283 -0.599589 0.000000 1.288150 -0.474234 0.000000 1.431203 -0.308539 0.000000 1.518169 -0.104926 0.000000 1.542144 0.090185 0.000000 1.507184 0.283390 0.000000 1.423150 0.525541 0.000000 1.214387 0.817512 0.000000 0.855107 1.177783 0.000000 0.774064 1.105782 0.000000 0.712959 0.684189 0.000000 -0.000000 0.529469 0.000000 -0.712959 0.684189 0.000000 -0.774064 1.105782 0.000000 -0.855107 1.177783 0.000000 -1.214387 0.817512 0.000000 -1.423150 0.525541 0.000000 -1.507184 0.283390 0.000000 -1.542144 0.090185 0.000000 -1.518169 -0.104926 0.000000 -1.431203 -0.308539 0.000000 -1.288150 -0.474234 0.000000 -1.100283 -0.599589 0.000000 -0.896660 -0.692092 0.000000 -0.674520 -0.755851 0.000000 -0.451721 -0.791424 0.000000 -0.225174 -0.813718 0.000000 
0.000000 -1.049318 0.000000 0.239157 -1.047255 0.000000 0.483170 -1.025969 0.000000 0.729861 -0.992213 0.000000 0.982856 -0.922887 0.000000 1.224901 -0.818171 0.000000 1.457771 -0.664319 0.000000 1.613035 -0.442754 0.000000 1.729806 -0.176151 0.000000 1.763445 0.099883 0.000000 1.783693 0.374302 0.000000 1.628298 0.701177 0.000000 1.217450 1.117030 0.000000 0.909983 1.344694 0.000000 0.927434 1.179046 0.000000 0.647319 1.154640 0.000000 -0.000000 1.287216 0.000000 -0.647319 1.154640 0.000000 -0.927434 1.179046 0.000000 -0.909983 1.344694 0.000000 -1.217450 1.117030 0.000000 -1.628298 0.701177 0.000000 -1.783693 0.374302 0.000000 -1.763445 0.099883 0.000000 -1.729806 -0.176151 0.000000 -1.613035 -0.442754 0.000000 -1.457771 -0.664319 0.000000 -1.224901 -0.818171 0.000000 -0.982856 -0.922887 0.000000 -0.729861 -0.992213 0.000000 -0.483170 -1.025969 0.000000 -0.239157 -1.047255 0.000000 
0.000000 -1.295800 0.000000 0.248850 -1.296888 0.000000 0.507916 -1.282127 0.000000 0.779401 -1.255538 0.000000 1.071190 -1.187132 0.000000 1.366027 -1.074504 0.000000 1.673678 -0.862368 0.000000 1.850506 -0.580574 0.000000 2.075013 -0.255336 0.000000 2.074601 0.036298 0.000000 1.797335 0.418537 0.000000 1.242275 1.091783 0.000000 0.675600 1.535826 0.000000 0.715935 1.467799 0.000000 0.731566 1.368446 0.000000 0.384460 1.611623 0.000000 -0.000000 1.824108 0.000000 -0.384460 1.611623 0.000000 -0.731566 1.368446 0.000000 -0.715935 1.467799 0.000000 -0.675600 1.535826 0.000000 -1.242275 1.091783 0.000000 -1.797335 0.418537 0.000000 -2.074601 0.036298 0.000000 -2.075013 -0.255336 0.000000 -1.850506 -0.580574 0.000000 -1.673678 -0.862368 0.000000 -1.366027 -1.074504 0.000000 -1.071190 -1.187132 0.000000 -0.779401 -1.255538 0.000000 -0.507916 -1.282127 0.000000 -0.248850 -1.296888 0.000000 
0.000000 -1.547018 0.000000 0.253079 -1.555171 0.000000 0.526292 -1.556520 0.000000 0.825601 -1.555488 0.000000 1.167812 -1.509513 0.000000 1.552690 -1.420658 0.000000 1.919813 -1.148798 0.000000 2.157538 -0.844090 0.000000 2.151329 -0.400246 0.000000 1.725578 0.377560 0.000000 1.117584 1.206628 0.000000 0.519595 1.822912 0.000000 0.541389 1.643369 0.000000 0.856181 1.288728 0.000000 0.541421 1.510521 0.000000 0.126536 1.886206 0.000000 -0.000000 2.056136 0.000000 -0.126536 1.886206 0.000000 -0.541421 1.510521 0.000000 -0.856181 1.288728 0.000000 -0.541389 1.643369 0.000000 -0.519595 1.822912 0.000000 -1.117584 1.206628 0.000000 -1.725578 0.377560 0.000000 -2.151329 -0.400246 0.000000 -2.157538 -0.844090 0.000000 -1.919813 -1.148798 0.000000 -1.552690 -1.420658 0.000000 -1.167812 -1.509513 0.000000 -0.825601 -1.555488 0.000000 -0.526292 -1.556520 0.000000 -0.253079 -1.555171 0.000000 
0.000000 -1.801959 0.000000 0.239612 -1.823180 0.000000 0.510050 -1.854649 0.000000 0.826098 -1.897057 0.000000 1.212421 -1.914221 0.000000 1.705325 -1.826505 0.000000 2.111656 -1.467216 0.000000 2.293717 -0.812090 0.000000 1.987648 0.176624 0.000000 1.466635 1.070044 0.000000 1.031070 1.624521 0.000000 1.128475 1.667978 0.000000 1.424086 1.199240 0.000000 0.996976 1.467767 0.000000 0.464006 2.098090 0.000000 0.151768 2.153044 0.000000 -0.000000 2.077181 0.000000 -0.151768 2.153044 0.000000 -0.464006 2.098090 0.000000 -0.996976 1.467767 0.000000 -1.424086 1.199240 0.000000 -1.128475 1.667978 0.000000 -1.031070 1.624521 0.000000 -1.466635 1.070044 0.000000 -1.987648 0.176624 0.000000 -2.293717 -0.812090 0.000000 -2.111656 -1.467216 0.000000 -1.705325 -1.826505 0.000000 -1.212421 -1.914221 0.000000 -0.826098 -1.897057 0.000000 -0.510050 -1.854649 0.000000 -0.239612 -1.823180 0.000000 
0.000000 -2.026241 0.000000 0.200801 -2.065222 0.000000 0.454406 -2.143007 0.000000 0.764238 -2.257859 0.000000 1.226801 -2.388740 0.000000 1.878459 -2.319892 0.000000 2.314904 -1.737191 0.000000 2.194789 -0.720082 0.000000 1.431730 0.426836 0.000000 1.035274 1.334138 0.000000 1.160899 1.544788 0.000000 1.413622 1.429896 0.000000 1.001541 1.774869 0.000000 0.336124 2.248808 0.000000 0.314039 2.355729 0.000000 0.329747 2.350212 0.000000 0.000000 2.359672 0.000000 -0.329747 2.350212 0.000000 -0.314039 2.355729 0.000000 -0.336124 2.248808 0.000000 -1.001541 1.774869 0.000000 -1.413622 1.429896 0.000000 -1.160899 1.544788 0.000000 -1.035274 1.334138 0.000000 -1.431730 0.426836 0.000000 -2.194789 -0.720082 0.000000 -2.314904 -1.737191 0.000000 -1.878459 -2.319892 0.000000 -1.226801 -2.388740 0.000000 -0.764238 -2.257859 0.000000 -0.454406 -2.143007 0.000000 -0.200801 -2.065222 0.000000 
0.000000 -2.203560 0.000000 0.123323 -2.277586 0.000000 0.317036 -2.418086 0.000000 0.570410 -2.669452 0.000000 1.076094 -3.028442 0.000000 1.678874 -2.914608 0.000000 1.344008 -1.783546 0.000000 0.146245 0.071084 0.000000 -0.865000 1.336139 0.000000 -0.910993 1.340875 0.000000 -0.511108 1.246172 0.000000 -0.561431 1.827337 0.000000 -0.427196 2.276738 0.000000 -0.160737 2.155269 0.000000 -0.105761 2.104468 0.000000 0.066846 2.467083 0.000000 0.000000 2.736675 0.000000 -0.066846 2.467083 0.000000 0.105761 2.104468 0.000000 0.160737 2.155269 0.000000 0.427196 2.276738 0.000000 0.561431 1.827337 0.000000 0.511108 1.246172 0.000000 0.910993 1.340875 0.000000 0.865000 1.336139 0.000000 -0.146245 0.071084 0.000000 -1.344008 -1.783546 0.000000 -1.678874 -2.914608 0.000000 -1.076094 -3.028442 0.000000 -0.570410 -2.669452 0.000000 -0.317036 -2.418086 0.000000 -0.123323 -2.277586 0.000000 
0.000000 -2.272888 0.000000 -0.013740 -2.382258 0.000000 0.054580 -2.590093 0.000000 0.110833 -3.016916 0.000000 0.528863 -3.497204 0.000000 0.211952 -2.587806 0.000000 -1.229959 -0.204562 0.000000 -2.512023 1.488926 0.000000 -2.607294 1.484075 0.000000 -2.426132 0.980246 0.000000 -2.808007 1.195226 0.000000 -2.534559 1.345985 0.000000 -1.284324 1.374175 0.000000 -0.832471 1.927373 0.000000 -0.795274 2.128146 0.000000 -0.444427 2.244451 0.000000 0.000000 2.493363 0.000000 0.444427 2.244451 0.000000 0.795274 2.128146 0.000000 0.832471 1.927373 0.000000 1.284324 1.374175 0.000000 2.534559 1.345985 0.000000 2.808007 1.195226 0.000000 2.426132 0.980246 0.000000 2.607294 1.484075 0.000000 2.512023 1.488926 0.000000 1.229959 -0.204562 0.000000 -0.211952 -2.587806 0.000000 -0.528863 -3.497204 0.000000 -0.110833 -3.016916 0.000000 -0.054580 -2.590093 0.000000 0.013740 -2.382258 0.000000 
-0.000000 -2.176081 0.000000 -0.195597 -2.332167 0.000000 -0.340381 -2.542658 0.000000 -0.543249 -3.143735 0.000000 -0.572186 -3.129561 0.000000 -1.910430 -1.155786 0.000000 -2.975412 0.940428 0.000000 -2.817029 1.448418 0.000000 -2.727122 1.250249 0.000000 -3.145764 1.541588 0.000000 -3.708057 1.354600 0.000000 -2.809426 0.303654 0.000000 -1.844545 0.574649 0.000000 -1.578168 1.666218 0.000000 -1.063060 1.716424 0.000000 -0.585515 1.671809 0.000000 0.000000 1.847822 0.000000 0.585515 1.671809 0.000000 1.063060 1.716424 0.000000 1.578168 1.666218 0.000000 1.844545 0.574649 0.000000 2.809426 0.303654 0.000000 3.708057 1.354600 0.000000 3.145764 1.541588 0.000000 2.727122 1.250249 0.000000 2.817029 1.448418 0.000000 2.975412 0.940428 0.000000 1.910430 -1.155786 0.000000 0.572186 -3.129561 0.000000 0.543249 -3.143735 0.000000 0.340381 -2.542658 0.000000 0.195597 -2.332167 0.000000 
0.000000 -1.881694 0.000000 -0.385445 -2.041877 0.000000 -0.820237 -2.242441 0.000000 -1.219346 -2.785111 0.000000 -1.972835 -2.130023 0.000000 -3.137921 -0.184581 0.000000 -3.247478 0.702036 0.000000 -2.694355 1.240636 0.000000 -2.784505 1.812810 0.000000 -3.111146 1.961181 0.000000 -3.003877 0.858888 0.000000 -2.202617 -0.517528 0.000000 -2.002536 0.142916 0.000000 -1.593568 1.145889 0.000000 -0.947354 1.135494 0.000000 -0.523242 1.181390 0.000000 0.000000 1.322333 0.000000 0.523242 1.181390 0.000000 0.947354 1.135494 0.000000 1.593568 1.145889 0.000000 2.002536 0.142916 0.000000 2.202617 -0.517528 0.000000 3.003877 0.858888 0.000000 3.111146 1.961181 0.000000 2.784505 1.812810 0.000000 2.694355 1.240636 0.000000 3.247478 0.702036 0.000000 3.137921 -0.184581 0.000000 1.972835 -2.130023 0.000000 1.219346 -2.785111 0.000000 0.820237 -2.242441 0.000000 0.385445 -2.041877 0.000000 
-0.000000 -1.405191 0.000000 -0.564950 -1.511929 0.000000 -1.237845 -1.708757 0.000000 -1.880171 -1.991137 0.000000 -2.999778 -1.210987 0.000000 -3.472144 0.118857 0.000000 -3.305005 0.496863 0.000000 -3.034204 0.985445 0.000000 -2.609852 1.667039 0.000000 -2.261201 1.760961 0.000000 -1.709837 0.446070 0.000000 -1.539576 -0.697687 0.000000 -1.747837 -0.034400 0.000000 -1.319134 0.611035 0.000000 -0.834357 0.646098 0.000000 -0.469432 0.724455 0.000000 -0.000000 0.801338 0.000000 0.469432 0.724455 0.000000 0.834357 0.646098 0.000000 1.319134 0.611035 0.000000 1.747837 -0.034400 0.000000 1.539576 -0.697687 0.000000 1.709837 0.446070 0.000000 2.261201 1.760961 0.000000 2.609852 1.667039 0.000000 3.034204 0.985445 0.000000 3.305005 0.496863 0.000000 3.472144 0.118857 0.000000 2.999778 -1.210987 0.000000 1.880171 -1.991137 0.000000 1.237845 -1.708757 0.000000 0.564950 -1.511929 0.000000 
0.000000 -0.751794 0.000000 -0.702595 -0.804032 0.000000 -1.511929 -0.927219 0.000000 -2.411352 -1.023177 0.000000 -3.503067 -0.538050 0.000000 -3.622339 0.120646 0.000000 -3.384210 0.264096 0.000000 -3.125477 0.545483 0.000000 -2.398764 1.039807 0.000000 -1.458437 1.061166 0.000000 -0.637804 0.137263 0.000000 -1.012367 -0.479528 0.000000 -1.335491 -0.077525 0.000000 -1.046767 0.232410 0.000000 -0.724455 0.285791 0.000000 -0.400669 0.347033 0.000000 -0.000000 0.383469 0.000000 0.400669 0.347033 0.000000 0.724455 0.285791 0.000000 1.046767 0.232410 0.000000 1.335491 -0.077525 0.000000 1.012367 -0.479528 0.000000 0.637804 0.137263 0.000000 1.458437 1.061166 0.000000 2.398764 1.039807 0.000000 3.125477 0.545483 0.000000 3.384210 0.264096 0.000000 3.622339 0.120646 0.000000 3.503067 -0.538050 0.000000 2.411352 -1.023177 0.000000 1.511929 -0.927219 0.000000 0.702595 -0.804032 0.000000 
0.000000 0.000000 0.000000 -0.751794 -0.000000 0.000000 -1.608064 -0.000000 0.000000 -2.606233 -0.000000 0.000000 -3.654419 0.000000 0.000000 -3.682333 0.000000 0.000000 -3.413128 0.000000 0.000000 -3.154140 -0.000000 0.000000 -2.322162 -0.000000 0.000000 -1.074527 0.000000 0.000000 -0.199830 -0.000000 0.000000 -0.800001 0.000000 0.000000 -1.158885 -0.000000 0.000000 -0.955052 0.000000 0.000000 -0.694066 0.000000 0.000000 -0.383469 -0.000000 0.000000 -0.000000 0.000000 0.000000 0.383469 -0.000000 0.000000 0.694066 -0.000000 0.000000 0.955052 -0.000000 0.000000 1.158885 -0.000000 0.000000 0.800001 -0.000000 0.000000 0.199830 -0.000000 0.000000 1.074527 -0.000000 0.000000 2.322162 -0.000000 0.000000 3.154140 0.000000 0.000000 3.413128 -0.000000 0.000000 3.682333 -0.000000 0.000000 3.654419 -0.000000 0.000000 2.606233 0.000000 0.000000 1.608064 0.000000 0.000000 0.751794 0.000000 0.000000 
-0.000000 0.751794 0.000000 -0.702595 0.804032 0.000000 -1.511929 0.927219 0.000000 -2.411352 1.023177 0.000000 -3.503067 0.538050 0.000000 -3.622339 -0.120646 0.000000 -3.384210 -0.264096 0.000000 -3.125477 -0.545483 0.000000 -2.398764 -1.039807 0.000000 -1.458437 -1.061166 0.000000 -0.637804 -0.137263 0.000000 -1.012367 0.479528 0.000000 -1.335491 0.077525 0.000000 -1.046767 -0.232410 0.000000 -0.724455 -0.285791 0.000000 -0.400669 -0.347033 0.000000 -0.000000 -0.383469 0.000000 0.400669 -0.347033 0.000000 0.724455 -0.285791 0.000000 1.046767 -0.232410 0.000000 1.335491 0.077525 0.000000 1.012367 0.479528 0.000000 0.637804 -0.137263 0.000000 1.458437 -1.061166 0.000000 2.398764 -1.039807 0.000000 3.125477 -0.545483 0.000000 3.384210 -0.264096 0.000000 3.622339 -0.120646 0.000000 3.503067 0.538050 0.000000 2.411352 1.023177 0.000000 1.511929 0.927219 0.000000 0.702595 0.804032 0.000000 
0.000000 1.405191 0.000000 -0.564950 1.511929 0.000000 -1.237845 1.708757 0.000000 -1.880171 1.991137 0.000000 -2.999778 1.210987 0.000000 -3.472144 -0.118857 0.000000 -3.305005 -0.496863 0.000000 -3.034204 -0.985445 0.000000 -2.609852 -1.667039 0.000000 -2.261201 -1.760961 0.000000 -1.709837 -0.446070 0.000000 -1.539576 0.697687 0.000000 -1.747837 0.034400 0.000000 -1.319134 -0.611035 0.000000 -0.834357 -0.646098 0.000000 -0.469432 -0.724455 0.000000 0.000000 -0.801338 0.000000 0.469432 -0.724455 0.000000 0.834357 -0.646098 0.000000 1.319134 -0.611035 0.000000 1.747837 0.034400 0.000000 1.539576 0.697687 0.000000 1.709837 -0.446070 0.000000 2.261201 -1.760961 0.000000 2.609852 -1.667039 0.000000 3.034204 -0.985445 0.000000 3.305005 -0.496863 0.000000 3.472144 -0.118857 0.000000 2.999778 1.210987 0.000000 1.880171 1.991137 0.000000 1.237845 1.708757 0.000000 0.564950 1.511929 0.000000 
-0.000000 1.881694 0.000000 -0.385445 2.041877 0.000000 -0.820237 2.242441 0.000000 -1.219346 2.785111 0.000000 -1.972835 2.130023 0.000000 -3.137921 0.184581 0.000000 -3.247478 -0.702036 0.000000 -2.694355 -1.240636 0.000000 -2.784505 -1.812810 0.000000 -3.111146 -1.961181 0.000000 -3.003877 -0.858888 0.000000 -2.202617 0.517528 0.000000 -2.002536 -0.142916 0.000000 -1.593568 -1.145889 0.000000 -0.947354 -1.135494 0.000000 -0.523242 -1.181390 0.000000 0.000000 -1.322333 0.000000 0.523242 -1.181390 0.000000 0.947354 -1.135494 0.000000 1.593568 -1.145889 0.000000 2.002536 -0.142916 0.000000 2.202617 0.517528 0.000000 3.003877 -0.858888 0.000000 3.111146 -1.961181 0.000000 2.784505 -1.812810 0.000000 2.694355 -1.240636 0.000000 3.247478 -0.702036 0.000000 3.137921 0.184581 0.000000 1.972835 2.130023 0.000000 1.219346 2.785111 0.000000 0.820237 2.242441 0.000000 0.385445 2.041877 0.000000 
0.000000 2.176081 0.000000 -0.195597 2.332167 0.000000 -0.340381 2.542658 0.000000 -0.543249 3.143735 0.000000 -0.572186 3.129561 0.000000 -1.910430 1.155786 0.000000 -2.975412 -0.940428 0.000000 -2.817029 -1.448418 0.000000 -2.727122 -1.250249 0.000000 -3.145764 -1.541588 0.000000 -3.708057 -1.354600 0.000000 -2.809426 -0.303654 0.000000 -1.844545 -0.574649 0.000000 -1.578168 -1.666218 0.000000 -1.063060 -1.716424 0.000000 -0.585515 -1.671809 0.000000 0.000000 -1.847822 0.000000 0.585515 -1.671809 0.000000 1.063060 -1.716424 0.000000 1.578168 -1.666218 0.000000 1.844545 -0.574649 0.000000 2.809426 -0.303654 0.000000 3.708057 -1.354600 0.000000 3.145764 -1.541588 0.000000 2.727122 -1.250249 0.000000 2.817029 -1.448418 0.000000 2.975412 -0.940428 0.000000 1.910430 1.155786 0.000000 0.572186 3.129561 0.000000 0.543249 3.143735 0.000000 0.340381 2.542658 0.000000 0.195597 2.332167 0.000000 
-0.000000 2.272888 0.000000 -0.013740 2.382258 0.000000 0.054580 2.590093 0.000000 0.110833 3.016916 0.000000 0.528863 3.497204 0.000000 0.211952 2.587806 0.000000 -1.229959 0.204562 0.000000 -2.512023 -1.488926 0.000000 -2.607294 -1.484075 0.000000 -2.426132 -0.980246 0.000000 -2.808007 -1.195226 0.000000 -2.534559 -1.345985 0.000000 -1.284324 -1.374175 0.000000 -0.832471 -1.927373 0.000000 -0.795274 -2.128146 0.000000 -0.444427 -2.244451 0.000000 0.000000 -2.493363 0.000000 0.444427 -2.244451 0.000000 0.795274 -2.128146 0.000000 0.832471 -1.927373 0.000000 1.284324 -1.374175 0.000000 2.534559 -1.345985 0.000000 2.808007 -1.195226 0.000000 2.426132 -0.980246 0.000000 2.607294 -1.484075 0.000000 2.512023 -1.488926 0.000000 1.229959 0.204562 0.000000 -0.211952 2.587806 0.000000 -0.528863 3.497204 0.000000 -0.110833 3.016916 0.000000 -0.054580 2.590093 0.000000 0.013740 2.382258 0.000000 
-0.000000 2.203560 0.000000 0.123323 2.277586 0.000000 0.317036 2.418086 0.000000 0.570410 2.669452 0.000000 1.076094 3.028442 0.000000 1.678874 2.914608 0.000000 1.344008 1.783546 0.000000 0.146245 -0.071084 0.000000 -0.865000 -1.336139 0.000000 -0.910993 -1.340875 0.000000 -0.511108 -1.246172 0.000000 -0.561431 -1.827337 0.000000 -0.427196 -2.276738 0.000000 -0.160737 -2.155269 0.000000 -0.105761 -2.104468 0.000000 0.066846 -2.467083 0.000000 0.000000 -2.736675 0.000000 -0.066846 -2.467083 0.000000 0.105761 -2.104468 0.000000 0.160737 -2.155269 0.000000 0.427196 -2.276738 0.000000 0.561431 -1.827337 0.000000 0.511108 -1.246172 0.000000 0.910993 -1.340875 0.000000 0.865000 -1.336139 0.000000 -0.146245 -0.071084 0.000000 -1.344008 1.783546 0.000000 -1.678874 2.914608 0.000000 -1.076094 3.028442 0.000000 -0.570410 2.669452 0.000000 -0.317036 2.418086 0.000000 -0.123323 2.277586 0.000000 
-0.000000 2.026241 0.000000 0.200801 2.065222 0.000000 0.454406 2.143007 0.000000 0.764238 2.257859 0.000000 1.226801 2.388740 0.000000 1.878459 2.319892 0.000000 2.314904 1.737191 0.000000 2.194789 0.720082 0.000000 1.431730 -0.426836 0.000000 1.035274 -1.334138 0.000000 1.160899 -1.544788 0.000000 1.413622 -1.429896 0.000000 1.001541 -1.774869 0.000000 0.336124 -2.248808 0.000000 0.314039 -2.355729 0.000000 0.329747 -2.350212 0.000000 0.000000 -2.359672 0.000000 -0.329747 -2.350212 0.000000 -0.314039 -2.355729 0.000000 -0.336124 -2.248808 0.000000 -1.001541 -1.774869 0.000000 -1.413622 -1.429896 0.000000 -1.160899 -1.544788 0.000000 -1.035274 -1.334138 0.000000 -1.431730 -0.426836 0.000000 -2.194789 0.720082 0.000000 -2.314904 1.737191 0.000000 -1.878459 2.319892 0.000000 -1.226801 2.388740 0.000000 -0.764238 2.257859 0.000000 -0.454406 2.143007 0.000000 -0.200801 2.065222 0.000000 
-0.000000 1.801959 0.000000 0.239612 1.823180 0.000000 0.510050 1.854649 0.000000 0.826098 1.897057 0.000000 1.212421 1.914221 0.000000 1.705325 1.826505 0.000000 2.111656 1.467216 0.000000 2.293717 0.812090 0.000000 1.987648 -0.176624 0.000000 1.466635 -1.070044 0.000000 1.031070 -1.624521 0.000000 1.128475 -1.667978 0.000000 1.424086 -1.199240 0.000000 0.996976 -1.467767 0.000000 0.464006 -2.098090 0.000000 0.151768 -2.153044 0.000000 -0.000000 -2.077181 0.000000 -0.151768 -2.153044 0.000000 -0.464006 -2.098090 0.000000 -0.996976 -1.467767 0.000000 -1.424086 -1.199240 0.000000 -1.128475 -1.667978 0.000000 -1.031070 -1.624521 0.000000 -1.466635 -1.070044 0.000000 -1.987648 -0.176624 0.000000 -2.293717 0.812090 0.000000 -2.111656 1.467216 0.000000 -1.705325 1.826505 0.000000 -1.212421 1.914221 0.000000 -0.826098 1.897057 0.000000 -0.510050 1.854649 0.000000 -0.239612 1.823180 0.000000 
-0.000000 1.547018 0.000000 0.253079 1.555171 0.000000 0.526292 1.556520 0.000000 0.825601 1.555488 0.000000 1.167812 1.509513 0.000000 1.552690 1.420658 0.000000 1.919813 1.148798 0.000000 2.157538 0.844090 0.000000 2.151329 0.400246 0.000000 1.725578 -0.377560 0.000000 1.117584 -1.206628 0.000000 0.519595 -1.822912 0.000000 0.541389 -1.643369 0.000000 0.856181 -1.288728 0.000000 0.541421 -1.510521 0.000000 0.126536 -1.886206 0.000000 0.000000 -2.056136 0.000000 -0.126536 -1.886206 0.000000 -0.541421 -1.510521 0.000000 -0.856181 -1.288728 0.000000 -0.541389 -1.643369 0.000000 -0.519595 -1.822912 0.000000 -1.117584 -1.206628 0.000000 -1.725578 -0.377560 0.000000 -2.151329 0.400246 0.000000 -2.157538 0.844090 0.000000 -1.919813 1.148798 0.000000 -1.552690 1.420658 0.000000 -1.167812 1.509513 0.000000 -0.825601 1.555488 0.000000 -0.526292 1.556520 0.000000 -0.253079 1.555171 0.000000 
-0.000000 1.295800 0.000000 0.248850 1.296888 0.000000 0.507916 1.282127 0.000000 0.779401 1.255538 0.000000 1.071190 1.187132 0.000000 1.366027 1.074504 0.000000 1.673678 0.862368 0.000000 1.850506 0.580574 0.000000 2.075013 0.255336 0.000000 2.074601 -0.036298 0.000000 1.797335 -0.418537 0.000000 1.242275 -1.091783 0.000000 0.675600 -1.535826 0.000000 0.715935 -1.467799 0.000000 0.731566 -1.368446 0.000000 0.384460 -1.611623 0.000000 0.000000 -1.824108 0.000000 -0.384460 -1.611623 0.000000 -0.731566 -1.368446 0.000000 -0.715935 -1.467799 0.000000 -0.675600 -1.535826 0.000000 -1.242275 -1.091783 0.000000 -1.797335 -0.418537 0.000000 -2.074601 -0.036298 0.000000 -2.075013 0.255336 0.000000 -1.850506 0.580574 0.000000 -1.673678 0.862368 0.000000 -1.366027 1.074504 0.000000 -1.071190 1.187132 0.000000 -0.779401 1.255538 0.000000 -0.507916 1.282127 0.000000 -0.248850 1.296888 0.000000 
-0.000000 1.049318 0.000000 0.239157 1.047255 0.000000 0.483170 1.025969 0.000000 0.729861 0.992213 0.000000 0.982856 0.922887 0.000000 1.224901 0.818171 0.000000 1.457771 0.664319 0.000000 1.613035 0.442754 0.000000 1.729806 0.176151 0.000000 1.763445 -0.099883 0.000000 1.783693 -0.374302 0.000000 1.628298 -0.701177 0.000000 1.217450 -1.117030 0.000000 0.909983 -1.344694 0.000000 0.927434 -1.179046 0.000000 0.647319 -1.154640 0.000000 0.000000 -1.287216 0.000000 -0.647319 -1.154640 0.000000 -0.927434 -1.179046 0.000000 -0.909983 -1.344694 0.000000 -1.217450 -1.117030 0.000000 -1.628298 -0.701177 0.000000 -1.783693 -0.374302 0.000000 -1.763445 -0.099883 0.000000 -1.729806 0.176151 0.000000 -1.613035 0.442754 0.000000 -1.457771 0.664319 0.000000 -1.224901 0.818171 0.000000 -0.982856 0.922887 0.000000 -0.729861 0.992213 0.000000 -0.483170 1.025969 0.000000 -0.239157 1.047255 0.000000 
-0.000000 0.817485 0.000000 0.225174 0.813718 0.000000 0.451721 0.791424 0.000000 0.674520 0.755851 0.000000 0.896660 0.692092 0.000000 1.100283 0.599589 0.000000 1.288150 0.474234 0.000000 1.431203 0.308539 0.000000 1.518169 0.104926 0.000000 1.542144 -0.090185 0.000000 1.507184 -0.283390 0.000000 1.423150 -0.525541 0.000000 1.214387 -0.817512 0.000000 0.855107 -1.177783 0.000000 0.774064 -1.105782 0.000000 0.712959 -0.684189 0.000000 -0.000000 -0.529469 0.000000 -0.712959 -0.684189 0.000000 -0.774064 -1.105782 0.000000 -0.855107 -1.177783 0.000000 -1.214387 -0.817512 0.000000 -1.423150 -0.525541 0.000000 -1.507184 -0.283390 0.000000 -1.542144 -0.090185 0.000000 -1.518169 0.104926 0.000000 -1.431203 0.308539 0.000000 -1.288150 0.474234 0.000000 -1.100283 0.599589 0.000000 -0.896660 0.692092 0.000000 -0.674520 0.755851 0.000000 -0.451721 0.791424 0.000000 -0.225174 0.813718 0.000000 
-0.000000 0.598970 0.000000 0.212766 0.595534 0.000000 0.424608 0.576623 0.000000 0.628805 0.547274 0.000000 0.826582 0.497124 0.000000 1.002126 0.426681 0.000000 1.155455 0.333399 0.000000 1.268236 0.212736 0.000000 1.333119 0.065210 0.000000 1.333602 -0.088898 0.000000 1.300366 -0.255308 0.000000 1.204348 -0.408379 0.000000 1.042492 -0.548987 0.000000 0.735472 -0.904371 0.000000 0.312558 -1.036898 0.000000 0.259065 -0.380577 0.000000 -0.000000 0.138701 0.000000 -0.259065 -0.380577 0.000000 -0.312558 -1.036898 0.000000 -0.735472 -0.904371 0.000000 -1.042492 -0.548987 0.000000 -1.204348 -0.408379 0.000000 -1.300366 -0.255308 0.000000 -1.333602 -0.088898 0.000000 -1.333119 0.065210 0.000000 -1.268236 0.212736 0.000000 -1.155455 0.333399 0.000000 -1.002126 0.426681 0.000000 -0.826582 0.497124 0.000000 -0.628805 0.547274 0.000000 -0.424608 0.576623 0.000000 -0.212766 0.595534 0.000000 
-0.000000 0.391953 0.000000 0.202528 0.389110 0.000000 0.403063 0.375385 0.000000 0.593741 0.353878 0.000000 0.775879 0.318771 0.000000 0.934093 0.270716 0.000000 1.069904 0.208125 0.000000 1.166066 0.130874 0.000000 1.220015 0.039559 0.000000 1.214275 -0.057431 0.000000 1.162995 -0.154136 0.000000 1.041512 -0.267666 0.000000 0.884088 -0.348636 0.000000 0.665170 -0.447849 0.000000 0.173284 -0.629374 0.000000 -0.140516 -0.371631 0.000000 -0.000000 -0.011340 0.000000 0.140516 -0.371631 0.000000 -0.173284 -0.629374 0.000000 -0.665170 -0.447849 0.000000 -0.884088 -0.348636 0.000000 -1.041512 -0.267666 0.000000 -1.162995 -0.154136 0.000000 -1.214275 -0.057431 0.000000 -1.220015 0.039559 0.000000 -1.166066 0.130874 0.000000 -1.069904 0.208125 0.000000 -0.934093 0.270716 0.000000 -0.775879 0.318771 0.000000 -0.593741 0.353878 0.000000 -0.403063 0.375385 0.000000 -0.202528 0.389110 0.000000 
0.000000 0.193913 0.000000 0.195976 0.192471 0.000000 0.389110 0.185411 0.000000 0.571361 0.174459 0.000000 0.742988 0.156773 0.000000 0.890132 0.132656 0.000000 1.013703 0.101426 0.000000 1.098257 0.062624 0.000000 1.144578 0.017002 0.000000 1.137816 -0.031878 0.000000 1.087146 -0.082545 0.000000 0.983681 -0.129472 0.000000 0.819480 -0.172645 0.000000 0.635044 -0.193567 0.000000 0.371631 -0.231212 0.000000 0.005670 -0.207293 0.000000 -0.000000 -0.142330 0.000000 -0.005670 -0.207293 0.000000 -0.371631 -0.231212 0.000000 -0.635044 -0.193567 0.000000 -0.819480 -0.172645 0.000000 -0.983681 -0.129472 0.000000 -1.087146 -0.082545 0.000000 -1.137816 -0.031878 0.000000 -1.144578 0.017002 0.000000 -1.098257 0.062624 0.000000 -1.013703 0.101426 0.000000 -0.890132 0.132656 0.000000 -0.742988 0.156773 0.000000 -0.571361 0.174459 0.000000 -0.389110 0.185411 0.000000 -0.195976 0.192471 0.000000 
