# vtk DataFile Version 2.0
Comment goes here
ASCII

DATASET STRUCTURED_POINTS
FIELD FieldData 1
TIME 1 1 double
1.04000000
DIMENSIONS    32   32   1

ORIGIN    0.000   0.000   0.000
SPACING   0.03125 0.03125   1.000

POINT_DATA   1024
VECTORS u double

-0.000000 -0.000000 0.000000 -0.000314 -0.000000 0.000000 -0.018761 -0.000000 0.000000 -0.062109 -0.000000 0.000000 -0.149287 -0.000000 0.000000 -0.271709 -0.000000 0.000000 -0.442384 0.000000 0.000000 -0.639022 0.000000 0.000000 -0.858387 0.000000 0.000000 -1.071752 0.000000 0.000000 -1.252216 0.000000 0.000000 -1.378592 0.000000 0.000000 -1.400218 0.000000 0.000000 -1.309295 0.000000 0.000000 -1.051495 0.000000 0.000000 -0.619638 0.000000 0.000000 0.000000 0.000000 0.000000 0.619638 -0.000000 0.000000 1.051495 -0.000000 0.000000 1.309295 -0.000000 0.000000 1.400218 -0.000000 0.000000 1.378592 -0.000000 0.000000 1.252216 -0.000000 0.000000 1.071752 -0.000000 0.000000 0.858387 -0.000000 0.000000 0.639022 -0.000000 0.000000 0.442384 -0.000000 0.000000 0.271709 -0.000000 0.000000 0.149287 -0.000000 0.000000 0.062109 -0.000000 0.000000 0.018761 -0.000000 0.000000 0.000314 -0.000000 0.000000 
-0.000000 0.000314 0.000000 0.005791 0.009380 0.000000 -0.006856 0.030898 0.000000 -0.044291 0.065263 0.000000 -0.125170 0.104800 0.000000 -0.239736 0.146548 0.000000 -0.401018 0.183656 0.000000 -0.586399 0.208001 0.000000 -0.793552 0.216365 0.000000 -0.993989 0.196915 0.000000 -1.163324 0.153420 0.000000 -1.280724 0.074001 0.000000 -1.302788 -0.034649 0.000000 -1.219543 -0.174362 0.000000 -0.987680 -0.344828 0.000000 -0.588580 -0.525748 0.000000 0.000000 -0.619638 0.000000 0.588580 -0.525748 0.000000 0.987680 -0.344828 0.000000 1.219543 -0.174362 0.000000 1.302788 -0.034649 0.000000 1.280724 0.074001 0.000000 1.163324 0.153420 0.000000 0.993989 0.196915 0.000000 0.793552 0.216365 0.000000 0.586399 0.208001 0.000000 0.401018 0.183656 0.000000 0.239736 0.146548 0.000000 0.125170 0.104800 0.000000 0.044291 0.065263 0.000000 0.006856 0.030898 0.000000 -0.005791 0.009380 0.000000 
-0.000000 -0.011581 0.000000 0.027366 0.006856 0.000000 0.035355 0.050082 0.000000 0.018612 0.118314 0.000000 -0.041008 0.195445 0.000000 -0.129347 0.275848 0.000000 -0.261386 0.346663 0.000000 -0.409986 0.392534 0.000000 -0.580242 0.407590 0.000000 -0.741891 0.369772 0.000000 -0.878906 0.286735 0.000000 -0.982866 0.139463 0.000000 -1.009989 -0.061181 0.000000 -0.975727 -0.315108 0.000000 -0.825448 -0.630962 0.000000 -0.511064 -0.987680 0.000000 0.000000 -1.177161 0.000000 0.511064 -0.987680 0.000000 0.825448 -0.630962 0.000000 0.975727 -0.315108 0.000000 1.009989 -0.061181 0.000000 0.982866 0.139463 0.000000 0.878906 0.286735 0.000000 0.741891 0.369772 0.000000 0.580242 0.407590 0.000000 0.409986 0.392534 0.000000 0.261386 0.346663 0.000000 0.129347 0.275848 0.000000 0.041008 0.195445 0.000000 -0.018612 0.118314 0.000000 -0.035355 0.050082 0.000000 -0.027366 0.006856 0.000000 
-0.000000 -0.054419 0.000000 0.057308 -0.025975 0.000000 0.092879 0.039652 0.000000 0.102171 0.141627 0.000000 0.066948 0.252759 0.000000 0.007460 0.366926 0.000000 -0.092940 0.464295 0.000000 -0.201675 0.526857 0.000000 -0.331105 0.548270 0.000000 -0.450077 0.495579 0.000000 -0.549150 0.394396 0.000000 -0.628258 0.205084 0.000000 -0.646402 -0.041789 0.000000 -0.633605 -0.358903 0.000000 -0.568194 -0.809491 0.000000 -0.363340 -1.351195 0.000000 -0.000000 -1.641765 0.000000 0.363340 -1.351195 0.000000 0.568194 -0.809491 0.000000 0.633605 -0.358903 0.000000 0.646402 -0.041789 0.000000 0.628258 0.205084 0.000000 0.549150 0.394396 0.000000 0.450077 0.495579 0.000000 0.331105 0.548270 0.000000 0.201675 0.526857 0.000000 0.092940 0.464295 0.000000 -0.007460 0.366926 0.000000 -0.066948 0.252759 0.000000 -0.102171 0.141627 0.000000 -0.092879 0.039652 0.000000 -0.057308 -0.025975 0.000000 
0.000000 -0.126198 0.000000 0.095114 -0.086023 0.000000 0.165305 0.005219 0.000000 0.205195 0.144245 0.000000 0.196675 0.290156 0.000000 0.166795 0.435736 0.000000 0.095617 0.555798 0.000000 0.029167 0.630699 0.000000 -0.062317 0.655992 0.000000 -0.131491 0.587817 0.000000 -0.187658 0.464917 0.000000 -0.243981 0.236715 0.000000 -0.234651 -0.055834 0.000000 -0.271066 -0.393316 0.000000 -0.300995 -0.901228 0.000000 -0.186963 -1.555874 0.000000 0.000000 -1.903841 0.000000 0.186963 -1.555874 0.000000 0.300995 -0.901228 0.000000 0.271066 -0.393316 0.000000 0.234651 -0.055834 0.000000 0.243981 0.236715 0.000000 0.187658 0.464917 0.000000 0.131491 0.587817 0.000000 0.062317 0.655992 0.000000 -0.029167 0.630699 0.000000 -0.095617 0.555798 0.000000 -0.166795 0.435736 0.000000 -0.196675 0.290156 0.000000 -0.205195 0.144245 0.000000 -0.165305 0.005219 0.000000 -0.095114 -0.086023 0.000000 
0.000000 -0.244646 0.000000 0.132270 -0.191280 0.000000 0.235509 -0.070429 0.000000 0.302959 0.110257 0.000000 0.314479 0.291159 0.000000 0.303891 0.467984 0.000000 0.246205 0.601924 0.000000 0.200247 0.684790 0.000000 0.122458 0.708928 0.000000 0.069667 0.620920 0.000000 0.029319 0.506885 0.000000 -0.020365 0.252077 0.000000 0.064543 -0.014703 0.000000 0.127475 -0.292559 0.000000 0.118503 -0.893595 0.000000 0.110553 -1.652190 0.000000 0.000000 -2.015692 0.000000 -0.110553 -1.652190 0.000000 -0.118503 -0.893595 0.000000 -0.127475 -0.292559 0.000000 -0.064543 -0.014703 0.000000 0.020365 0.252077 0.000000 -0.029319 0.506885 0.000000 -0.069667 0.620920 0.000000 -0.122458 0.708928 0.000000 -0.200247 0.684790 0.000000 -0.246205 0.601924 0.000000 -0.303891 0.467984 0.000000 -0.314479 0.291159 0.000000 -0.302959 0.110257 0.000000 -0.235509 -0.070429 0.000000 -0.132270 -0.191280 0.000000 
0.000000 -0.390738 0.000000 0.164368 -0.321532 0.000000 0.297506 -0.165470 0.000000 0.386698 0.065276 0.000000 0.415292 0.289224 0.000000 0.416481 0.504010 0.000000 0.362099 0.659442 0.000000 0.331781 0.754446 0.000000 0.245849 0.786572 0.000000 0.229583 0.680957 0.000000 0.210395 0.554949 0.000000 0.183941 0.201491 0.000000 0.392440 -0.203675 0.000000 0.360703 -0.447275 0.000000 0.326245 -0.884305 0.000000 0.272538 -1.437371 0.000000 0.000000 -1.682735 0.000000 -0.272538 -1.437371 0.000000 -0.326245 -0.884305 0.000000 -0.360703 -0.447275 0.000000 -0.392440 -0.203675 0.000000 -0.183941 0.201491 0.000000 -0.210395 0.554949 0.000000 -0.229583 0.680957 0.000000 -0.245849 0.786572 0.000000 -0.331781 0.754446 0.000000 -0.362099 0.659442 0.000000 -0.416481 0.504010 0.000000 -0.415292 0.289224 0.000000 -0.386698 0.065276 0.000000 -0.297506 -0.165470 0.000000 -0.164368 -0.321532 0.000000 
0.000000 -0.573381 0.000000 0.183962 -0.488786 0.000000 0.335885 -0.292759 0.000000 0.438208 -0.007529 0.000000 0.475994 0.261376 0.000000 0.483847 0.521176 0.000000 0.422784 0.686624 0.000000 0.391350 0.801040 0.000000 0.272987 0.811126 0.000000 0.219189 0.656374 0.000000 0.093933 0.552527 0.000000 -0.016581 0.070033 0.000000 0.365848 -0.191465 0.000000 0.733620 -0.226364 0.000000 1.101600 -0.805430 0.000000 0.760367 -1.325945 0.000000 0.000000 -1.470616 0.000000 -0.760367 -1.325945 0.000000 -1.101600 -0.805430 0.000000 -0.733620 -0.226364 0.000000 -0.365848 -0.191465 0.000000 0.016581 0.070033 0.000000 -0.093933 0.552527 0.000000 -0.219189 0.656374 0.000000 -0.272987 0.811126 0.000000 -0.391350 0.801040 0.000000 -0.422784 0.686624 0.000000 -0.483847 0.521176 0.000000 -0.475994 0.261376 0.000000 -0.438208 -0.007529 0.000000 -0.335885 -0.292759 0.000000 -0.183962 -0.488786 0.000000 
0.000000 -0.758662 0.000000 0.185896 -0.657417 0.000000 0.344381 -0.419717 0.000000 0.443361 -0.074834 0.000000 0.488981 0.243586 0.000000 0.487192 0.557220 0.000000 0.419326 0.751939 0.000000 0.372589 0.904243 0.000000 0.166853 0.958732 0.000000 0.174116 0.860011 0.000000 -0.029951 0.790719 0.000000 0.573826 -0.070424 0.000000 0.994360 -0.953875 0.000000 1.072524 -1.183028 0.000000 1.017746 -0.911052 0.000000 0.432133 -0.335771 0.000000 0.000000 -0.162001 0.000000 -0.432133 -0.335771 0.000000 -1.017746 -0.911052 0.000000 -1.072524 -1.183028 0.000000 -0.994360 -0.953875 0.000000 -0.573826 -0.070424 0.000000 0.029951 0.790719 0.000000 -0.174116 0.860011 0.000000 -0.166853 0.958732 0.000000 -0.372589 0.904243 0.000000 -0.419326 0.751939 0.000000 -0.487192 0.557220 0.000000 -0.488981 0.243586 0.000000 -0.443361 -0.074834 0.000000 -0.344381 -0.419717 0.000000 -0.185896 -0.657417 0.000000 
0.000000 -0.945173 0.000000 0.168323 -0.833166 0.000000 0.316589 -0.550225 0.000000 0.402622 -0.152129 0.000000 0.451383 0.217545 0.000000 0.452570 0.590830 0.000000 0.386800 0.801227 0.000000 0.372133 1.053513 0.000000 0.151056 1.009599 0.000000 0.085930 0.853178 0.000000 0.306413 0.152817 0.000000 1.062739 -0.954278 0.000000 0.474599 -0.690163 0.000000 -0.152580 -0.249751 0.000000 -0.471441 -0.165039 0.000000 -0.395234 -0.308199 0.000000 -0.000000 -0.606350 0.000000 0.395234 -0.308199 0.000000 0.471441 -0.165039 0.000000 0.152580 -0.249751 0.000000 -0.474599 -0.690163 0.000000 -1.062739 -0.954278 0.000000 -0.306413 0.152817 0.000000 -0.085930 0.853178 0.000000 -0.151056 1.009599 0.000000 -0.372133 1.053513 0.000000 -0.386800 0.801227 0.000000 -0.452570 0.590830 0.000000 -0.451383 0.217545 0.000000 -0.402622 -0.152129 0.000000 -0.316589 -0.550225 0.000000 -0.168323 -0.833166 0.000000 
0.000000 -1.095309 0.000000 0.129302 -0.974006 0.000000 0.251763 -0.654016 0.000000 0.308201 -0.209628 0.000000 0.371572 0.193638 0.000000 0.344991 0.621803 0.000000 0.336225 0.832377 0.000000 0.189650 1.139987 0.000000 -0.234383 1.244935 0.000000 -0.424854 0.704654 0.000000 0.336926 -0.186090 0.000000 0.079335 -0.238610 0.000000 -0.439580 0.261444 0.000000 -0.052826 -0.236988 0.000000 0.135542 -0.668398 0.000000 0.345929 -0.807211 0.000000 -0.000000 -0.952469 0.000000 -0.345929 -0.807211 0.000000 -0.135542 -0.668398 0.000000 0.052826 -0.236988 0.000000 0.439580 0.261444 0.000000 -0.079335 -0.238610 0.000000 -0.336926 -0.186090 0.000000 0.424854 0.704654 0.000000 0.234383 1.244935 0.000000 -0.189650 1.139987 0.000000 -0.336225 0.832377 0.000000 -0.344991 0.621803 0.000000 -0.371572 0.193638 0.000000 -0.308201 -0.209628 0.000000 -0.251763 -0.654016 0.000000 -0.129302 -0.974006 0.000000 
0.000000 -1.203777 0.000000 0.065781 -1.084930 0.000000 0.143397 -0.729125 0.000000 0.160285 -0.271937 0.000000 0.235705 0.180755 0.000000 0.193803 0.626177 0.000000 0.209883 0.956569 0.000000 0.048485 1.624122 0.000000 -0.762560 1.624103 0.000000 -0.059388 0.281869 0.000000 0.646664 -0.351372 0.000000 0.281947 -0.177772 0.000000 0.715597 -0.558002 0.000000 0.979646 -0.824873 0.000000 0.643796 -0.563794 0.000000 0.455212 -0.172657 0.000000 0.000000 0.085508 0.000000 -0.455212 -0.172657 0.000000 -0.643796 -0.563794 0.000000 -0.979646 -0.824873 0.000000 -0.715597 -0.558002 0.000000 -0.281947 -0.177772 0.000000 -0.646664 -0.351372 0.000000 0.059388 0.281869 0.000000 0.762560 1.624103 0.000000 -0.048485 1.624122 0.000000 -0.209883 0.956569 0.000000 -0.193803 0.626177 0.000000 -0.235705 0.180755 0.000000 -0.160285 -0.271937 0.000000 -0.143397 -0.729125 0.000000 -0.065781 -1.084930 0.000000 
0.000000 -1.226870 0.000000 -0.024423 -1.117402 0.000000 -0.020367 -0.748520 0.000000 -0.037430 -0.301936 0.000000 0.055203 0.160120 0.000000 0.009343 0.647625 0.000000 0.215248 0.977694 0.000000 -0.266834 2.112429 0.000000 -0.872737 1.352808 0.000000 0.935217 -0.704570 0.000000 0.671903 -0.527425 0.000000 0.536050 -0.307544 0.000000 0.497758 -0.436255 0.000000 0.263427 -0.165187 0.000000 0.039420 -0.143964 0.000000 -0.042640 -0.163415 0.000000 0.000000 -0.042045 0.000000 0.042640 -0.163415 0.000000 -0.039420 -0.143964 0.000000 -0.263427 -0.165187 0.000000 -0.497758 -0.436255 0.000000 -0.536050 -0.307544 0.000000 -0.671903 -0.527425 0.000000 -0.935217 -0.704570 0.000000 0.872737 1.352808 0.000000 0.266834 2.112429 0.000000 -0.215248 0.977694 0.000000 -0.009343 0.647625 0.000000 -0.055203 0.160120 0.000000 0.037430 -0.301936 0.000000 0.020367 -0.748520 0.000000 0.024423 -1.117402 0.000000 
0.000000 -1.154931 0.000000 -0.153416 -1.064563 0.000000 -0.247823 -0.716118 0.000000 -0.335778 -0.347507 0.000000 -0.213275 0.133981 0.000000 -0.349749 0.466132 0.000000 0.188207 1.232747 0.000000 -0.988355 2.712107 0.000000 0.168162 0.422052 0.000000 1.532592 -1.262771 0.000000 0.258018 0.047795 0.000000 0.344800 -0.003627 0.000000 0.007614 -0.285379 0.000000 0.030103 -0.366534 0.000000 0.054387 -0.257726 0.000000 0.006208 -0.133237 0.000000 0.000000 0.000227 0.000000 -0.006208 -0.133237 0.000000 -0.054387 -0.257726 0.000000 -0.030103 -0.366534 0.000000 -0.007614 -0.285379 0.000000 -0.344800 -0.003627 0.000000 -0.258018 0.047795 0.000000 -1.532592 -1.262771 0.000000 -0.168162 0.422052 0.000000 0.988355 2.712107 0.000000 -0.188207 1.232747 0.000000 0.349749 0.466132 0.000000 0.213275 0.133981 0.000000 0.335778 -0.347507 0.000000 0.247823 -0.716118 0.000000 0.153416 -1.064563 0.000000 
0.000000 -0.920038 0.000000 -0.312883 -0.869579 0.000000 -0.568040 -0.566158 0.000000 -0.700155 -0.336484 0.000000 -0.717543 0.174091 0.000000 -0.661976 0.246143 0.000000 -0.403987 1.616301 0.000000 -0.525579 2.132474 0.000000 1.401839 -1.168140 0.000000 0.827919 -0.794425 0.000000 0.156585 0.660367 0.000000 0.297559 -0.057140 0.000000 0.228451 -0.121558 0.000000 0.124425 -0.211960 0.000000 0.047836 -0.120070 0.000000 -0.019633 -0.109028 0.000000 0.000000 -0.029629 0.000000 0.019633 -0.109028 0.000000 -0.047836 -0.120070 0.000000 -0.124425 -0.211960 0.000000 -0.228451 -0.121558 0.000000 -0.297559 -0.057140 0.000000 -0.156585 0.660367 0.000000 -0.827919 -0.794425 0.000000 -1.401839 -1.168140 0.000000 0.525579 2.132474 0.000000 0.403987 1.616301 0.000000 0.661976 0.246143 0.000000 0.717543 0.174091 0.000000 0.700155 -0.336484 0.000000 0.568040 -0.566158 0.000000 0.312883 -0.869579 0.000000 
0.000000 -0.529165 0.000000 -0.460019 -0.496523 0.000000 -0.869579 -0.328845 0.000000 -1.026177 -0.198003 0.000000 -1.206063 0.095803 0.000000 -0.852086 0.152576 0.000000 -0.959920 1.096349 0.000000 0.764215 0.906281 0.000000 1.172553 -0.931447 0.000000 -0.403925 -0.017517 0.000000 0.378128 0.578156 0.000000 0.256442 -0.075494 0.000000 0.320988 -0.112245 0.000000 0.134884 -0.185919 0.000000 0.109028 -0.113668 0.000000 0.014814 -0.085401 0.000000 -0.000000 -0.039040 0.000000 -0.014814 -0.085401 0.000000 -0.109028 -0.113668 0.000000 -0.134884 -0.185919 0.000000 -0.320988 -0.112245 0.000000 -0.256442 -0.075494 0.000000 -0.378128 0.578156 0.000000 0.403925 -0.017517 0.000000 -1.172553 -0.931447 0.000000 -0.764215 0.906281 0.000000 0.959920 1.096349 0.000000 0.852086 0.152576 0.000000 1.206063 0.095803 0.000000 1.026177 -0.198003 0.000000 0.869579 -0.328845 0.000000 0.460019 -0.496523 0.000000 
-0.000000 0.000000 0.000000 -0.529165 -0.000000 0.000000 -0.993045 -0.000000 0.000000 -1.186856 -0.000000 0.000000 -1.389052 -0.000000 0.000000 -0.995251 -0.000000 0.000000 -1.083900 0.000000 0.000000 1.197448 0.000000 0.000000 0.728661 -0.000000 0.000000 -0.665446 0.000000 0.000000 0.693627 0.000000 0.000000 0.490866 0.000000 0.000000 0.542640 0.000000 0.000000 0.266376 0.000000 0.000000 0.170802 0.000000 0.000000 0.039040 0.000000 0.000000 -0.000000 -0.000000 0.000000 -0.039040 -0.000000 0.000000 -0.170802 -0.000000 0.000000 -0.266376 -0.000000 0.000000 -0.542640 -0.000000 0.000000 -0.490866 -0.000000 0.000000 -0.693627 0.000000 0.000000 0.665446 0.000000 0.000000 -0.728661 0.000000 0.000000 -1.197448 -0.000000 0.000000 1.083900 -0.000000 0.000000 0.995251 -0.000000 0.000000 1.389052 0.000000 0.000000 1.186856 0.000000 0.000000 0.993045 0.000000 0.000000 0.529165 0.000000 0.000000 
-0.000000 0.529165 0.000000 -0.460019 0.496523 0.000000 -0.869579 0.328845 0.000000 -1.026177 0.198003 0.000000 -1.206063 -0.095803 0.000000 -0.852086 -0.152576 0.000000 -0.959920 -1.096349 0.000000 0.764215 -0.906281 0.000000 1.172553 0.931447 0.000000 -0.403925 0.017517 0.000000 0.378128 -0.578156 0.000000 0.256442 0.075494 0.000000 0.320988 0.112245 0.000000 0.134884 0.185919 0.000000 0.109028 0.113668 0.000000 0.014814 0.085401 0.000000 -0.000000 0.039040 0.000000 -0.014814 0.085401 0.000000 -0.109028 0.113668 0.000000 -0.134884 0.185919 0.000000 -0.320988 0.112245 0.000000 -0.256442 0.075494 0.000000 -0.378128 -0.578156 0.000000 0.403925 0.017517 0.000000 -1.172553 0.931447 0.000000 -0.764215 -0.906281 0.000000 0.959920 -1.096349 0.000000 0.852086 -0.152576 0.000000 1.206063 -0.095803 0.000000 1.026177 0.198003 0.000000 0.869579 0.328845 0.000000 0.460019 0.496523 0.000000 
-0.000000 0.920038 0.000000 -0.312883 0.869579 0.000000 -0.568040 0.566158 0.000000 -0.700155 0.336484 0.000000 -0.717543 -0.174091 0.000000 -0.661976 -0.246143 0.000000 -0.403987 -1.616301 0.000000 -0.525579 -2.132474 0.000000 1.401839 1.168140 0.000000 0.827919 0.794425 0.000000 0.156585 -0.660367 0.000000 0.297559 0.057140 0.000000 0.228451 0.121558 0.000000 0.124425 0.211960 0.000000 0.047836 0.120070 0.000000 -0.019633 0.109028 0.000000 -0.000000 0.029629 0.000000 0.019633 0.109028 0.000000 -0.047836 0.120070 0.000000 -0.124425 0.211960 0.000000 -0.228451 0.121558 0.000000 -0.297559 0.057140 0.000000 -0.156585 -0.660367 0.000000 -0.827919 0.794425 0.000000 -1.401839 1.168140 0.000000 0.525579 -2.132474 0.000000 0.403987 -1.616301 0.000000 0.661976 -0.246143 0.000000 0.717543 -0.174091 0.000000 0.700155 0.336484 0.000000 0.568040 0.566158 0.000000 0.312883 0.869579 0.000000 
-0.000000 1.154931 0.000000 -0.153416 1.064563 0.000000 -0.247823 0.716118 0.000000 -0.335778 0.347507 0.000000 -0.213275 -0.133981 0.000000 -0.349749 -0.466132 0.000000 0.188207 -1.232747 0.000000 -0.988355 -2.712107 0.000000 0.168162 -0.422052 0.000000 1.532592 1.262771 0.000000 0.258018 -0.047795 0.000000 0.344800 0.003627 0.000000 0.007614 0.285379 0.000000 0.030103 0.366534 0.000000 0.054387 0.257726 0.000000 0.006208 0.133237 0.000000 -0.000000 -0.000227 0.000000 -0.006208 0.133237 0.000000 -0.054387 0.257726 0.000000 -0.030103 0.366534 0.000000 -0.007614 0.285379 0.000000 -0.344800 0.003627 0.000000 -0.258018 -0.047795 0.000000 -1.532592 1.262771 0.000000 -0.168162 -0.422052 0.000000 0.988355 -2.712107 0.000000 -0.188207 -1.232747 0.000000 0.349749 -0.466132 0.000000 0.213275 -0.133981 0.000000 0.335778 0.347507 0.000000 0.247823 0.716118 0.000000 0.153416 1.064563 0.000000 
-0.000000 1.226870 0.000000 -0.024423 1.117402 0.000000 -0.020367 0.748520 0.000000 -0.037430 0.301936 0.000000 0.055203 -0.160120 0.000000 0.009343 -0.647625 0.000000 0.215248 -0.977694 0.000000 -0.266834 -2.112429 0.000000 -0.872737 -1.352808 0.000000 0.935217 0.704570 0.000000 0.671903 0.527425 0.000000 0.536050 0.307544 0.000000 0.497758 0.436255 0.000000 0.263427 0.165187 0.000000 0.039420 0.143964 0.000000 -0.042640 0.163415 0.000000 -0.000000 0.042045 0.000000 0.042640 0.163415 0.000000 -0.039420 0.143964 0.000000 -0.263427 0.165187 0.000000 -0.497758 0.436255 0.000000 -0.536050 0.307544 0.000000 -0.671903 0.527425 0.000000 -0.935217 0.704570 0.000000 0.872737 -1.352808 0.000000 0.266834 -2.112429 0.000000 -0.215248 -0.977694 0.000000 -0.009343 -0.647625 0.000000 -0.055203 -0.160120 0.000000 0.037430 0.301936 0.000000 0.020367 0.748520 0.000000 0.024423 1.117402 0.000000 
-0.000000 1.203777 0.000000 0.065781 1.084930 0.000000 0.143397 0.729125 0.000000 0.160285 0.271937 0.000000 0.235705 -0.180755 0.000000 0.193803 -0.626177 0.000000 0.209883 -0.956569 0.000000 0.048485 -1.624122 0.000000 -0.762560 -1.624103 0.000000 -0.059388 -0.281869 0.000000 0.646664 0.351372 0.000000 0.281947 0.177772 0.000000 0.715597 0.558002 0.000000 0.979646 0.824873 0.000000 0.643796 0.563794 0.000000 0.455212 0.172657 0.000000 0.000000 -0.085508 0.000000 -0.455212 0.172657 0.000000 -0.643796 0.563794 0.000000 -0.979646 0.824873 0.000000 -0.715597 0.558002 0.000000 -0.281947 0.177772 0.000000 -0.646664 0.351372 0.000000 0.059388 -0.281869 0.000000 0.762560 -1.624103 0.000000 -0.048485 -1.624122 0.000000 -0.209883 -0.956569 0.000000 -0.193803 -0.626177 0.000000 -0.235705 -0.180755 0.000000 -0.160285 0.271937 0.000000 -0.143397 0.729125 0.000000 -0.065781 1.084930 0.000000 
-0.000000 1.095309 0.000000 0.129302 0.974006 0.000000 0.251763 0.654016 0.000000 0.308201 0.209628 0.000000 0.371572 -0.193638 0.000000 0.344991 -0.621803 0.000000 0.336225 -0.832377 0.000000 0.189650 -1.139987 0.000000 -0.234383 -1.244935 0.000000 -0.424854 -0.704654 0.000000 0.336926 0.186090 0.000000 0.079335 0.238610 0.000000 -0.439580 -0.261444 0.000000 -0.052826 0.236988 0.000000 0.135542 0.668398 0.000000 0.345929 0.807211 0.000000 0.000000 0.952469 0.000000 -0.345929 0.807211 0.000000 -0.135542 0.668398 0.000000 0.052826 0.236988 0.000000 0.439580 -0.261444 0.000000 -0.079335 0.238610 0.000000 -0.336926 0.186090 0.000000 0.424854 -0.704654 0.000000 0.234383 -1.244935 0.000000 -0.189650 -1.139987 0.000000 -0.336225 -0.832377 0.000000 -0.344991 -0.621803 0.000000 -0.371572 -0.193638 0.000000 -0.308201 0.209628 0.000000 -0.251763 0.654016 0.000000 -0.129302 0.974006 0.000000 
-0.000000 0.945173 0.000000 0.168323 0.833166 0.000000 0.316589 0.550225 0.000000 0.402622 0.152129 0.000000 0.451383 -0.217545 0.000000 0.452570 -0.590830 0.000000 0.386800 -0.801227 0.000000 0.372133 -1.053513 0.000000 0.151056 -1.009599 0.000000 0.085930 -0.853178 0.000000 0.306413 -0.152817 0.000000 1.062739 0.954278 0.000000 0.474599 0.690163 0.000000 -0.152580 0.249751 0.000000 -0.471441 0.165039 0.000000 -0.395234 0.308199 0.000000 0.000000 0.606350 0.000000 0.395234 0.308199 0.000000 0.471441 0.165039 0.000000 0.152580 0.249751 0.000000 -0.474599 0.690163 0.000000 -1.062739 0.954278 0.000000 -0.306413 -0.152817 0.000000 -0.085930 -0.853178 0.000000 -0.151056 -1.009599 0.000000 -0.372133 -1.053513 0.000000 -0.386800 -0.801227 0.000000 -0.452570 -0.590830 0.000000 -0.451383 -0.217545 0.000000 -0.402622 0.152129 0.000000 -0.316589 0.550225 0.000000 -0.168323 0.833166 0.000000 
-0.000000 0.758662 0.000000 0.185896 0.657417 0.000000 0.344381 0.419717 0.000000 0.443361 0.074834 0.000000 0.488981 -0.243586 0.000000 0.487192 -0.557220 0.000000 0.419326 -0.751939 0.000000 0.372589 -0.904243 0.000000 0.166853 -0.958732 0.000000 0.174116 -0.860011 0.000000 -0.029951 -0.790719 0.000000 0.573826 0.070424 0.000000 0.994360 0.953875 0.000000 1.072524 1.183028 0.000000 1.017746 0.911052 0.000000 0.432133 0.335771 0.000000 -0.000000 0.162001 0.000000 -0.432133 0.335771 0.000000 -1.017746 0.911052 0.000000 -1.072524 1.183028 0.000000 -0.994360 0.953875 0.000000 -0.573826 0.070424 0.000000 0.029951 -0.790719 0.000000 -0.174116 -0.860011 0.000000 -0.166853 -0.958732 0.000000 -0.372589 -0.904243 0.000000 -0.419326 -0.751939 0.000000 -0.487192 -0.557220 0.000000 -0.488981 -0.243586 0.000000 -0.443361 0.074834 0.000000 -0.344381 0.419717 0.000000 -0.185896 0.657417 0.000000 
-0.000000 0.573381 0.000000 0.183962 0.488786 0.000000 0.335885 0.292759 0.000000 0.438208 0.007529 0.000000 0.475994 -0.261376 0.000000 0.483847 -0.521176 0.000000 0.422784 -0.686624 0.000000 0.391350 -0.801040 0.000000 0.272987 -0.811126 0.000000 0.219189 -0.656374 0.000000 0.093933 -0.552527 0.000000 -0.016581 -0.070033 0.000000 0.365848 0.191465 0.000000 0.733620 0.226364 0.000000 1.101600 0.805430 0.000000 0.760367 1.325945 0.000000 -0.000000 1.470616 0.000000 -0.760367 1.325945 0.000000 -1.101600 0.805430 0.000000 -0.733620 0.226364 0.000000 -0.365848 0.191465 0.000000 0.016581 -0.070033 0.000000 -0.093933 -0.552527 0.000000 -0.219189 -0.656374 0.000000 -0.272987 -0.811126 0.000000 -0.391350 -0.801040 0.000000 -0.422784 -0.686624 0.000000 -0.483847 -0.521176 0.000000 -0.475994 -0.261376 0.000000 -0.438208 0.007529 0.000000 -0.335885 0.292759 0.000000 -0.183962 0.488786 0.000000 
-0.000000 0.390738 0.000000 0.164368 0.321532 0.000000 0.297506 0.165470 0.000000 0.386698 -0.065276 0.000000 0.415292 -0.289224 0.000000 0.416481 -0.504010 0.000000 0.362099 -0.659442 0.000000 0.331781 -0.754446 0.000000 0.245849 -0.786572 0.000000 0.229583 -0.680957 0.000000 0.210395 -0.554949 0.000000 0.183941 -0.201491 0.000000 0.392440 0.203675 0.000000 0.360703 0.447275 0.000000 0.326245 0.884305 0.000000 0.272538 1.437371 0.000000 -0.000000 1.682735 0.000000 -0.272538 1.437371 0.000000 -0.326245 0.884305 0.000000 -0.360703 0.447275 0.000000 -0.392440 0.203675 0.000000 -0.183941 -0.201491 0.000000 -0.210395 -0.554949 0.000000 -0.229583 -0.680957 0.000000 -0.245849 -0.786572 0.000000 -0.331781 -0.754446 0.000000 -0.362099 -0.659442 0.000000 -0.416481 -0.504010 0.000000 -0.415292 -0.289224 0.000000 -0.386698 -0.065276 0.000000 -0.297506 0.165470 0.000000 -0.164368 0.321532 0.000000 
-0.000000 0.244646 0.000000 0.132270 0.191280 0.000000 0.235509 0.070429 0.000000 0.302959 -0.110257 0.000000 0.314479 -0.291159 0.000000 0.303891 -0.467984 0.000000 0.246205 -0.601924 0.000000 0.200247 -0.684790 0.000000 0.122458 -0.708928 0.000000 0.069667 -0.620920 0.000000 0.029319 -0.506885 0.000000 -0.020365 -0.252077 0.000000 0.064543 0.014703 0.000000 0.127475 0.292559 0.000000 0.118503 0.893595 0.000000 0.110553 1.652190 0.000000 -0.000000 2.015692 0.000000 -0.110553 1.652190 0.000000 -0.118503 0.893595 0.000000 -0.127475 0.292559 0.000000 -0.064543 0.014703 0.000000 0.020365 -0.252077 0.000000 -0.029319 -0.506885 0.000000 -0.069667 -0.620920 0.000000 -0.122458 -0.708928 0.000000 -0.200247 -0.684790 0.000000 -0.246205 -0.601924 0.000000 -0.303891 -0.467984 0.000000 -0.314479 -0.291159 0.000000 -0.302959 -0.110257 0.000000 -0.235509 0.070429 0.000000 -0.132270 0.191280 0.000000 
-0.000000 0.126198 0.000000 0.095114 0.086023 0.000000 0.165305 -0.005219 0.000000 0.205195 -0.144245 0.000000 0.196675 -0.290156 0.000000 0.166795 -0.435736 0.000000 0.095617 -0.555798 0.000000 0.029167 -0.630699 0.000000 -0.062317 -0.655992 0.000000 -0.131491 -0.587817 0.000000 -0.187658 -0.464917 0.000000 -0.243981 -0.236715 0.000000 -0.234651 0.055834 0.000000 -0.271066 0.393316 0.000000 -0.300995 0.901228 0.000000 -0.186963 1.555874 0.000000 0.000000 1.903841 0.000000 0.186963 1.555874 0.000000 0.300995 0.901228 0.000000 0.271066 0.393316 0.000000 0.234651 0.055834 0.000000 0.243981 -0.236715 0.000000 0.187658 -0.464917 0.000000 0.131491 -0.587817 0.000000 0.062317 -0.655992 0.000000 -0.029167 -0.630699 0.000000 -0.095617 -0.555798 0.000000 -0.166795 -0.435736 0.000000 -0.196675 -0.290156 0.000000 -0.205195 -0.144245 0.000000 -0.165305 -0.005219 0.000000 -0.095114 0.086023 0.000000 
-0.000000 0.054419 0.000000 0.057308 0.025975 0.000000 0.092879 -0.039652 0.000000 0.102171 -0.141627 0.000000 0.066948 -0.252759 0.000000 0.007460 -0.366926 0.000000 -0.092940 -0.464295 0.000000 -0.201675 -0.526857 0.000000 -0.331105 -0.548270 0.000000 -0.450077 -0.495579 0.000000 -0.549150 -0.394396 0.000000 -0.628258 -0.205084 0.000000 -0.646402 0.041789 0.000000 -0.633605 0.358903 0.000000 -0.568194 0.809491 0.000000 -0.363340 1.351195 0.000000 0.000000 1.641765 0.000000 0.363340 1.351195 0.000000 0.568194 0.809491 0.000000 0.633605 0.358903 0.000000 0.646402 0.041789 0.000000 0.628258 -0.205084 0.000000 0.549150 -0.394396 0.000000 0.450077 -0.495579 0.000000 0.331105 -0.548270 0.000000 0.201675 -0.526857 0.000000 0.092940 -0.464295 0.000000 -0.007460 -0.366926 0.000000 -0.066948 -0.252759 0.000000 -0.102171 -0.141627 0.000000 -0.092879 -0.039652 0.000000 -0.057308 0.025975 0.000000 
-0.000000 0.011581 0.000000 0.027366 -0.006856 0.000000 0.035355 -0.050082 0.000000 0.018612 -0.118314 0.000000 -0.041008 -0.195445 0.000000 -0.129347 -0.275848 0.000000 -0.261386 -0.346663 0.000000 -0.409986 -0.392534 0.000000 -0.580242 -0.407590 0.000000 -0.741891 -0.369772 0.000000 -0.878906 -0.286735 0.000000 -0.982866 -0.139463 0.000000 -1.009989 0.061181 0.000000 -0.975727 0.315108 0.000000 -0.825448 0.630962 0.000000 -0.511064 0.987680 0.000000 0.000000 1.177161 0.000000 0.511064 0.987680 0.000000 0.825448 0.630962 0.000000 0.975727 0.315108 0.000000 1.009989 0.061181 0.000000 0.982866 -0.139463 0.000000 0.878906 -0.286735 0.000000 0.741891 -0.369772 0.000000 0.580242 -0.407590 0.000000 0.409986 -0.392534 0.000000 0.261386 -0.346663 0.000000 0.129347 -0.275848 0.000000 0.041008 -0.195445 0.000000 -0.018612 -0.118314 0.000000 -0.035355 -0.050082 0.000000 -0.027366 -0.006856 0.000000 
-0.000000 -0.000314 0.000000 0.005791 -0.009380 0.000000 -0.006856 -0.030898 0.000000 -0.044291 -0.065263 0.000000 -0.125170 -0.104800 0.000000 -0.239736 -0.146548 0.000000 -0.401018 -0.183656 0.000000 -0.586399 -0.208001 0.000000 -0.793552 -0.216365 0.000000 -0.993989 -0.196915 0.000000 -1.163324 -0.153420 0.000000 -1.280724 -0.074001 0.000000 -1.302788 0.034649 0.000000 -1.219543 0.174362 0.000000 -0.987680 0.344828 0.000000 -0.588580 0.525748 0.000000 0.000000 0.619638 0.000000 0.588580 0.525748 0.000000 0.987680 0.344828 0.000000 1.219543 0.174362 0.000000 1.302788 0.034649 0.000000 1.280724 -0.074001 0.000000 1.163324 -0.153420 0.000000 0.993989 -0.196915 0.000000 0.793552 -0.216365 0.000000 0.586399 -0.208001 0.000000 0.401018 -0.183656 0.000000 0.239736 -0.146548 0.000000 0.125170 -0.104800 0.000000 0.044291 -0.065263 0.000000 0.006856 -0.030898 0.000000 -0.005791 -0.009380 0.000000 
