# vtk DataFile Version 2.0
Comment goes here
ASCII

DATASET STRUCTURED_POINTS
FIELD FieldData 1
TIME 1 1 double
0.88000000
DIMENSIONS    32   32   1

ORIGIN    0.000   0.000   0.000
SPACING   0.03125 0.03125   1.000

POINT_DATA   1024
VECTORS u double

0.000000 -0.000000 0.000000 0.009987 -0.000000 0.000000 0.010635 -0.000000 0.000000 -0.021945 -0.000000 0.000000 -0.075561 -0.000000 0.000000 -0.184932 -0.000000 0.000000 -0.314754 -0.000000 0.000000 -0.507865 -0.000000 0.000000 -0.698653 -0.000000 0.000000 -0.934047 -0.000000 0.000000 -1.114012 -0.000000 0.000000 -1.289940 -0.000000 0.000000 -1.336095 -0.000000 0.000000 -1.297826 -0.000000 0.000000 -1.056731 -0.000000 0.000000 -0.642886 0.000000 0.000000 0.000000 0.000000 0.000000 0.642886 -0.000000 0.000000 1.056731 -0.000000 0.000000 1.297826 0.000000 0.000000 1.336095 -0.000000 0.000000 1.289940 0.000000 0.000000 1.114012 0.000000 0.000000 0.934047 0.000000 0.000000 0.698653 0.000000 0.000000 0.507865 0.000000 0.000000 0.314754 0.000000 0.000000 0.184932 0.000000 0.000000 0.075561 0.000000 0.000000 0.021945 0.000000 0.000000 -0.010635 0.000000 0.000000 -0.009987 -0.000000 0.000000 
-0.000000 -0.009987 0.000000 0.015662 -0.005317 0.000000 0.021971 0.015966 0.000000 -0.005105 0.043098 0.000000 -0.051777 0.081493 0.000000 -0.152619 0.119596 0.000000 -0.270065 0.161467 0.000000 -0.448234 0.191950 0.000000 -0.620162 0.213091 0.000000 -0.836440 0.207679 0.000000 -0.996968 0.177947 0.000000 -1.161160 0.111042 0.000000 -1.204812 0.003943 0.000000 -1.182378 -0.139682 0.000000 -0.975846 -0.327470 0.000000 -0.604946 -0.528365 0.000000 0.000000 -0.642886 0.000000 0.604946 -0.528365 0.000000 0.975846 -0.327470 0.000000 1.182378 -0.139682 0.000000 1.204812 0.003943 0.000000 1.161160 0.111042 0.000000 0.996968 0.177947 0.000000 0.836440 0.207679 0.000000 0.620162 0.213091 0.000000 0.448234 0.191950 0.000000 0.270065 0.161467 0.000000 0.152619 0.119596 0.000000 0.051777 0.081493 0.000000 0.005105 0.043098 0.000000 -0.021971 0.015966 0.000000 -0.015662 -0.005317 0.000000 
0.000000 -0.031324 0.000000 0.033592 -0.021971 0.000000 0.056584 0.020767 0.000000 0.045826 0.073748 0.000000 0.015723 0.147514 0.000000 -0.063654 0.218288 0.000000 -0.155249 0.295615 0.000000 -0.299264 0.350097 0.000000 -0.434023 0.388206 0.000000 -0.611625 0.376806 0.000000 -0.737605 0.324720 0.000000 -0.887421 0.207844 0.000000 -0.938539 0.021218 0.000000 -0.960090 -0.228966 0.000000 -0.830997 -0.577432 0.000000 -0.531482 -0.975846 0.000000 0.000000 -1.209892 0.000000 0.531482 -0.975846 0.000000 0.830997 -0.577432 0.000000 0.960090 -0.228966 0.000000 0.938539 0.021218 0.000000 0.887421 0.207844 0.000000 0.737605 0.324720 0.000000 0.611625 0.376806 0.000000 0.434023 0.388206 0.000000 0.299264 0.350097 0.000000 0.155249 0.295615 0.000000 0.063654 0.218288 0.000000 -0.015723 0.147514 0.000000 -0.045826 0.073748 0.000000 -0.056584 0.020767 0.000000 -0.033592 -0.021971 0.000000 
-0.000000 -0.077171 0.000000 0.060149 -0.061901 0.000000 0.107482 0.003731 0.000000 0.118203 0.083959 0.000000 0.109414 0.190974 0.000000 0.054874 0.290568 0.000000 -0.004296 0.397077 0.000000 -0.105804 0.470724 0.000000 -0.188667 0.525452 0.000000 -0.310140 0.511262 0.000000 -0.374906 0.453742 0.000000 -0.483821 0.311976 0.000000 -0.505407 0.076612 0.000000 -0.553674 -0.247224 0.000000 -0.523208 -0.756078 0.000000 -0.350429 -1.359362 0.000000 0.000000 -1.705850 0.000000 0.350429 -1.359362 0.000000 0.523208 -0.756078 0.000000 0.553674 -0.247224 0.000000 0.505407 0.076612 0.000000 0.483821 0.311976 0.000000 0.374906 0.453742 0.000000 0.310140 0.511262 0.000000 0.188667 0.525452 0.000000 0.105804 0.470724 0.000000 0.004296 0.397077 0.000000 -0.054874 0.290568 0.000000 -0.109414 0.190974 0.000000 -0.118203 0.083959 0.000000 -0.107482 0.003731 0.000000 -0.060149 -0.061901 0.000000 
0.000000 -0.151621 0.000000 0.094815 -0.129453 0.000000 0.172867 -0.037287 0.000000 0.208955 0.071816 0.000000 0.221072 0.210842 0.000000 0.189033 0.331999 0.000000 0.154195 0.456293 0.000000 0.089054 0.534468 0.000000 0.045653 0.592543 0.000000 -0.027705 0.563045 0.000000 -0.040131 0.498401 0.000000 -0.130101 0.338345 0.000000 -0.135388 0.091071 0.000000 -0.218542 -0.211166 0.000000 -0.247694 -0.780678 0.000000 -0.135728 -1.499053 0.000000 0.000000 -1.910750 0.000000 0.135728 -1.499053 0.000000 0.247694 -0.780678 0.000000 0.218542 -0.211166 0.000000 0.135388 0.091071 0.000000 0.130101 0.338345 0.000000 0.040131 0.498401 0.000000 0.027705 0.563045 0.000000 -0.045653 0.592543 0.000000 -0.089054 0.534468 0.000000 -0.154195 0.456293 0.000000 -0.189033 0.331999 0.000000 -0.221072 0.210842 0.000000 -0.208955 0.071816 0.000000 -0.172867 -0.037287 0.000000 -0.094815 -0.129453 0.000000 
-0.000000 -0.266801 0.000000 0.130653 -0.234768 0.000000 0.239848 -0.110409 0.000000 0.298380 0.035753 0.000000 0.326211 0.210896 0.000000 0.305226 0.357445 0.000000 0.280590 0.497056 0.000000 0.232397 0.579266 0.000000 0.207928 0.642210 0.000000 0.167610 0.597046 0.000000 0.207457 0.556139 0.000000 0.155825 0.407232 0.000000 0.285989 0.165053 0.000000 0.299409 -0.134918 0.000000 0.271893 -0.838892 0.000000 0.233588 -1.607056 0.000000 0.000000 -1.977306 0.000000 -0.233588 -1.607056 0.000000 -0.271893 -0.838892 0.000000 -0.299409 -0.134918 0.000000 -0.285989 0.165053 0.000000 -0.155825 0.407232 0.000000 -0.207457 0.556139 0.000000 -0.167610 0.597046 0.000000 -0.207928 0.642210 0.000000 -0.232397 0.579266 0.000000 -0.280590 0.497056 0.000000 -0.305226 0.357445 0.000000 -0.326211 0.210896 0.000000 -0.298380 0.035753 0.000000 -0.239848 -0.110409 0.000000 -0.130653 -0.234768 0.000000 
0.000000 -0.412927 0.000000 0.164585 -0.369301 0.000000 0.303936 -0.205015 0.000000 0.382880 -0.014547 0.000000 0.424327 0.203996 0.000000 0.410347 0.377620 0.000000 0.386014 0.529123 0.000000 0.346610 0.607129 0.000000 0.316014 0.657330 0.000000 0.305824 0.563516 0.000000 0.397991 0.510187 0.000000 0.330430 0.259812 0.000000 0.432004 -0.052514 0.000000 0.359646 -0.197070 0.000000 0.486886 -0.714857 0.000000 0.475092 -1.227160 0.000000 -0.000000 -1.443573 0.000000 -0.475092 -1.227160 0.000000 -0.486886 -0.714857 0.000000 -0.359646 -0.197070 0.000000 -0.432004 -0.052514 0.000000 -0.330430 0.259812 0.000000 -0.397991 0.510187 0.000000 -0.305824 0.563516 0.000000 -0.316014 0.657330 0.000000 -0.346610 0.607129 0.000000 -0.386014 0.529123 0.000000 -0.410347 0.377620 0.000000 -0.424327 0.203996 0.000000 -0.382880 -0.014547 0.000000 -0.303936 -0.205015 0.000000 -0.164585 -0.369301 0.000000 
0.000000 -0.595972 0.000000 0.187083 -0.538704 0.000000 0.346480 -0.328703 0.000000 0.435686 -0.084638 0.000000 0.482865 0.183429 0.000000 0.462446 0.395758 0.000000 0.425926 0.560793 0.000000 0.369550 0.649266 0.000000 0.292039 0.682996 0.000000 0.269444 0.515069 0.000000 0.282324 0.531533 0.000000 0.193668 0.373220 0.000000 0.663387 0.135837 0.000000 1.155990 -0.189800 0.000000 1.329364 -0.954338 0.000000 0.770903 -1.120171 0.000000 0.000000 -1.027121 0.000000 -0.770903 -1.120171 0.000000 -1.329364 -0.954338 0.000000 -1.155990 -0.189800 0.000000 -0.663387 0.135837 0.000000 -0.193668 0.373220 0.000000 -0.282324 0.531533 0.000000 -0.269444 0.515069 0.000000 -0.292039 0.682996 0.000000 -0.369550 0.649266 0.000000 -0.425926 0.560793 0.000000 -0.462446 0.395758 0.000000 -0.482865 0.183429 0.000000 -0.435686 -0.084638 0.000000 -0.346480 -0.328703 0.000000 -0.187083 -0.538704 0.000000 
0.000000 -0.787093 0.000000 0.194269 -0.715781 0.000000 0.362570 -0.453618 0.000000 0.451845 -0.150932 0.000000 0.505557 0.177236 0.000000 0.478643 0.434559 0.000000 0.436751 0.622018 0.000000 0.366385 0.741016 0.000000 0.191949 0.757436 0.000000 0.189400 0.573232 0.000000 0.324048 0.585963 0.000000 0.978145 -0.121251 0.000000 1.353872 -1.014836 0.000000 1.364346 -0.863047 0.000000 0.914291 -0.329770 0.000000 0.318422 0.102205 0.000000 -0.000000 0.098234 0.000000 -0.318422 0.102205 0.000000 -0.914291 -0.329770 0.000000 -1.364346 -0.863047 0.000000 -1.353872 -1.014836 0.000000 -0.978145 -0.121251 0.000000 -0.324048 0.585963 0.000000 -0.189400 0.573232 0.000000 -0.191949 0.757436 0.000000 -0.366385 0.741016 0.000000 -0.436751 0.622018 0.000000 -0.478643 0.434559 0.000000 -0.505557 0.177236 0.000000 -0.451845 -0.150932 0.000000 -0.362570 -0.453618 0.000000 -0.194269 -0.715781 0.000000 
0.000000 -0.984510 0.000000 0.182507 -0.901274 0.000000 0.340800 -0.586279 0.000000 0.417613 -0.227626 0.000000 0.470336 0.156632 0.000000 0.426020 0.464564 0.000000 0.389616 0.673051 0.000000 0.275802 0.894068 0.000000 -0.005152 0.859981 0.000000 0.086354 0.382970 0.000000 0.385836 -0.257212 0.000000 0.752086 -0.656605 0.000000 0.078566 -0.250364 0.000000 -0.405228 0.249781 0.000000 -0.615183 0.091586 0.000000 -0.311925 -0.205880 0.000000 -0.000000 -0.390278 0.000000 0.311925 -0.205880 0.000000 0.615183 0.091586 0.000000 0.405228 0.249781 0.000000 -0.078566 -0.250364 0.000000 -0.752086 -0.656605 0.000000 -0.385836 -0.257212 0.000000 -0.086354 0.382970 0.000000 0.005152 0.859981 0.000000 -0.275802 0.894068 0.000000 -0.389616 0.673051 0.000000 -0.426020 0.464564 0.000000 -0.470336 0.156632 0.000000 -0.417613 -0.227626 0.000000 -0.340800 -0.586279 0.000000 -0.182507 -0.901274 0.000000 
0.000000 -1.152106 0.000000 0.146559 -1.056581 0.000000 0.276463 -0.688724 0.000000 0.326992 -0.280469 0.000000 0.389819 0.168829 0.000000 0.334614 0.515280 0.000000 0.373449 0.772236 0.000000 0.179430 1.135784 0.000000 -0.389377 0.946885 0.000000 -0.114875 0.182244 0.000000 0.065207 -0.079770 0.000000 -0.253893 0.186018 0.000000 -0.377924 0.142478 0.000000 0.109024 -0.169298 0.000000 0.392271 -0.423073 0.000000 0.349412 -0.512978 0.000000 -0.000000 -0.525617 0.000000 -0.349412 -0.512978 0.000000 -0.392271 -0.423073 0.000000 -0.109024 -0.169298 0.000000 0.377924 0.142478 0.000000 0.253893 0.186018 0.000000 -0.065207 -0.079770 0.000000 0.114875 0.182244 0.000000 0.389377 0.946885 0.000000 -0.179430 1.135784 0.000000 -0.373449 0.772236 0.000000 -0.334614 0.515280 0.000000 -0.389819 0.168829 0.000000 -0.326992 -0.280469 0.000000 -0.276463 -0.688724 0.000000 -0.146559 -1.056581 0.000000 
0.000000 -1.277628 0.000000 0.087196 -1.177737 0.000000 0.162564 -0.766712 0.000000 0.188213 -0.340982 0.000000 0.247223 0.149010 0.000000 0.173517 0.480934 0.000000 0.246503 0.828235 0.000000 -0.438826 1.656894 0.000000 -0.812494 1.154286 0.000000 0.255382 -0.071614 0.000000 0.077187 -0.118194 0.000000 0.314656 -0.213474 0.000000 0.554557 -0.613281 0.000000 0.629929 -0.520414 0.000000 0.489325 -0.148801 0.000000 0.294006 0.186392 0.000000 0.000000 0.308545 0.000000 -0.294006 0.186392 0.000000 -0.489325 -0.148801 0.000000 -0.629929 -0.520414 0.000000 -0.554557 -0.613281 0.000000 -0.314656 -0.213474 0.000000 -0.077187 -0.118194 0.000000 -0.255382 -0.071614 0.000000 0.812494 1.154286 0.000000 0.438826 1.656894 0.000000 -0.246503 0.828235 0.000000 -0.173517 0.480934 0.000000 -0.247223 0.149010 0.000000 -0.188213 -0.340982 0.000000 -0.162564 -0.766712 0.000000 -0.087196 -1.177737 0.000000 
0.000000 -1.326498 0.000000 -0.016336 -1.219145 0.000000 -0.031549 -0.789741 0.000000 -0.053456 -0.365128 0.000000 -0.023610 0.183525 0.000000 -0.148883 0.515999 0.000000 -0.139850 1.384579 0.000000 -1.372071 2.194781 0.000000 -0.237338 0.252677 0.000000 1.174604 -0.707437 0.000000 0.369945 -0.139044 0.000000 0.451598 -0.291351 0.000000 0.139032 -0.172795 0.000000 0.001446 -0.104066 0.000000 -0.129568 -0.087150 0.000000 -0.075002 -0.023653 0.000000 0.000000 0.062395 0.000000 0.075002 -0.023653 0.000000 0.129568 -0.087150 0.000000 -0.001446 -0.104066 0.000000 -0.139032 -0.172795 0.000000 -0.451598 -0.291351 0.000000 -0.369945 -0.139044 0.000000 -1.174604 -0.707437 0.000000 0.237338 0.252677 0.000000 1.372071 2.194781 0.000000 0.139850 1.384579 0.000000 0.148883 0.515999 0.000000 0.023610 0.183525 0.000000 0.053456 -0.365128 0.000000 0.031549 -0.789741 0.000000 0.016336 -1.219145 0.000000 
0.000000 -1.244956 0.000000 -0.155938 -1.146188 0.000000 -0.298748 -0.729592 0.000000 -0.340975 -0.348921 0.000000 -0.386804 0.244437 0.000000 -0.290091 0.597174 0.000000 -0.487056 2.051423 0.000000 -0.747583 1.754383 0.000000 1.236735 -1.392389 0.000000 1.029764 -0.678897 0.000000 0.237973 0.604812 0.000000 0.065742 0.017439 0.000000 -0.054047 -0.163130 0.000000 -0.010471 -0.251814 0.000000 -0.011074 -0.072353 0.000000 -0.021407 0.056824 0.000000 -0.000000 0.158541 0.000000 0.021407 0.056824 0.000000 0.011074 -0.072353 0.000000 0.010471 -0.251814 0.000000 0.054047 -0.163130 0.000000 -0.065742 0.017439 0.000000 -0.237973 0.604812 0.000000 -1.029764 -0.678897 0.000000 -1.236735 -1.392389 0.000000 0.747583 1.754383 0.000000 0.487056 2.051423 0.000000 0.290091 0.597174 0.000000 0.386804 0.244437 0.000000 0.340975 -0.348921 0.000000 0.298748 -0.729592 0.000000 0.155938 -1.146188 0.000000 
-0.000000 -1.014622 0.000000 -0.338050 -0.920397 0.000000 -0.640699 -0.604703 0.000000 -0.736317 -0.277072 0.000000 -0.864458 0.132641 0.000000 -0.539978 0.616252 0.000000 -0.782630 1.842071 0.000000 0.443246 0.470989 0.000000 1.001189 -1.524670 0.000000 -0.173750 0.291326 0.000000 -0.010018 0.824978 0.000000 -0.018480 0.000668 0.000000 0.040433 -0.096582 0.000000 -0.061552 -0.147039 0.000000 -0.078677 -0.076214 0.000000 -0.072262 -0.034727 0.000000 0.000000 0.019581 0.000000 0.072262 -0.034727 0.000000 0.078677 -0.076214 0.000000 0.061552 -0.147039 0.000000 -0.040433 -0.096582 0.000000 0.018480 0.000668 0.000000 0.010018 0.824978 0.000000 0.173750 0.291326 0.000000 -1.001189 -1.524670 0.000000 -0.443246 0.470989 0.000000 0.782630 1.842071 0.000000 0.539978 0.616252 0.000000 0.864458 0.132641 0.000000 0.736317 -0.277072 0.000000 0.640699 -0.604703 0.000000 0.338050 -0.920397 0.000000 
-0.000000 -0.568856 0.000000 -0.507311 -0.505489 0.000000 -0.920397 -0.331325 0.000000 -1.112014 -0.125162 0.000000 -1.197469 0.048098 0.000000 -0.979374 0.515346 0.000000 -0.581217 1.068199 0.000000 0.862697 -0.029436 0.000000 -0.110228 -0.775393 0.000000 -0.661973 0.332310 0.000000 0.181098 0.449541 0.000000 0.163005 -0.033012 0.000000 0.181766 -0.120058 0.000000 0.066423 -0.132704 0.000000 0.034727 -0.061642 0.000000 -0.009791 -0.021853 0.000000 -0.000000 0.014016 0.000000 0.009791 -0.021853 0.000000 -0.034727 -0.061642 0.000000 -0.066423 -0.132704 0.000000 -0.181766 -0.120058 0.000000 -0.163005 -0.033012 0.000000 -0.181098 0.449541 0.000000 0.661973 0.332310 0.000000 0.110228 -0.775393 0.000000 -0.862697 -0.029436 0.000000 0.581217 1.068199 0.000000 0.979374 0.515346 0.000000 1.197469 0.048098 0.000000 1.112014 -0.125162 0.000000 0.920397 -0.331325 0.000000 0.507311 -0.505489 0.000000 
-0.000000 -0.000000 0.000000 -0.568856 -0.000000 0.000000 -1.010978 -0.000000 0.000000 -1.231506 -0.000000 0.000000 -1.261302 -0.000000 0.000000 -1.135311 -0.000000 0.000000 -0.230610 -0.000000 0.000000 1.001087 0.000000 0.000000 -0.289482 0.000000 0.000000 -0.549699 0.000000 0.000000 0.375138 -0.000000 0.000000 0.349384 0.000000 0.000000 0.309114 0.000000 0.000000 0.109268 0.000000 0.000000 0.043706 -0.000000 0.000000 -0.014016 0.000000 0.000000 -0.000000 0.000000 0.000000 0.014016 0.000000 0.000000 -0.043706 0.000000 0.000000 -0.109268 0.000000 0.000000 -0.309114 -0.000000 0.000000 -0.349384 0.000000 0.000000 -0.375138 0.000000 0.000000 0.549699 -0.000000 0.000000 0.289482 -0.000000 0.000000 -1.001087 -0.000000 0.000000 0.230610 0.000000 0.000000 1.135311 0.000000 0.000000 1.261302 0.000000 0.000000 1.231506 0.000000 0.000000 1.010978 0.000000 0.000000 0.568856 0.000000 0.000000 
0.000000 0.568856 0.000000 -0.507311 0.505489 0.000000 -0.920397 0.331325 0.000000 -1.112014 0.125162 0.000000 -1.197469 -0.048098 0.000000 -0.979374 -0.515346 0.000000 -0.581217 -1.068199 0.000000 0.862697 0.029436 0.000000 -0.110228 0.775393 0.000000 -0.661973 -0.332310 0.000000 0.181098 -0.449541 0.000000 0.163005 0.033012 0.000000 0.181766 0.120058 0.000000 0.066423 0.132704 0.000000 0.034727 0.061642 0.000000 -0.009791 0.021853 0.000000 -0.000000 -0.014016 0.000000 0.009791 0.021853 0.000000 -0.034727 0.061642 0.000000 -0.066423 0.132704 0.000000 -0.181766 0.120058 0.000000 -0.163005 0.033012 0.000000 -0.181098 -0.449541 0.000000 0.661973 -0.332310 0.000000 0.110228 0.775393 0.000000 -0.862697 0.029436 0.000000 0.581217 -1.068199 0.000000 0.979374 -0.515346 0.000000 1.197469 -0.048098 0.000000 1.112014 0.125162 0.000000 0.920397 0.331325 0.000000 0.507311 0.505489 0.000000 
0.000000 1.014622 0.000000 -0.338050 0.920397 0.000000 -0.640699 0.604703 0.000000 -0.736317 0.277072 0.000000 -0.864458 -0.132641 0.000000 -0.539978 -0.616252 0.000000 -0.782630 -1.842071 0.000000 0.443246 -0.470989 0.000000 1.001189 1.524670 0.000000 -0.173750 -0.291326 0.000000 -0.010018 -0.824978 0.000000 -0.018480 -0.000668 0.000000 0.040433 0.096582 0.000000 -0.061552 0.147039 0.000000 -0.078677 0.076214 0.000000 -0.072262 0.034727 0.000000 -0.000000 -0.019581 0.000000 0.072262 0.034727 0.000000 0.078677 0.076214 0.000000 0.061552 0.147039 0.000000 -0.040433 0.096582 0.000000 0.018480 -0.000668 0.000000 0.010018 -0.824978 0.000000 0.173750 -0.291326 0.000000 -1.001189 1.524670 0.000000 -0.443246 -0.470989 0.000000 0.782630 -1.842071 0.000000 0.539978 -0.616252 0.000000 0.864458 -0.132641 0.000000 0.736317 0.277072 0.000000 0.640699 0.604703 0.000000 0.338050 0.920397 0.000000 
-0.000000 1.244956 0.000000 -0.155938 1.146188 0.000000 -0.298748 0.729592 0.000000 -0.340975 0.348921 0.000000 -0.386804 -0.244437 0.000000 -0.290091 -0.597174 0.000000 -0.487056 -2.051423 0.000000 -0.747583 -1.754383 0.000000 1.236735 1.392389 0.000000 1.029764 0.678897 0.000000 0.237973 -0.604812 0.000000 0.065742 -0.017439 0.000000 -0.054047 0.163130 0.000000 -0.010471 0.251814 0.000000 -0.011074 0.072353 0.000000 -0.021407 -0.056824 0.000000 -0.000000 -0.158541 0.000000 0.021407 -0.056824 0.000000 0.011074 0.072353 0.000000 0.010471 0.251814 0.000000 0.054047 0.163130 0.000000 -0.065742 -0.017439 0.000000 -0.237973 -0.604812 0.000000 -1.029764 0.678897 0.000000 -1.236735 1.392389 0.000000 0.747583 -1.754383 0.000000 0.487056 -2.051423 0.000000 0.290091 -0.597174 0.000000 0.386804 -0.244437 0.000000 0.340975 0.348921 0.000000 0.298748 0.729592 0.000000 0.155938 1.146188 0.000000 
-0.000000 1.326498 0.000000 -0.016336 1.219145 0.000000 -0.031549 0.789741 0.000000 -0.053456 0.365128 0.000000 -0.023610 -0.183525 0.000000 -0.148883 -0.515999 0.000000 -0.139850 -1.384579 0.000000 -1.372071 -2.194781 0.000000 -0.237338 -0.252677 0.000000 1.174604 0.707437 0.000000 0.369945 0.139044 0.000000 0.451598 0.291351 0.000000 0.139032 0.172795 0.000000 0.001446 0.104066 0.000000 -0.129568 0.087150 0.000000 -0.075002 0.023653 0.000000 -0.000000 -0.062395 0.000000 0.075002 0.023653 0.000000 0.129568 0.087150 0.000000 -0.001446 0.104066 0.000000 -0.139032 0.172795 0.000000 -0.451598 0.291351 0.000000 -0.369945 0.139044 0.000000 -1.174604 0.707437 0.000000 0.237338 -0.252677 0.000000 1.372071 -2.194781 0.000000 0.139850 -1.384579 0.000000 0.148883 -0.515999 0.000000 0.023610 -0.183525 0.000000 0.053456 0.365128 0.000000 0.031549 0.789741 0.000000 0.016336 1.219145 0.000000 
-0.000000 1.277628 0.000000 0.087196 1.177737 0.000000 0.162564 0.766712 0.000000 0.188213 0.340982 0.000000 0.247223 -0.149010 0.000000 0.173517 -0.480934 0.000000 0.246503 -0.828235 0.000000 -0.438826 -1.656894 0.000000 -0.812494 -1.154286 0.000000 0.255382 0.071614 0.000000 0.077187 0.118194 0.000000 0.314656 0.213474 0.000000 0.554557 0.613281 0.000000 0.629929 0.520414 0.000000 0.489325 0.148801 0.000000 0.294006 -0.186392 0.000000 -0.000000 -0.308545 0.000000 -0.294006 -0.186392 0.000000 -0.489325 0.148801 0.000000 -0.629929 0.520414 0.000000 -0.554557 0.613281 0.000000 -0.314656 0.213474 0.000000 -0.077187 0.118194 0.000000 -0.255382 0.071614 0.000000 0.812494 -1.154286 0.000000 0.438826 -1.656894 0.000000 -0.246503 -0.828235 0.000000 -0.173517 -0.480934 0.000000 -0.247223 -0.149010 0.000000 -0.188213 0.340982 0.000000 -0.162564 0.766712 0.000000 -0.087196 1.177737 0.000000 
-0.000000 1.152106 0.000000 0.146559 1.056581 0.000000 0.276463 0.688724 0.000000 0.326992 0.280469 0.000000 0.389819 -0.168829 0.000000 0.334614 -0.515280 0.000000 0.373449 -0.772236 0.000000 0.179430 -1.135784 0.000000 -0.389377 -0.946885 0.000000 -0.114875 -0.182244 0.000000 0.065207 0.079770 0.000000 -0.253893 -0.186018 0.000000 -0.377924 -0.142478 0.000000 0.109024 0.169298 0.000000 0.392271 0.423073 0.000000 0.349412 0.512978 0.000000 0.000000 0.525617 0.000000 -0.349412 0.512978 0.000000 -0.392271 0.423073 0.000000 -0.109024 0.169298 0.000000 0.377924 -0.142478 0.000000 0.253893 -0.186018 0.000000 -0.065207 0.079770 0.000000 0.114875 -0.182244 0.000000 0.389377 -0.946885 0.000000 -0.179430 -1.135784 0.000000 -0.373449 -0.772236 0.000000 -0.334614 -0.515280 0.000000 -0.389819 -0.168829 0.000000 -0.326992 0.280469 0.000000 -0.276463 0.688724 0.000000 -0.146559 1.056581 0.000000 
-0.000000 0.984510 0.000000 0.182507 0.901274 0.000000 0.340800 0.586279 0.000000 0.417613 0.227626 0.000000 0.470336 -0.156632 0.000000 0.426020 -0.464564 0.000000 0.389616 -0.673051 0.000000 0.275802 -0.894068 0.000000 -0.005152 -0.859981 0.000000 0.086354 -0.382970 0.000000 0.385836 0.257212 0.000000 0.752086 0.656605 0.000000 0.078566 0.250364 0.000000 -0.405228 -0.249781 0.000000 -0.615183 -0.091586 0.000000 -0.311925 0.205880 0.000000 0.000000 0.390278 0.000000 0.311925 0.205880 0.000000 0.615183 -0.091586 0.000000 0.405228 -0.249781 0.000000 -0.078566 0.250364 0.000000 -0.752086 0.656605 0.000000 -0.385836 0.257212 0.000000 -0.086354 -0.382970 0.000000 0.005152 -0.859981 0.000000 -0.275802 -0.894068 0.000000 -0.389616 -0.673051 0.000000 -0.426020 -0.464564 0.000000 -0.470336 -0.156632 0.000000 -0.417613 0.227626 0.000000 -0.340800 0.586279 0.000000 -0.182507 0.901274 0.000000 
-0.000000 0.787093 0.000000 0.194269 0.715781 0.000000 0.362570 0.453618 0.000000 0.451845 0.150932 0.000000 0.505557 -0.177236 0.000000 0.478643 -0.434559 0.000000 0.436751 -0.622018 0.000000 0.366385 -0.741016 0.000000 0.191949 -0.757436 0.000000 0.189400 -0.573232 0.000000 0.324048 -0.585963 0.000000 0.978145 0.121251 0.000000 1.353872 1.014836 0.000000 1.364346 0.863047 0.000000 0.914291 0.329770 0.000000 0.318422 -0.102205 0.000000 0.000000 -0.098234 0.000000 -0.318422 -0.102205 0.000000 -0.914291 0.329770 0.000000 -1.364346 0.863047 0.000000 -1.353872 1.014836 0.000000 -0.978145 0.121251 0.000000 -0.324048 -0.585963 0.000000 -0.189400 -0.573232 0.000000 -0.191949 -0.757436 0.000000 -0.366385 -0.741016 0.000000 -0.436751 -0.622018 0.000000 -0.478643 -0.434559 0.000000 -0.505557 -0.177236 0.000000 -0.451845 0.150932 0.000000 -0.362570 0.453618 0.000000 -0.194269 0.715781 0.000000 
-0.000000 0.595972 0.000000 0.187083 0.538704 0.000000 0.346480 0.328703 0.000000 0.435686 0.084638 0.000000 0.482865 -0.183429 0.000000 0.462446 -0.395758 0.000000 0.425926 -0.560793 0.000000 0.369550 -0.649266 0.000000 0.292039 -0.682996 0.000000 0.269444 -0.515069 0.000000 0.282324 -0.531533 0.000000 0.193668 -0.373220 0.000000 0.663387 -0.135837 0.000000 1.155990 0.189800 0.000000 1.329364 0.954338 0.000000 0.770903 1.120171 0.000000 -0.000000 1.027121 0.000000 -0.770903 1.120171 0.000000 -1.329364 0.954338 0.000000 -1.155990 0.189800 0.000000 -0.663387 -0.135837 0.000000 -0.193668 -0.373220 0.000000 -0.282324 -0.531533 0.000000 -0.269444 -0.515069 0.000000 -0.292039 -0.682996 0.000000 -0.369550 -0.649266 0.000000 -0.425926 -0.560793 0.000000 -0.462446 -0.395758 0.000000 -0.482865 -0.183429 0.000000 -0.435686 0.084638 0.000000 -0.346480 0.328703 0.000000 -0.187083 0.538704 0.000000 
-0.000000 0.412927 0.000000 0.164585 0.369301 0.000000 0.303936 0.205015 0.000000 0.382880 0.014547 0.000000 0.424327 -0.203996 0.000000 0.410347 -0.377620 0.000000 0.386014 -0.529123 0.000000 0.346610 -0.607129 0.000000 0.316014 -0.657330 0.000000 0.305824 -0.563516 0.000000 0.397991 -0.510187 0.000000 0.330430 -0.259812 0.000000 0.432004 0.052514 0.000000 0.359646 0.197070 0.000000 0.486886 0.714857 0.000000 0.475092 1.227160 0.000000 -0.000000 1.443573 0.000000 -0.475092 1.227160 0.000000 -0.486886 0.714857 0.000000 -0.359646 0.197070 0.000000 -0.432004 0.052514 0.000000 -0.330430 -0.259812 0.000000 -0.397991 -0.510187 0.000000 -0.305824 -0.563516 0.000000 -0.316014 -0.657330 0.000000 -0.346610 -0.607129 0.000000 -0.386014 -0.529123 0.000000 -0.410347 -0.377620 0.000000 -0.424327 -0.203996 0.000000 -0.382880 0.014547 0.000000 -0.303936 0.205015 0.000000 -0.164585 0.369301 0.000000 
-0.000000 0.266801 0.000000 0.130653 0.234768 0.000000 0.239848 0.110409 0.000000 0.298380 -0.035753 0.000000 0.326211 -0.210896 0.000000 0.305226 -0.357445 0.000000 0.280590 -0.497056 0.000000 0.232397 -0.579266 0.000000 0.207928 -0.642210 0.000000 0.167610 -0.597046 0.000000 0.207457 -0.556139 0.000000 0.155825 -0.407232 0.000000 0.285989 -0.165053 0.000000 0.299409 0.134918 0.000000 0.271893 0.838892 0.000000 0.233588 1.607056 0.000000 -0.000000 1.977306 0.000000 -0.233588 1.607056 0.000000 -0.271893 0.838892 0.000000 -0.299409 0.134918 0.000000 -0.285989 -0.165053 0.000000 -0.155825 -0.407232 0.000000 -0.207457 -0.556139 0.000000 -0.167610 -0.597046 0.000000 -0.207928 -0.642210 0.000000 -0.232397 -0.579266 0.000000 -0.280590 -0.497056 0.000000 -0.305226 -0.357445 0.000000 -0.326211 -0.210896 0.000000 -0.298380 -0.035753 0.000000 -0.239848 0.110409 0.000000 -0.130653 0.234768 0.000000 
-0.000000 0.151621 0.000000 0.094815 0.129453 0.000000 0.172867 0.037287 0.000000 0.208955 -0.071816 0.000000 0.221072 -0.210842 0.000000 0.189033 -0.331999 0.000000 0.154195 -0.456293 0.000000 0.089054 -0.534468 0.000000 0.045653 -0.592543 0.000000 -0.027705 -0.563045 0.000000 -0.040131 -0.498401 0.000000 -0.130101 -0.338345 0.000000 -0.135388 -0.091071 0.000000 -0.218542 0.211166 0.000000 -0.247694 0.780678 0.000000 -0.135728 1.499053 0.000000 -0.000000 1.910750 0.000000 0.135728 1.499053 0.000000 0.247694 0.780678 0.000000 0.218542 0.211166 0.000000 0.135388 -0.091071 0.000000 0.130101 -0.338345 0.000000 0.040131 -0.498401 0.000000 0.027705 -0.563045 0.000000 -0.045653 -0.592543 0.000000 -0.089054 -0.534468 0.000000 -0.154195 -0.456293 0.000000 -0.189033 -0.331999 0.000000 -0.221072 -0.210842 0.000000 -0.208955 -0.071816 0.000000 -0.172867 0.037287 0.000000 -0.094815 0.129453 0.000000 
-0.000000 0.077171 0.000000 0.060149 0.061901 0.000000 0.107482 -0.003731 0.000000 0.118203 -0.083959 0.000000 0.109414 -0.190974 0.000000 0.054874 -0.290568 0.000000 -0.004296 -0.397077 0.000000 -0.105804 -0.470724 0.000000 -0.188667 -0.525452 0.000000 -0.310140 -0.511262 0.000000 -0.374906 -0.453742 0.000000 -0.483821 -0.311976 0.000000 -0.505407 -0.076612 0.000000 -0.553674 0.247224 0.000000 -0.523208 0.756078 0.000000 -0.350429 1.359362 0.000000 -0.000000 1.705850 0.000000 0.350429 1.359362 0.000000 0.523208 0.756078 0.000000 0.553674 0.247224 0.000000 0.505407 -0.076612 0.000000 0.483821 -0.311976 0.000000 0.374906 -0.453742 0.000000 0.310140 -0.511262 0.000000 0.188667 -0.525452 0.000000 0.105804 -0.470724 0.000000 0.004296 -0.397077 0.000000 -0.054874 -0.290568 0.000000 -0.109414 -0.190974 0.000000 -0.118203 -0.083959 0.000000 -0.107482 -0.003731 0.000000 -0.060149 0.061901 0.000000 
-0.000000 0.031324 0.000000 0.033592 0.021971 0.000000 0.056584 -0.020767 0.000000 0.045826 -0.073748 0.000000 0.015723 -0.147514 0.000000 -0.063654 -0.218288 0.000000 -0.155249 -0.295615 0.000000 -0.299264 -0.350097 0.000000 -0.434023 -0.388206 0.000000 -0.611625 -0.376806 0.000000 -0.737605 -0.324720 0.000000 -0.887421 -0.207844 0.000000 -0.938539 -0.021218 0.000000 -0.960090 0.228966 0.000000 -0.830997 0.577432 0.000000 -0.531482 0.975846 0.000000 -0.000000 1.209892 0.000000 0.531482 0.975846 0.000000 0.830997 0.577432 0.000000 0.960090 0.228966 0.000000 0.938539 -0.021218 0.000000 0.887421 -0.207844 0.000000 0.737605 -0.324720 0.000000 0.611625 -0.376806 0.000000 0.434023 -0.388206 0.000000 0.299264 -0.350097 0.000000 0.155249 -0.295615 0.000000 0.063654 -0.218288 0.000000 -0.015723 -0.147514 0.000000 -0.045826 -0.073748 0.000000 -0.056584 -0.020767 0.000000 -0.033592 0.021971 0.000000 
-0.000000 0.009987 0.000000 0.015662 0.005317 0.000000 0.021971 -0.015966 0.000000 -0.005105 -0.043098 0.000000 -0.051777 -0.081493 0.000000 -0.152619 -0.119596 0.000000 -0.270065 -0.161467 0.000000 -0.448234 -0.191950 0.000000 -0.620162 -0.213091 0.000000 -0.836440 -0.207679 0.000000 -0.996968 -0.177947 0.000000 -1.161160 -0.111042 0.000000 -1.204812 -0.003943 0.000000 -1.182378 0.139682 0.000000 -0.975846 0.327470 0.000000 -0.604946 0.528365 0.000000 -0.000000 0.642886 0.000000 0.604946 0.528365 0.000000 0.975846 0.327470 0.000000 1.182378 0.139682 0.000000 1.204812 -0.003943 0.000000 1.161160 -0.111042 0.000000 0.996968 -0.177947 0.000000 0.836440 -0.207679 0.000000 0.620162 -0.213091 0.000000 0.448234 -0.191950 0.000000 0.270065 -0.161467 0.000000 0.152619 -0.119596 0.000000 0.051777 -0.081493 0.000000 0.005105 -0.043098 0.000000 -0.021971 -0.015966 0.000000 -0.015662 0.005317 0.000000 
