# vtk DataFile Version 2.0
Comment goes here
ASCII

DATASET STRUCTURED_POINTS
FIELD FieldData 1
TIME 1 1 double
1.26000000
DIMENSIONS    32   32   1

ORIGIN    0.000   0.000   0.000
SPACING   0.03125 0.03125   1.000

POINT_DATA   1024
VECTORS u double

-0.000000 -0.000000 0.000000 0.016739 -0.000000 0.000000 0.020723 -0.000000 0.000000 -0.014016 -0.000000 0.000000 -0.076412 -0.000000 0.000000 -0.194108 -0.000000 0.000000 -0.334321 -0.000000 0.000000 -0.517188 -0.000000 0.000000 -0.697480 -0.000000 0.000000 -0.881083 0.000000 0.000000 -1.025773 0.000000 0.000000 -1.120923 0.000000 0.000000 -1.140731 0.000000 0.000000 -1.052414 0.000000 0.000000 -0.844741 0.000000 0.000000 -0.471522 0.000000 0.000000 0.000000 0.000000 0.000000 0.471522 -0.000000 0.000000 0.844741 -0.000000 0.000000 1.052414 -0.000000 0.000000 1.140731 -0.000000 0.000000 1.120923 -0.000000 0.000000 1.025773 -0.000000 0.000000 0.881083 -0.000000 0.000000 0.697480 -0.000000 0.000000 0.517188 -0.000000 0.000000 0.334321 0.000000 0.000000 0.194108 0.000000 0.000000 0.076412 0.000000 0.000000 0.014016 -0.000000 0.000000 -0.020723 -0.000000 0.000000 -0.016739 -0.000000 0.000000 
-0.000000 -0.016739 0.000000 0.025762 -0.010361 0.000000 0.038735 0.015377 0.000000 0.014053 0.048567 0.000000 -0.037802 0.090046 0.000000 -0.141965 0.128955 0.000000 -0.268053 0.161540 0.000000 -0.432684 0.181579 0.000000 -0.595939 0.181947 0.000000 -0.760099 0.164147 0.000000 -0.890714 0.119920 0.000000 -0.976371 0.057479 0.000000 -0.997601 -0.034255 0.000000 -0.925060 -0.147995 0.000000 -0.750959 -0.290446 0.000000 -0.418254 -0.422371 0.000000 0.000000 -0.471522 0.000000 0.418254 -0.422371 0.000000 0.750959 -0.290446 0.000000 0.925060 -0.147995 0.000000 0.997601 -0.034255 0.000000 0.976371 0.057479 0.000000 0.890714 0.119920 0.000000 0.760099 0.164147 0.000000 0.595939 0.181947 0.000000 0.432684 0.181579 0.000000 0.268053 0.161540 0.000000 0.141965 0.128955 0.000000 0.037802 0.090046 0.000000 -0.014053 0.048567 0.000000 -0.038735 0.015377 0.000000 -0.025762 -0.010361 0.000000 
-0.000000 -0.051524 0.000000 0.046132 -0.038735 0.000000 0.079740 0.011709 0.000000 0.074271 0.076538 0.000000 0.044693 0.156018 0.000000 -0.038312 0.230251 0.000000 -0.136881 0.290718 0.000000 -0.277064 0.327886 0.000000 -0.410034 0.327416 0.000000 -0.551355 0.294776 0.000000 -0.659869 0.216272 0.000000 -0.736628 0.106887 0.000000 -0.763888 -0.051311 0.000000 -0.719464 -0.246643 0.000000 -0.596482 -0.506806 0.000000 -0.321690 -0.750959 0.000000 0.000000 -0.836509 0.000000 0.321690 -0.750959 0.000000 0.596482 -0.506806 0.000000 0.719464 -0.246643 0.000000 0.763888 -0.051311 0.000000 0.736628 0.106887 0.000000 0.659869 0.216272 0.000000 0.551355 0.294776 0.000000 0.410034 0.327416 0.000000 0.277064 0.327886 0.000000 0.136881 0.290718 0.000000 0.038312 0.230251 0.000000 -0.044693 0.156018 0.000000 -0.074271 0.076538 0.000000 -0.079740 0.011709 0.000000 -0.046132 -0.038735 0.000000 
-0.000000 -0.109003 0.000000 0.078341 -0.090102 0.000000 0.143928 -0.012761 0.000000 0.169793 0.083614 0.000000 0.174010 0.202629 0.000000 0.127474 0.310529 0.000000 0.071105 0.400292 0.000000 -0.022452 0.454732 0.000000 -0.106690 0.456239 0.000000 -0.197659 0.413981 0.000000 -0.263538 0.305194 0.000000 -0.309186 0.161498 0.000000 -0.326238 -0.051419 0.000000 -0.323113 -0.315401 0.000000 -0.305747 -0.688221 0.000000 -0.151136 -1.018853 0.000000 0.000000 -1.114902 0.000000 0.151136 -1.018853 0.000000 0.305747 -0.688221 0.000000 0.323113 -0.315401 0.000000 0.326238 -0.051419 0.000000 0.309186 0.161498 0.000000 0.263538 0.305194 0.000000 0.197659 0.413981 0.000000 0.106690 0.456239 0.000000 0.022452 0.454732 0.000000 -0.071105 0.400292 0.000000 -0.127474 0.310529 0.000000 -0.174010 0.202629 0.000000 -0.169793 0.083614 0.000000 -0.143928 -0.012761 0.000000 -0.078341 -0.090102 0.000000 
-0.000000 -0.208205 0.000000 0.114077 -0.182663 0.000000 0.214809 -0.079743 0.000000 0.272158 0.046456 0.000000 0.310310 0.198337 0.000000 0.293807 0.333155 0.000000 0.276632 0.440645 0.000000 0.215134 0.505681 0.000000 0.172558 0.502623 0.000000 0.106989 0.451624 0.000000 0.065385 0.327799 0.000000 0.022287 0.169587 0.000000 -0.012720 -0.037384 0.000000 -0.056183 -0.267134 0.000000 -0.097974 -0.678783 0.000000 0.000383 -1.056705 0.000000 0.000000 -1.138780 0.000000 -0.000383 -1.056705 0.000000 0.097974 -0.678783 0.000000 0.056183 -0.267134 0.000000 0.012720 -0.037384 0.000000 -0.022287 0.169587 0.000000 -0.065385 0.327799 0.000000 -0.106989 0.451624 0.000000 -0.172558 0.502623 0.000000 -0.215134 0.505681 0.000000 -0.276632 0.440645 0.000000 -0.293807 0.333155 0.000000 -0.310310 0.198337 0.000000 -0.272158 0.046456 0.000000 -0.214809 -0.079743 0.000000 -0.114077 -0.182663 0.000000 
-0.000000 -0.337158 0.000000 0.147930 -0.304911 0.000000 0.281932 -0.170842 0.000000 0.368822 -0.011886 0.000000 0.438481 0.180980 0.000000 0.450577 0.344206 0.000000 0.469657 0.478965 0.000000 0.445496 0.558806 0.000000 0.444460 0.564384 0.000000 0.426249 0.521155 0.000000 0.418613 0.389896 0.000000 0.413064 0.239604 0.000000 0.451368 0.027051 0.000000 0.422980 -0.230147 0.000000 0.265069 -0.744787 0.000000 0.212488 -1.116827 0.000000 0.000000 -1.114135 0.000000 -0.212488 -1.116827 0.000000 -0.265069 -0.744787 0.000000 -0.422980 -0.230147 0.000000 -0.451368 0.027051 0.000000 -0.413064 0.239604 0.000000 -0.418613 0.389896 0.000000 -0.426249 0.521155 0.000000 -0.444460 0.564384 0.000000 -0.445496 0.558806 0.000000 -0.469657 0.478965 0.000000 -0.450577 0.344206 0.000000 -0.438481 0.180980 0.000000 -0.368822 -0.011886 0.000000 -0.281932 -0.170842 0.000000 -0.147930 -0.304911 0.000000 
-0.000000 -0.504065 0.000000 0.175734 -0.464596 0.000000 0.336677 -0.300636 0.000000 0.447109 -0.110093 0.000000 0.541754 0.116582 0.000000 0.572432 0.301980 0.000000 0.620146 0.445726 0.000000 0.611102 0.530878 0.000000 0.645730 0.521870 0.000000 0.635540 0.477471 0.000000 0.650508 0.340984 0.000000 0.642655 0.136832 0.000000 0.605792 -0.047300 0.000000 0.611788 -0.080835 0.000000 0.580184 -0.468291 0.000000 0.507839 -0.791636 0.000000 0.000000 -0.713805 0.000000 -0.507839 -0.791636 0.000000 -0.580184 -0.468291 0.000000 -0.611788 -0.080835 0.000000 -0.605792 -0.047300 0.000000 -0.642655 0.136832 0.000000 -0.650508 0.340984 0.000000 -0.635540 0.477471 0.000000 -0.645730 0.521870 0.000000 -0.611102 0.530878 0.000000 -0.620146 0.445726 0.000000 -0.572432 0.301980 0.000000 -0.541754 0.116582 0.000000 -0.447109 -0.110093 0.000000 -0.336677 -0.300636 0.000000 -0.175734 -0.464596 0.000000 
-0.000000 -0.688625 0.000000 0.186891 -0.641588 0.000000 0.359597 -0.442218 0.000000 0.477775 -0.216963 0.000000 0.585704 0.055657 0.000000 0.621848 0.265814 0.000000 0.690153 0.440295 0.000000 0.693237 0.533222 0.000000 0.757473 0.539945 0.000000 0.800719 0.516377 0.000000 0.806938 0.382782 0.000000 0.955037 0.284319 0.000000 1.140599 0.057918 0.000000 1.870095 -0.204539 0.000000 1.734694 -0.640838 0.000000 0.943179 -0.536642 0.000000 0.000000 -0.098458 0.000000 -0.943179 -0.536642 0.000000 -1.734694 -0.640838 0.000000 -1.870095 -0.204539 0.000000 -1.140599 0.057918 0.000000 -0.955037 0.284319 0.000000 -0.806938 0.382782 0.000000 -0.800719 0.516377 0.000000 -0.757473 0.539945 0.000000 -0.693237 0.533222 0.000000 -0.690153 0.440295 0.000000 -0.621848 0.265814 0.000000 -0.585704 0.055657 0.000000 -0.477775 -0.216963 0.000000 -0.359597 -0.442218 0.000000 -0.186891 -0.641588 0.000000 
-0.000000 -0.877848 0.000000 0.185814 -0.824192 0.000000 0.357092 -0.591519 0.000000 0.476891 -0.336201 0.000000 0.588397 -0.027491 0.000000 0.630271 0.197531 0.000000 0.715845 0.374336 0.000000 0.721170 0.463557 0.000000 0.831568 0.414388 0.000000 0.876278 0.428006 0.000000 1.030432 0.186667 0.000000 1.455689 -0.196830 0.000000 1.692741 -0.962358 0.000000 1.641074 -0.674930 0.000000 0.616206 0.458625 0.000000 0.096447 0.943058 0.000000 0.000000 1.172553 0.000000 -0.096447 0.943058 0.000000 -0.616206 0.458625 0.000000 -1.641074 -0.674930 0.000000 -1.692741 -0.962358 0.000000 -1.455689 -0.196830 0.000000 -1.030432 0.186667 0.000000 -0.876278 0.428006 0.000000 -0.831568 0.414388 0.000000 -0.721170 0.463557 0.000000 -0.715845 0.374336 0.000000 -0.630271 0.197531 0.000000 -0.588397 -0.027491 0.000000 -0.476891 -0.336201 0.000000 -0.357092 -0.591519 0.000000 -0.185814 -0.824192 0.000000 
0.000000 -1.060254 0.000000 0.158240 -0.998679 0.000000 0.304474 -0.733294 0.000000 0.400056 -0.448268 0.000000 0.497016 -0.097723 0.000000 0.513344 0.138366 0.000000 0.606478 0.349396 0.000000 0.573249 0.417499 0.000000 0.756420 0.384837 0.000000 0.856036 0.317513 0.000000 0.880010 -0.196628 0.000000 0.495026 -0.377989 0.000000 0.203223 -0.127468 0.000000 -0.969689 0.871996 0.000000 -1.355110 0.903789 0.000000 -0.581843 0.079563 0.000000 -0.000000 0.094437 0.000000 0.581843 0.079563 0.000000 1.355110 0.903789 0.000000 0.969689 0.871996 0.000000 -0.203223 -0.127468 0.000000 -0.495026 -0.377989 0.000000 -0.880010 -0.196628 0.000000 -0.856036 0.317513 0.000000 -0.756420 0.384837 0.000000 -0.573249 0.417499 0.000000 -0.606478 0.349396 0.000000 -0.513344 0.138366 0.000000 -0.497016 -0.097723 0.000000 -0.400056 -0.448268 0.000000 -0.304474 -0.733294 0.000000 -0.158240 -0.998679 0.000000 
0.000000 -1.194329 0.000000 0.116108 -1.128667 0.000000 0.222177 -0.833335 0.000000 0.297780 -0.528743 0.000000 0.372172 -0.140779 0.000000 0.391126 0.088069 0.000000 0.476126 0.314431 0.000000 0.434368 0.313616 0.000000 0.602798 0.131600 0.000000 0.340647 0.304416 0.000000 -0.052183 0.547677 0.000000 -0.197149 0.479958 0.000000 -0.263879 0.502357 0.000000 -0.312854 0.883403 0.000000 0.289585 0.070779 0.000000 0.376056 -0.412052 0.000000 -0.000000 0.008867 0.000000 -0.376056 -0.412052 0.000000 -0.289585 0.070779 0.000000 0.312854 0.883403 0.000000 0.263879 0.502357 0.000000 0.197149 0.479958 0.000000 0.052183 0.547677 0.000000 -0.340647 0.304416 0.000000 -0.602798 0.131600 0.000000 -0.434368 0.313616 0.000000 -0.476126 0.314431 0.000000 -0.391126 0.088069 0.000000 -0.372172 -0.140779 0.000000 -0.297780 -0.528743 0.000000 -0.222177 -0.833335 0.000000 -0.116108 -1.128667 0.000000 
0.000000 -1.292470 0.000000 0.042692 -1.220856 0.000000 0.082800 -0.914966 0.000000 0.115078 -0.598264 0.000000 0.148542 -0.191069 0.000000 0.124688 0.034412 0.000000 0.144103 0.306154 0.000000 -0.107756 0.290827 0.000000 -0.014049 0.478558 0.000000 -0.839517 0.972493 0.000000 -0.529898 0.341167 0.000000 0.160912 -0.166293 0.000000 -0.336739 -0.011762 0.000000 0.102955 0.318532 0.000000 0.496350 0.214878 0.000000 0.187725 0.369148 0.000000 0.000000 0.846550 0.000000 -0.187725 0.369148 0.000000 -0.496350 0.214878 0.000000 -0.102955 0.318532 0.000000 0.336739 -0.011762 0.000000 -0.160912 -0.166293 0.000000 0.529898 0.341167 0.000000 0.839517 0.972493 0.000000 0.014049 0.478558 0.000000 0.107756 0.290827 0.000000 -0.144103 0.306154 0.000000 -0.124688 0.034412 0.000000 -0.148542 -0.191069 0.000000 -0.115078 -0.598264 0.000000 -0.082800 -0.914966 0.000000 -0.042692 -1.220856 0.000000 
0.000000 -1.279713 0.000000 -0.051889 -1.211467 0.000000 -0.094395 -0.905721 0.000000 -0.094232 -0.594485 0.000000 -0.091550 -0.150389 0.000000 -0.059653 0.092509 0.000000 -0.071255 0.546875 0.000000 -0.153210 0.471768 0.000000 -0.236052 0.863361 0.000000 -0.878216 0.820265 0.000000 0.151617 -0.452752 0.000000 0.049685 0.286798 0.000000 -0.569767 0.560314 0.000000 -0.266015 0.050314 0.000000 -0.195040 -0.013991 0.000000 -0.206483 0.084297 0.000000 0.000000 0.384317 0.000000 0.206483 0.084297 0.000000 0.195040 -0.013991 0.000000 0.266015 0.050314 0.000000 0.569767 0.560314 0.000000 -0.049685 0.286798 0.000000 -0.151617 -0.452752 0.000000 0.878216 0.820265 0.000000 0.236052 0.863361 0.000000 0.153210 0.471768 0.000000 0.071255 0.546875 0.000000 0.059653 0.092509 0.000000 0.091550 -0.150389 0.000000 0.094232 -0.594485 0.000000 0.094395 -0.905721 0.000000 0.051889 -1.211467 0.000000 
0.000000 -1.188692 0.000000 -0.174601 -1.126462 0.000000 -0.324500 -0.872623 0.000000 -0.371503 -0.601108 0.000000 -0.408063 -0.225649 0.000000 -0.285067 0.014117 0.000000 -0.330043 0.399712 0.000000 -0.080924 0.455625 0.000000 -0.680110 1.203564 0.000000 -0.427447 0.584823 0.000000 0.115826 -0.586734 0.000000 -0.412561 0.555091 0.000000 -0.150146 0.303939 0.000000 -0.078086 -0.056195 0.000000 -0.064712 0.155346 0.000000 -0.120217 0.174108 0.000000 0.000000 0.433584 0.000000 0.120217 0.174108 0.000000 0.064712 0.155346 0.000000 0.078086 -0.056195 0.000000 0.150146 0.303939 0.000000 0.412561 0.555091 0.000000 -0.115826 -0.586734 0.000000 0.427447 0.584823 0.000000 0.680110 1.203564 0.000000 0.080924 0.455625 0.000000 0.330043 0.399712 0.000000 0.285067 0.014117 0.000000 0.408063 -0.225649 0.000000 0.371503 -0.601108 0.000000 0.324500 -0.872623 0.000000 0.174601 -1.126462 0.000000 
0.000000 -0.930511 0.000000 -0.328547 -0.886967 0.000000 -0.617249 -0.708819 0.000000 -0.779183 -0.510921 0.000000 -0.901432 -0.236824 0.000000 -0.839005 0.014488 0.000000 -0.903971 0.342733 0.000000 -0.690542 0.821835 0.000000 -1.132878 1.209884 0.000000 -0.045147 0.024329 0.000000 -0.291050 -0.467638 0.000000 -0.619164 0.552770 0.000000 -0.180827 0.225839 0.000000 -0.329575 -0.035120 0.000000 -0.163750 0.028139 0.000000 -0.173434 0.019585 0.000000 0.000000 0.143883 0.000000 0.173434 0.019585 0.000000 0.163750 0.028139 0.000000 0.329575 -0.035120 0.000000 0.180827 0.225839 0.000000 0.619164 0.552770 0.000000 0.291050 -0.467638 0.000000 0.045147 0.024329 0.000000 1.132878 1.209884 0.000000 0.690542 0.821835 0.000000 0.903971 0.342733 0.000000 0.839005 0.014488 0.000000 0.901432 -0.236824 0.000000 0.779183 -0.510921 0.000000 0.617249 -0.708819 0.000000 0.328547 -0.886967 0.000000 
0.000000 -0.531598 0.000000 -0.465255 -0.509213 0.000000 -0.886967 -0.421987 0.000000 -1.174074 -0.316924 0.000000 -1.397888 -0.165827 0.000000 -1.410899 0.016656 0.000000 -1.383400 0.251248 0.000000 -1.068166 0.684532 0.000000 -0.561565 0.558169 0.000000 0.141718 -0.257005 0.000000 -0.537236 -0.012716 0.000000 -0.325920 0.444869 0.000000 0.015534 0.014349 0.000000 -0.100081 -0.073272 0.000000 -0.019585 -0.000795 0.000000 -0.071941 0.010358 0.000000 -0.000000 0.086715 0.000000 0.071941 0.010358 0.000000 0.019585 -0.000795 0.000000 0.100081 -0.073272 0.000000 -0.015534 0.014349 0.000000 0.325920 0.444869 0.000000 0.537236 -0.012716 0.000000 -0.141718 -0.257005 0.000000 0.561565 0.558169 0.000000 1.068166 0.684532 0.000000 1.383400 0.251248 0.000000 1.410899 0.016656 0.000000 1.397888 -0.165827 0.000000 1.174074 -0.316924 0.000000 0.886967 -0.421987 0.000000 0.465255 -0.509213 0.000000 
0.000000 0.000000 0.000000 -0.531598 0.000000 0.000000 -1.018426 0.000000 0.000000 -1.375573 -0.000000 0.000000 -1.652275 -0.000000 0.000000 -1.707226 -0.000000 0.000000 -1.618963 0.000000 0.000000 -1.204729 0.000000 0.000000 -0.249899 0.000000 0.000000 -0.088392 -0.000000 0.000000 -0.763909 0.000000 0.000000 -0.113824 0.000000 0.000000 0.125828 0.000000 0.000000 -0.085126 0.000000 0.000000 -0.020716 0.000000 0.000000 -0.086715 0.000000 0.000000 -0.000000 -0.000000 0.000000 0.086715 -0.000000 0.000000 0.020716 -0.000000 0.000000 0.085126 -0.000000 0.000000 -0.125828 -0.000000 0.000000 0.113824 0.000000 0.000000 0.763909 0.000000 0.000000 0.088392 0.000000 0.000000 0.249899 -0.000000 0.000000 1.204729 -0.000000 0.000000 1.618963 -0.000000 0.000000 1.707226 -0.000000 0.000000 1.652275 0.000000 0.000000 1.375573 0.000000 0.000000 1.018426 0.000000 0.000000 0.531598 0.000000 0.000000 
-0.000000 0.531598 0.000000 -0.465255 0.509213 0.000000 -0.886967 0.421987 0.000000 -1.174074 0.316924 0.000000 -1.397888 0.165827 0.000000 -1.410899 -0.016656 0.000000 -1.383400 -0.251248 0.000000 -1.068166 -0.684532 0.000000 -0.561565 -0.558169 0.000000 0.141718 0.257005 0.000000 -0.537236 0.012716 0.000000 -0.325920 -0.444869 0.000000 0.015534 -0.014349 0.000000 -0.100081 0.073272 0.000000 -0.019585 0.000795 0.000000 -0.071941 -0.010358 0.000000 -0.000000 -0.086715 0.000000 0.071941 -0.010358 0.000000 0.019585 0.000795 0.000000 0.100081 0.073272 0.000000 -0.015534 -0.014349 0.000000 0.325920 -0.444869 0.000000 0.537236 0.012716 0.000000 -0.141718 0.257005 0.000000 0.561565 -0.558169 0.000000 1.068166 -0.684532 0.000000 1.383400 -0.251248 0.000000 1.410899 -0.016656 0.000000 1.397888 0.165827 0.000000 1.174074 0.316924 0.000000 0.886967 0.421987 0.000000 0.465255 0.509213 0.000000 
-0.000000 0.930511 0.000000 -0.328547 0.886967 0.000000 -0.617249 0.708819 0.000000 -0.779183 0.510921 0.000000 -0.901432 0.236824 0.000000 -0.839005 -0.014488 0.000000 -0.903971 -0.342733 0.000000 -0.690542 -0.821835 0.000000 -1.132878 -1.209884 0.000000 -0.045147 -0.024329 0.000000 -0.291050 0.467638 0.000000 -0.619164 -0.552770 0.000000 -0.180827 -0.225839 0.000000 -0.329575 0.035120 0.000000 -0.163750 -0.028139 0.000000 -0.173434 -0.019585 0.000000 -0.000000 -0.143883 0.000000 0.173434 -0.019585 0.000000 0.163750 -0.028139 0.000000 0.329575 0.035120 0.000000 0.180827 -0.225839 0.000000 0.619164 -0.552770 0.000000 0.291050 0.467638 0.000000 0.045147 -0.024329 0.000000 1.132878 -1.209884 0.000000 0.690542 -0.821835 0.000000 0.903971 -0.342733 0.000000 0.839005 -0.014488 0.000000 0.901432 0.236824 0.000000 0.779183 0.510921 0.000000 0.617249 0.708819 0.000000 0.328547 0.886967 0.000000 
-0.000000 1.188692 0.000000 -0.174601 1.126462 0.000000 -0.324500 0.872623 0.000000 -0.371503 0.601108 0.000000 -0.408063 0.225649 0.000000 -0.285067 -0.014117 0.000000 -0.330043 -0.399712 0.000000 -0.080924 -0.455625 0.000000 -0.680110 -1.203564 0.000000 -0.427447 -0.584823 0.000000 0.115826 0.586734 0.000000 -0.412561 -0.555091 0.000000 -0.150146 -0.303939 0.000000 -0.078086 0.056195 0.000000 -0.064712 -0.155346 0.000000 -0.120217 -0.174108 0.000000 -0.000000 -0.433584 0.000000 0.120217 -0.174108 0.000000 0.064712 -0.155346 0.000000 0.078086 0.056195 0.000000 0.150146 -0.303939 0.000000 0.412561 -0.555091 0.000000 -0.115826 0.586734 0.000000 0.427447 -0.584823 0.000000 0.680110 -1.203564 0.000000 0.080924 -0.455625 0.000000 0.330043 -0.399712 0.000000 0.285067 -0.014117 0.000000 0.408063 0.225649 0.000000 0.371503 0.601108 0.000000 0.324500 0.872623 0.000000 0.174601 1.126462 0.000000 
-0.000000 1.279713 0.000000 -0.051889 1.211467 0.000000 -0.094395 0.905721 0.000000 -0.094232 0.594485 0.000000 -0.091550 0.150389 0.000000 -0.059653 -0.092509 0.000000 -0.071255 -0.546875 0.000000 -0.153210 -0.471768 0.000000 -0.236052 -0.863361 0.000000 -0.878216 -0.820265 0.000000 0.151617 0.452752 0.000000 0.049685 -0.286798 0.000000 -0.569767 -0.560314 0.000000 -0.266015 -0.050314 0.000000 -0.195040 0.013991 0.000000 -0.206483 -0.084297 0.000000 -0.000000 -0.384317 0.000000 0.206483 -0.084297 0.000000 0.195040 0.013991 0.000000 0.266015 -0.050314 0.000000 0.569767 -0.560314 0.000000 -0.049685 -0.286798 0.000000 -0.151617 0.452752 0.000000 0.878216 -0.820265 0.000000 0.236052 -0.863361 0.000000 0.153210 -0.471768 0.000000 0.071255 -0.546875 0.000000 0.059653 -0.092509 0.000000 0.091550 0.150389 0.000000 0.094232 0.594485 0.000000 0.094395 0.905721 0.000000 0.051889 1.211467 0.000000 
-0.000000 1.292470 0.000000 0.042692 1.220856 0.000000 0.082800 0.914966 0.000000 0.115078 0.598264 0.000000 0.148542 0.191069 0.000000 0.124688 -0.034412 0.000000 0.144103 -0.306154 0.000000 -0.107756 -0.290827 0.000000 -0.014049 -0.478558 0.000000 -0.839517 -0.972493 0.000000 -0.529898 -0.341167 0.000000 0.160912 0.166293 0.000000 -0.336739 0.011762 0.000000 0.102955 -0.318532 0.000000 0.496350 -0.214878 0.000000 0.187725 -0.369148 0.000000 0.000000 -0.846550 0.000000 -0.187725 -0.369148 0.000000 -0.496350 -0.214878 0.000000 -0.102955 -0.318532 0.000000 0.336739 0.011762 0.000000 -0.160912 0.166293 0.000000 0.529898 -0.341167 0.000000 0.839517 -0.972493 0.000000 0.014049 -0.478558 0.000000 0.107756 -0.290827 0.000000 -0.144103 -0.306154 0.000000 -0.124688 -0.034412 0.000000 -0.148542 0.191069 0.000000 -0.115078 0.598264 0.000000 -0.082800 0.914966 0.000000 -0.042692 1.220856 0.000000 
-0.000000 1.194329 0.000000 0.116108 1.128667 0.000000 0.222177 0.833335 0.000000 0.297780 0.528743 0.000000 0.372172 0.140779 0.000000 0.391126 -0.088069 0.000000 0.476126 -0.314431 0.000000 0.434368 -0.313616 0.000000 0.602798 -0.131600 0.000000 0.340647 -0.304416 0.000000 -0.052183 -0.547677 0.000000 -0.197149 -0.479958 0.000000 -0.263879 -0.502357 0.000000 -0.312854 -0.883403 0.000000 0.289585 -0.070779 0.000000 0.376056 0.412052 0.000000 0.000000 -0.008867 0.000000 -0.376056 0.412052 0.000000 -0.289585 -0.070779 0.000000 0.312854 -0.883403 0.000000 0.263879 -0.502357 0.000000 0.197149 -0.479958 0.000000 0.052183 -0.547677 0.000000 -0.340647 -0.304416 0.000000 -0.602798 -0.131600 0.000000 -0.434368 -0.313616 0.000000 -0.476126 -0.314431 0.000000 -0.391126 -0.088069 0.000000 -0.372172 0.140779 0.000000 -0.297780 0.528743 0.000000 -0.222177 0.833335 0.000000 -0.116108 1.128667 0.000000 
-0.000000 1.060254 0.000000 0.158240 0.998679 0.000000 0.304474 0.733294 0.000000 0.400056 0.448268 0.000000 0.497016 0.097723 0.000000 0.513344 -0.138366 0.000000 0.606478 -0.349396 0.000000 0.573249 -0.417499 0.000000 0.756420 -0.384837 0.000000 0.856036 -0.317513 0.000000 0.880010 0.196628 0.000000 0.495026 0.377989 0.000000 0.203223 0.127468 0.000000 -0.969689 -0.871996 0.000000 -1.355110 -0.903789 0.000000 -0.581843 -0.079563 0.000000 0.000000 -0.094437 0.000000 0.581843 -0.079563 0.000000 1.355110 -0.903789 0.000000 0.969689 -0.871996 0.000000 -0.203223 0.127468 0.000000 -0.495026 0.377989 0.000000 -0.880010 0.196628 0.000000 -0.856036 -0.317513 0.000000 -0.756420 -0.384837 0.000000 -0.573249 -0.417499 0.000000 -0.606478 -0.349396 0.000000 -0.513344 -0.138366 0.000000 -0.497016 0.097723 0.000000 -0.400056 0.448268 0.000000 -0.304474 0.733294 0.000000 -0.158240 0.998679 0.000000 
-0.000000 0.877848 0.000000 0.185814 0.824192 0.000000 0.357092 0.591519 0.000000 0.476891 0.336201 0.000000 0.588397 0.027491 0.000000 0.630271 -0.197531 0.000000 0.715845 -0.374336 0.000000 0.721170 -0.463557 0.000000 0.831568 -0.414388 0.000000 0.876278 -0.428006 0.000000 1.030432 -0.186667 0.000000 1.455689 0.196830 0.000000 1.692741 0.962358 0.000000 1.641074 0.674930 0.000000 0.616206 -0.458625 0.000000 0.096447 -0.943058 0.000000 -0.000000 -1.172553 0.000000 -0.096447 -0.943058 0.000000 -0.616206 -0.458625 0.000000 -1.641074 0.674930 0.000000 -1.692741 0.962358 0.000000 -1.455689 0.196830 0.000000 -1.030432 -0.186667 0.000000 -0.876278 -0.428006 0.000000 -0.831568 -0.414388 0.000000 -0.721170 -0.463557 0.000000 -0.715845 -0.374336 0.000000 -0.630271 -0.197531 0.000000 -0.588397 0.027491 0.000000 -0.476891 0.336201 0.000000 -0.357092 0.591519 0.000000 -0.185814 0.824192 0.000000 
-0.000000 0.688625 0.000000 0.186891 0.641588 0.000000 0.359597 0.442218 0.000000 0.477775 0.216963 0.000000 0.585704 -0.055657 0.000000 0.621848 -0.265814 0.000000 0.690153 -0.440295 0.000000 0.693237 -0.533222 0.000000 0.757473 -0.539945 0.000000 0.800719 -0.516377 0.000000 0.806938 -0.382782 0.000000 0.955037 -0.284319 0.000000 1.140599 -0.057918 0.000000 1.870095 0.204539 0.000000 1.734694 0.640838 0.000000 0.943179 0.536642 0.000000 -0.000000 0.098458 0.000000 -0.943179 0.536642 0.000000 -1.734694 0.640838 0.000000 -1.870095 0.204539 0.000000 -1.140599 -0.057918 0.000000 -0.955037 -0.284319 0.000000 -0.806938 -0.382782 0.000000 -0.800719 -0.516377 0.000000 -0.757473 -0.539945 0.000000 -0.693237 -0.533222 0.000000 -0.690153 -0.440295 0.000000 -0.621848 -0.265814 0.000000 -0.585704 -0.055657 0.000000 -0.477775 0.216963 0.000000 -0.359597 0.442218 0.000000 -0.186891 0.641588 0.000000 
-0.000000 0.504065 0.000000 0.175734 0.464596 0.000000 0.336677 0.300636 0.000000 0.447109 0.110093 0.000000 0.541754 -0.116582 0.000000 0.572432 -0.301980 0.000000 0.620146 -0.445726 0.000000 0.611102 -0.530878 0.000000 0.645730 -0.521870 0.000000 0.635540 -0.477471 0.000000 0.650508 -0.340984 0.000000 0.642655 -0.136832 0.000000 0.605792 0.047300 0.000000 0.611788 0.080835 0.000000 0.580184 0.468291 0.000000 0.507839 0.791636 0.000000 -0.000000 0.713805 0.000000 -0.507839 0.791636 0.000000 -0.580184 0.468291 0.000000 -0.611788 0.080835 0.000000 -0.605792 0.047300 0.000000 -0.642655 -0.136832 0.000000 -0.650508 -0.340984 0.000000 -0.635540 -0.477471 0.000000 -0.645730 -0.521870 0.000000 -0.611102 -0.530878 0.000000 -0.620146 -0.445726 0.000000 -0.572432 -0.301980 0.000000 -0.541754 -0.116582 0.000000 -0.447109 0.110093 0.000000 -0.336677 0.300636 0.000000 -0.175734 0.464596 0.000000 
0.000000 0.337158 0.000000 0.147930 0.304911 0.000000 0.281932 0.170842 0.000000 0.368822 0.011886 0.000000 0.438481 -0.180980 0.000000 0.450577 -0.344206 0.000000 0.469657 -0.478965 0.000000 0.445496 -0.558806 0.000000 0.444460 -0.564384 0.000000 0.426249 -0.521155 0.000000 0.418613 -0.389896 0.000000 0.413064 -0.239604 0.000000 0.451368 -0.027051 0.000000 0.422980 0.230147 0.000000 0.265069 0.744787 0.000000 0.212488 1.116827 0.000000 -0.000000 1.114135 0.000000 -0.212488 1.116827 0.000000 -0.265069 0.744787 0.000000 -0.422980 0.230147 0.000000 -0.451368 -0.027051 0.000000 -0.413064 -0.239604 0.000000 -0.418613 -0.389896 0.000000 -0.426249 -0.521155 0.000000 -0.444460 -0.564384 0.000000 -0.445496 -0.558806 0.000000 -0.469657 -0.478965 0.000000 -0.450577 -0.344206 0.000000 -0.438481 -0.180980 0.000000 -0.368822 0.011886 0.000000 -0.281932 0.170842 0.000000 -0.147930 0.304911 0.000000 
-0.000000 0.208205 0.000000 0.114077 0.182663 0.000000 0.214809 0.079743 0.000000 0.272158 -0.046456 0.000000 0.310310 -0.198337 0.000000 0.293807 -0.333155 0.000000 0.276632 -0.440645 0.000000 0.215134 -0.505681 0.000000 0.172558 -0.502623 0.000000 0.106989 -0.451624 0.000000 0.065385 -0.327799 0.000000 0.022287 -0.169587 0.000000 -0.012720 0.037384 0.000000 -0.056183 0.267134 0.000000 -0.097974 0.678783 0.000000 0.000383 1.056705 0.000000 -0.000000 1.138780 0.000000 -0.000383 1.056705 0.000000 0.097974 0.678783 0.000000 0.056183 0.267134 0.000000 0.012720 0.037384 0.000000 -0.022287 -0.169587 0.000000 -0.065385 -0.327799 0.000000 -0.106989 -0.451624 0.000000 -0.172558 -0.502623 0.000000 -0.215134 -0.505681 0.000000 -0.276632 -0.440645 0.000000 -0.293807 -0.333155 0.000000 -0.310310 -0.198337 0.000000 -0.272158 -0.046456 0.000000 -0.214809 0.079743 0.000000 -0.114077 0.182663 0.000000 
-0.000000 0.109003 0.000000 0.078341 0.090102 0.000000 0.143928 0.012761 0.000000 0.169793 -0.083614 0.000000 0.174010 -0.202629 0.000000 0.127474 -0.310529 0.000000 0.071105 -0.400292 0.000000 -0.022452 -0.454732 0.000000 -0.106690 -0.456239 0.000000 -0.197659 -0.413981 0.000000 -0.263538 -0.305194 0.000000 -0.309186 -0.161498 0.000000 -0.326238 0.051419 0.000000 -0.323113 0.315401 0.000000 -0.305747 0.688221 0.000000 -0.151136 1.018853 0.000000 0.000000 1.114902 0.000000 0.151136 1.018853 0.000000 0.305747 0.688221 0.000000 0.323113 0.315401 0.000000 0.326238 0.051419 0.000000 0.309186 -0.161498 0.000000 0.263538 -0.305194 0.000000 0.197659 -0.413981 0.000000 0.106690 -0.456239 0.000000 0.022452 -0.454732 0.000000 -0.071105 -0.400292 0.000000 -0.127474 -0.310529 0.000000 -0.174010 -0.202629 0.000000 -0.169793 -0.083614 0.000000 -0.143928 0.012761 0.000000 -0.078341 0.090102 0.000000 
-0.000000 0.051524 0.000000 0.046132 0.038735 0.000000 0.079740 -0.011709 0.000000 0.074271 -0.076538 0.000000 0.044693 -0.156018 0.000000 -0.038312 -0.230251 0.000000 -0.136881 -0.290718 0.000000 -0.277064 -0.327886 0.000000 -0.410034 -0.327416 0.000000 -0.551355 -0.294776 0.000000 -0.659869 -0.216272 0.000000 -0.736628 -0.106887 0.000000 -0.763888 0.051311 0.000000 -0.719464 0.246643 0.000000 -0.596482 0.506806 0.000000 -0.321690 0.750959 0.000000 0.000000 0.836509 0.000000 0.321690 0.750959 0.000000 0.596482 0.506806 0.000000 0.719464 0.246643 0.000000 0.763888 0.051311 0.000000 0.736628 -0.106887 0.000000 0.659869 -0.216272 0.000000 0.551355 -0.294776 0.000000 0.410034 -0.327416 0.000000 0.277064 -0.327886 0.000000 0.136881 -0.290718 0.000000 0.038312 -0.230251 0.000000 -0.044693 -0.156018 0.000000 -0.074271 -0.076538 0.000000 -0.079740 -0.011709 0.000000 -0.046132 0.038735 0.000000 
-0.000000 0.016739 0.000000 0.025762 0.010361 0.000000 0.038735 -0.015377 0.000000 0.014053 -0.048567 0.000000 -0.037802 -0.090046 0.000000 -0.141965 -0.128955 0.000000 -0.268053 -0.161540 0.000000 -0.432684 -0.181579 0.000000 -0.595939 -0.181947 0.000000 -0.760099 -0.164147 0.000000 -0.890714 -0.119920 0.000000 -0.976371 -0.057479 0.000000 -0.997601 0.034255 0.000000 -0.925060 0.147995 0.000000 -0.750959 0.290446 0.000000 -0.418254 0.422371 0.000000 0.000000 0.471522 0.000000 0.418254 0.422371 0.000000 0.750959 0.290446 0.000000 0.925060 0.147995 0.000000 0.997601 0.034255 0.000000 0.976371 -0.057479 0.000000 0.890714 -0.119920 0.000000 0.760099 -0.164147 0.000000 0.595939 -0.181947 0.000000 0.432684 -0.181579 0.000000 0.268053 -0.161540 0.000000 0.141965 -0.128955 0.000000 0.037802 -0.090046 0.000000 -0.014053 -0.048567 0.000000 -0.038735 -0.015377 0.000000 -0.025762 0.010361 0.000000 
