# vtk DataFile Version 2.0
Comment goes here
ASCII

DATASET STRUCTURED_POINTS
FIELD FieldData 1
TIME 1 1 double
0.84000000
DIMENSIONS    32   32   1

ORIGIN    0.000   0.000   0.000
SPACING   0.03125 0.03125   1.000

POINT_DATA   1024
VECTORS u double

0.000000 0.000000 0.000000 0.061080 -0.000000 0.000000 0.107651 -0.000000 0.000000 0.134133 -0.000000 0.000000 0.123444 -0.000000 0.000000 0.076995 -0.000000 0.000000 -0.017411 -0.000000 0.000000 -0.155633 -0.000000 0.000000 -0.329233 -0.000000 0.000000 -0.533524 -0.000000 0.000000 -0.731082 -0.000000 0.000000 -0.917748 0.000000 0.000000 -1.023879 0.000000 0.000000 -1.027330 0.000000 0.000000 -0.853818 0.000000 0.000000 -0.504470 0.000000 0.000000 -0.000000 0.000000 0.000000 0.504470 -0.000000 0.000000 0.853818 -0.000000 0.000000 1.027330 -0.000000 0.000000 1.023879 -0.000000 0.000000 0.917748 0.000000 0.000000 0.731082 0.000000 0.000000 0.533524 0.000000 0.000000 0.329233 0.000000 0.000000 0.155633 0.000000 0.000000 0.017411 0.000000 0.000000 -0.076995 0.000000 0.000000 -0.123444 0.000000 0.000000 -0.134133 0.000000 0.000000 -0.107651 0.000000 0.000000 -0.061080 0.000000 0.000000 
0.000000 -0.061080 0.000000 0.067277 -0.053825 0.000000 0.119861 -0.036526 0.000000 0.153160 -0.007897 0.000000 0.150135 0.028569 0.000000 0.114363 0.070428 0.000000 0.033404 0.116314 0.000000 -0.088224 0.155911 0.000000 -0.242609 0.188945 0.000000 -0.429746 0.200925 0.000000 -0.608636 0.192112 0.000000 -0.791424 0.146398 0.000000 -0.898072 0.054791 0.000000 -0.932100 -0.085031 0.000000 -0.800055 -0.261430 0.000000 -0.478441 -0.426909 0.000000 0.000000 -0.504470 0.000000 0.478441 -0.426909 0.000000 0.800055 -0.261430 0.000000 0.932100 -0.085031 0.000000 0.898072 0.054791 0.000000 0.791424 0.146398 0.000000 0.608636 0.192112 0.000000 0.429746 0.200925 0.000000 0.242609 0.188945 0.000000 0.088224 0.155911 0.000000 -0.033404 0.116314 0.000000 -0.114363 0.070428 0.000000 -0.150135 0.028569 0.000000 -0.153160 -0.007897 0.000000 -0.119861 -0.036526 0.000000 -0.067277 -0.053825 0.000000 
0.000000 -0.134554 0.000000 0.083703 -0.119861 0.000000 0.151801 -0.085883 0.000000 0.201951 -0.030274 0.000000 0.217065 0.038797 0.000000 0.207119 0.116731 0.000000 0.158158 0.202588 0.000000 0.079962 0.276013 0.000000 -0.026735 0.341522 0.000000 -0.160843 0.366027 0.000000 -0.292650 0.361677 0.000000 -0.438295 0.289435 0.000000 -0.539180 0.140677 0.000000 -0.597050 -0.098017 0.000000 -0.550849 -0.453659 0.000000 -0.366813 -0.800055 0.000000 0.000000 -0.956882 0.000000 0.366813 -0.800055 0.000000 0.550849 -0.453659 0.000000 0.597050 -0.098017 0.000000 0.539180 0.140677 0.000000 0.438295 0.289435 0.000000 0.292650 0.361677 0.000000 0.160843 0.366027 0.000000 0.026735 0.341522 0.000000 -0.079962 0.276013 0.000000 -0.158158 0.202588 0.000000 -0.207119 0.116731 0.000000 -0.217065 0.038797 0.000000 -0.201951 -0.030274 0.000000 -0.151801 -0.085883 0.000000 -0.083703 -0.119861 0.000000 
-0.000000 -0.228487 0.000000 0.109908 -0.205627 0.000000 0.201899 -0.154774 0.000000 0.276964 -0.073160 0.000000 0.316558 0.023401 0.000000 0.341410 0.129335 0.000000 0.334293 0.243471 0.000000 0.314944 0.340804 0.000000 0.274083 0.429750 0.000000 0.209403 0.466839 0.000000 0.142141 0.469565 0.000000 0.019222 0.392929 0.000000 -0.083792 0.213546 0.000000 -0.252829 -0.073362 0.000000 -0.358932 -0.491667 0.000000 -0.272824 -0.977758 0.000000 0.000000 -1.238096 0.000000 0.272824 -0.977758 0.000000 0.358932 -0.491667 0.000000 0.252829 -0.073362 0.000000 0.083792 0.213546 0.000000 -0.019222 0.392929 0.000000 -0.142141 0.469565 0.000000 -0.209403 0.466839 0.000000 -0.274083 0.429750 0.000000 -0.314944 0.340804 0.000000 -0.334293 0.243471 0.000000 -0.341410 0.129335 0.000000 -0.316558 0.023401 0.000000 -0.276964 -0.073160 0.000000 -0.201899 -0.154774 0.000000 -0.109908 -0.205627 0.000000 
-0.000000 -0.354369 0.000000 0.141901 -0.321760 0.000000 0.261760 -0.252940 0.000000 0.363260 -0.144933 0.000000 0.425099 -0.025648 0.000000 0.480131 0.098997 0.000000 0.507146 0.229053 0.000000 0.538888 0.336222 0.000000 0.555730 0.447063 0.000000 0.556215 0.497969 0.000000 0.551492 0.551858 0.000000 0.469755 0.515368 0.000000 0.408639 0.412728 0.000000 0.321255 0.177123 0.000000 0.149301 -0.433664 0.000000 -0.005842 -1.158986 0.000000 0.000000 -1.502529 0.000000 0.005842 -1.158986 0.000000 -0.149301 -0.433664 0.000000 -0.321255 0.177123 0.000000 -0.408639 0.412728 0.000000 -0.469755 0.515368 0.000000 -0.551492 0.551858 0.000000 -0.556215 0.497969 0.000000 -0.555730 0.447063 0.000000 -0.538888 0.336222 0.000000 -0.507146 0.229053 0.000000 -0.480131 0.098997 0.000000 -0.425099 -0.025648 0.000000 -0.363260 -0.144933 0.000000 -0.261760 -0.252940 0.000000 -0.141901 -0.321760 0.000000 
-0.000000 -0.512289 0.000000 0.176398 -0.467387 0.000000 0.325087 -0.376133 0.000000 0.452858 -0.236499 0.000000 0.532622 -0.093470 0.000000 0.614231 0.047288 0.000000 0.667050 0.184714 0.000000 0.750543 0.292220 0.000000 0.824047 0.412422 0.000000 0.912363 0.471077 0.000000 0.996212 0.556025 0.000000 0.975688 0.535782 0.000000 0.992566 0.362045 0.000000 0.669207 0.185977 0.000000 0.412791 -0.164570 0.000000 0.347890 -0.828458 0.000000 0.000000 -1.249779 0.000000 -0.347890 -0.828458 0.000000 -0.412791 -0.164570 0.000000 -0.669207 0.185977 0.000000 -0.992566 0.362045 0.000000 -0.975688 0.535782 0.000000 -0.996212 0.556025 0.000000 -0.912363 0.471077 0.000000 -0.824047 0.412422 0.000000 -0.750543 0.292220 0.000000 -0.667050 0.184714 0.000000 -0.614231 0.047288 0.000000 -0.532622 -0.093470 0.000000 -0.452858 -0.236499 0.000000 -0.325087 -0.376133 0.000000 -0.176398 -0.467387 0.000000 
-0.000000 -0.707164 0.000000 0.207574 -0.646848 0.000000 0.381611 -0.529401 0.000000 0.530831 -0.352468 0.000000 0.621553 -0.187021 0.000000 0.719339 -0.035430 0.000000 0.783991 0.092742 0.000000 0.898909 0.179225 0.000000 1.007460 0.285243 0.000000 1.147491 0.325804 0.000000 1.261899 0.488532 0.000000 1.181769 0.519014 0.000000 1.258672 0.719209 0.000000 1.648501 0.756898 0.000000 2.050165 -0.112347 0.000000 1.408988 -0.746196 0.000000 -0.000000 -0.806749 0.000000 -1.408988 -0.746196 0.000000 -2.050165 -0.112347 0.000000 -1.648501 0.756898 0.000000 -1.258672 0.719209 0.000000 -1.181769 0.519014 0.000000 -1.261899 0.488532 0.000000 -1.147491 0.325804 0.000000 -1.007460 0.285243 0.000000 -0.898909 0.179225 0.000000 -0.783991 0.092742 0.000000 -0.719339 -0.035430 0.000000 -0.621553 -0.187021 0.000000 -0.530831 -0.352468 0.000000 -0.381611 -0.529401 0.000000 -0.207574 -0.646848 0.000000 
-0.000000 -0.927437 0.000000 0.226431 -0.848998 0.000000 0.414753 -0.699390 0.000000 0.575070 -0.476441 0.000000 0.665862 -0.281978 0.000000 0.770672 -0.115150 0.000000 0.833680 0.005145 0.000000 0.981054 0.068751 0.000000 1.120803 0.163841 0.000000 1.378477 0.216637 0.000000 1.528227 0.521747 0.000000 1.924464 0.539009 0.000000 2.598631 -0.104686 0.000000 2.876680 -0.605517 0.000000 2.196738 0.074943 0.000000 1.008030 1.221708 0.000000 0.000000 1.568196 0.000000 -1.008030 1.221708 0.000000 -2.196738 0.074943 0.000000 -2.876680 -0.605517 0.000000 -2.598631 -0.104686 0.000000 -1.924464 0.539009 0.000000 -1.528227 0.521747 0.000000 -1.378477 0.216637 0.000000 -1.120803 0.163841 0.000000 -0.981054 0.068751 0.000000 -0.833680 0.005145 0.000000 -0.770672 -0.115150 0.000000 -0.665862 -0.281978 0.000000 -0.575070 -0.476441 0.000000 -0.414753 -0.699390 0.000000 -0.226431 -0.848998 0.000000 
0.000000 -1.160026 0.000000 0.227643 -1.061600 0.000000 0.416321 -0.878040 0.000000 0.575997 -0.603577 0.000000 0.658727 -0.382623 0.000000 0.765024 -0.203249 0.000000 0.821914 -0.117640 0.000000 1.001115 -0.107898 0.000000 1.209192 -0.112180 0.000000 1.471271 -0.081620 0.000000 1.719820 -0.057455 0.000000 1.912792 -0.551390 0.000000 1.504365 -0.233006 0.000000 0.270822 1.158791 0.000000 -0.698449 1.756302 0.000000 -0.566810 1.450543 0.000000 0.000000 1.209311 0.000000 0.566810 1.450543 0.000000 0.698449 1.756302 0.000000 -0.270822 1.158791 0.000000 -1.504365 -0.233006 0.000000 -1.912792 -0.551390 0.000000 -1.719820 -0.057455 0.000000 -1.471271 -0.081620 0.000000 -1.209192 -0.112180 0.000000 -1.001115 -0.107898 0.000000 -0.821914 -0.117640 0.000000 -0.765024 -0.203249 0.000000 -0.658727 -0.382623 0.000000 -0.575997 -0.603577 0.000000 -0.416321 -0.878040 0.000000 -0.227643 -1.061600 0.000000 
0.000000 -1.382723 0.000000 0.201371 -1.265319 0.000000 0.367837 -1.047745 0.000000 0.504210 -0.718847 0.000000 0.561427 -0.471005 0.000000 0.644143 -0.278337 0.000000 0.668495 -0.230946 0.000000 0.841025 -0.318526 0.000000 0.978431 -0.306316 0.000000 0.700905 -0.293991 0.000000 0.549768 0.080226 0.000000 -0.003431 0.754465 0.000000 -0.989781 1.537283 0.000000 -1.205525 1.597297 0.000000 -0.535895 0.912576 0.000000 -0.084892 0.523259 0.000000 0.000000 0.434576 0.000000 0.084892 0.523259 0.000000 0.535895 0.912576 0.000000 1.205525 1.597297 0.000000 0.989781 1.537283 0.000000 0.003431 0.754465 0.000000 -0.549768 0.080226 0.000000 -0.700905 -0.293991 0.000000 -0.978431 -0.306316 0.000000 -0.841025 -0.318526 0.000000 -0.668495 -0.230946 0.000000 -0.644143 -0.278337 0.000000 -0.561427 -0.471005 0.000000 -0.504210 -0.718847 0.000000 -0.367837 -1.047745 0.000000 -0.201371 -1.265319 0.000000 
0.000000 -1.562768 0.000000 0.148277 -1.429437 0.000000 0.272423 -1.180879 0.000000 0.367975 -0.797166 0.000000 0.391436 -0.522556 0.000000 0.447104 -0.310317 0.000000 0.403620 -0.314522 0.000000 0.597515 -0.417834 0.000000 0.164491 0.027941 0.000000 -0.413220 0.347043 0.000000 -0.467495 0.646880 0.000000 -0.861248 0.988160 0.000000 -0.671981 0.969088 0.000000 -0.094083 0.704905 0.000000 0.242142 0.635669 0.000000 0.204364 0.914648 0.000000 -0.000000 1.039527 0.000000 -0.204364 0.914648 0.000000 -0.242142 0.635669 0.000000 0.094083 0.704905 0.000000 0.671981 0.969088 0.000000 0.861248 0.988160 0.000000 0.467495 0.646880 0.000000 0.413220 0.347043 0.000000 -0.164491 0.027941 0.000000 -0.597515 -0.417834 0.000000 -0.403620 -0.314522 0.000000 -0.447104 -0.310317 0.000000 -0.391436 -0.522556 0.000000 -0.367975 -0.797166 0.000000 -0.272423 -1.180879 0.000000 -0.148277 -1.429437 0.000000 
0.000000 -1.679276 0.000000 0.064982 -1.537742 0.000000 0.122095 -1.267443 0.000000 0.152825 -0.837859 0.000000 0.133440 -0.550134 0.000000 0.125449 -0.290521 0.000000 -0.011089 -0.381357 0.000000 0.027996 -0.079398 0.000000 -1.058524 0.704419 0.000000 -0.918295 0.337995 0.000000 -0.423439 0.528254 0.000000 -0.965922 0.958950 0.000000 -0.574043 0.770118 0.000000 -0.353647 0.683174 0.000000 -0.231515 0.614128 0.000000 -0.140990 0.765401 0.000000 -0.000000 0.843304 0.000000 0.140990 0.765401 0.000000 0.231515 0.614128 0.000000 0.353647 0.683174 0.000000 0.574043 0.770118 0.000000 0.965922 0.958950 0.000000 0.423439 0.528254 0.000000 0.918295 0.337995 0.000000 1.058524 0.704419 0.000000 -0.027996 -0.079398 0.000000 0.011089 -0.381357 0.000000 -0.125449 -0.290521 0.000000 -0.133440 -0.550134 0.000000 -0.152825 -0.837859 0.000000 -0.122095 -1.267443 0.000000 -0.064982 -1.537742 0.000000 
0.000000 -1.692731 0.000000 -0.051117 -1.551532 0.000000 -0.085387 -1.268722 0.000000 -0.145693 -0.808511 0.000000 -0.185610 -0.495180 0.000000 -0.307805 -0.165788 0.000000 -0.412446 -0.217069 0.000000 -0.813661 0.629601 0.000000 -1.498618 0.974231 0.000000 -0.518360 -0.288042 0.000000 -0.657528 0.694508 0.000000 -1.118981 1.138763 0.000000 -0.627470 0.356813 0.000000 -0.507026 0.362376 0.000000 -0.288360 0.423012 0.000000 -0.179480 0.683134 0.000000 -0.000000 0.757547 0.000000 0.179480 0.683134 0.000000 0.288360 0.423012 0.000000 0.507026 0.362376 0.000000 0.627470 0.356813 0.000000 1.118981 1.138763 0.000000 0.657528 0.694508 0.000000 0.518360 -0.288042 0.000000 1.498618 0.974231 0.000000 0.813661 0.629601 0.000000 0.412446 -0.217069 0.000000 0.307805 -0.165788 0.000000 0.185610 -0.495180 0.000000 0.145693 -0.808511 0.000000 0.085387 -1.268722 0.000000 0.051117 -1.551532 0.000000 
0.000000 -1.577043 0.000000 -0.205078 -1.452356 0.000000 -0.366403 -1.172866 0.000000 -0.533029 -0.737636 0.000000 -0.600421 -0.388023 0.000000 -0.814609 -0.063685 0.000000 -0.834193 0.124499 0.000000 -1.468629 1.006774 0.000000 -1.143994 0.409118 0.000000 -0.354455 -0.503095 0.000000 -1.090407 1.128875 0.000000 -0.874302 0.928893 0.000000 -0.572435 0.158163 0.000000 -0.527279 0.344065 0.000000 -0.392165 0.286582 0.000000 -0.237151 0.477040 0.000000 -0.000000 0.484344 0.000000 0.237151 0.477040 0.000000 0.392165 0.286582 0.000000 0.527279 0.344065 0.000000 0.572435 0.158163 0.000000 0.874302 0.928893 0.000000 1.090407 1.128875 0.000000 0.354455 -0.503095 0.000000 1.143994 0.409118 0.000000 1.468629 1.006774 0.000000 0.834193 0.124499 0.000000 0.814609 -0.063685 0.000000 0.600421 -0.388023 0.000000 0.533029 -0.737636 0.000000 0.366403 -1.172866 0.000000 0.205078 -1.452356 0.000000 
-0.000000 -1.282575 0.000000 -0.411514 -1.185130 0.000000 -0.762202 -0.940771 0.000000 -1.063996 -0.574493 0.000000 -1.222248 -0.213601 0.000000 -1.418224 0.067984 0.000000 -1.409031 0.436952 0.000000 -1.641602 0.939402 0.000000 -0.859455 -0.139943 0.000000 -1.014646 -0.341629 0.000000 -1.284777 1.214354 0.000000 -0.614064 0.620791 0.000000 -0.626009 0.009791 0.000000 -0.429894 0.182106 0.000000 -0.352738 0.132883 0.000000 -0.186058 0.290968 0.000000 -0.000000 0.283245 0.000000 0.186058 0.290968 0.000000 0.352738 0.132883 0.000000 0.429894 0.182106 0.000000 0.626009 0.009791 0.000000 0.614064 0.620791 0.000000 1.284777 1.214354 0.000000 1.014646 -0.341629 0.000000 0.859455 -0.139943 0.000000 1.641602 0.939402 0.000000 1.409031 0.436952 0.000000 1.418224 0.067984 0.000000 1.222248 -0.213601 0.000000 1.063996 -0.574493 0.000000 0.762202 -0.940771 0.000000 0.411514 -1.185130 0.000000 
-0.000000 -0.754015 0.000000 -0.641287 -0.690154 0.000000 -1.185130 -0.520384 0.000000 -1.582059 -0.277590 0.000000 -1.759622 -0.033795 0.000000 -1.795659 0.123098 0.000000 -1.691639 0.347878 0.000000 -1.358708 0.457198 0.000000 -0.752236 -0.217838 0.000000 -1.498651 -0.077774 0.000000 -1.093866 0.728293 0.000000 -0.284297 0.270125 0.000000 -0.473075 -0.026006 0.000000 -0.274506 0.070794 0.000000 -0.290968 0.042746 0.000000 -0.141623 0.124302 0.000000 0.000000 0.112228 0.000000 0.141623 0.124302 0.000000 0.290968 0.042746 0.000000 0.274506 0.070794 0.000000 0.473075 -0.026006 0.000000 0.284297 0.270125 0.000000 1.093866 0.728293 0.000000 1.498651 -0.077774 0.000000 0.752236 -0.217838 0.000000 1.358708 0.457198 0.000000 1.691639 0.347878 0.000000 1.795659 0.123098 0.000000 1.759622 -0.033795 0.000000 1.582059 -0.277590 0.000000 1.185130 -0.520384 0.000000 0.641287 -0.690154 0.000000 
-0.000000 -0.000000 0.000000 -0.754015 0.000000 0.000000 -1.380307 -0.000000 0.000000 -1.794783 -0.000000 0.000000 -1.935488 -0.000000 0.000000 -1.862372 -0.000000 0.000000 -1.689292 -0.000000 0.000000 -1.166617 -0.000000 0.000000 -0.774896 -0.000000 0.000000 -1.602293 0.000000 0.000000 -0.930443 0.000000 0.000000 -0.145708 -0.000000 0.000000 -0.390193 -0.000000 0.000000 -0.197720 -0.000000 0.000000 -0.248604 -0.000000 0.000000 -0.112228 0.000000 0.000000 -0.000000 -0.000000 0.000000 0.112228 0.000000 0.000000 0.248604 -0.000000 0.000000 0.197720 0.000000 0.000000 0.390193 -0.000000 0.000000 0.145708 0.000000 0.000000 0.930443 -0.000000 0.000000 1.602293 -0.000000 0.000000 0.774896 0.000000 0.000000 1.166617 0.000000 0.000000 1.689292 0.000000 0.000000 1.862372 0.000000 0.000000 1.935488 0.000000 0.000000 1.794783 -0.000000 0.000000 1.380307 -0.000000 0.000000 0.754015 -0.000000 0.000000 
0.000000 0.754015 0.000000 -0.641287 0.690154 0.000000 -1.185130 0.520384 0.000000 -1.582059 0.277590 0.000000 -1.759622 0.033795 0.000000 -1.795659 -0.123098 0.000000 -1.691639 -0.347878 0.000000 -1.358708 -0.457198 0.000000 -0.752236 0.217838 0.000000 -1.498651 0.077774 0.000000 -1.093866 -0.728293 0.000000 -0.284297 -0.270125 0.000000 -0.473075 0.026006 0.000000 -0.274506 -0.070794 0.000000 -0.290968 -0.042746 0.000000 -0.141623 -0.124302 0.000000 0.000000 -0.112228 0.000000 0.141623 -0.124302 0.000000 0.290968 -0.042746 0.000000 0.274506 -0.070794 0.000000 0.473075 0.026006 0.000000 0.284297 -0.270125 0.000000 1.093866 -0.728293 0.000000 1.498651 0.077774 0.000000 0.752236 0.217838 0.000000 1.358708 -0.457198 0.000000 1.691639 -0.347878 0.000000 1.795659 -0.123098 0.000000 1.759622 0.033795 0.000000 1.582059 0.277590 0.000000 1.185130 0.520384 0.000000 0.641287 0.690154 0.000000 
-0.000000 1.282575 0.000000 -0.411514 1.185130 0.000000 -0.762202 0.940771 0.000000 -1.063996 0.574493 0.000000 -1.222248 0.213601 0.000000 -1.418224 -0.067984 0.000000 -1.409031 -0.436952 0.000000 -1.641602 -0.939402 0.000000 -0.859455 0.139943 0.000000 -1.014646 0.341629 0.000000 -1.284777 -1.214354 0.000000 -0.614064 -0.620791 0.000000 -0.626009 -0.009791 0.000000 -0.429894 -0.182106 0.000000 -0.352738 -0.132883 0.000000 -0.186058 -0.290968 0.000000 0.000000 -0.283245 0.000000 0.186058 -0.290968 0.000000 0.352738 -0.132883 0.000000 0.429894 -0.182106 0.000000 0.626009 -0.009791 0.000000 0.614064 -0.620791 0.000000 1.284777 -1.214354 0.000000 1.014646 0.341629 0.000000 0.859455 0.139943 0.000000 1.641602 -0.939402 0.000000 1.409031 -0.436952 0.000000 1.418224 -0.067984 0.000000 1.222248 0.213601 0.000000 1.063996 0.574493 0.000000 0.762202 0.940771 0.000000 0.411514 1.185130 0.000000 
-0.000000 1.577043 0.000000 -0.205078 1.452356 0.000000 -0.366403 1.172866 0.000000 -0.533029 0.737636 0.000000 -0.600421 0.388023 0.000000 -0.814609 0.063685 0.000000 -0.834193 -0.124499 0.000000 -1.468629 -1.006774 0.000000 -1.143994 -0.409118 0.000000 -0.354455 0.503095 0.000000 -1.090407 -1.128875 0.000000 -0.874302 -0.928893 0.000000 -0.572435 -0.158163 0.000000 -0.527279 -0.344065 0.000000 -0.392165 -0.286582 0.000000 -0.237151 -0.477040 0.000000 0.000000 -0.484344 0.000000 0.237151 -0.477040 0.000000 0.392165 -0.286582 0.000000 0.527279 -0.344065 0.000000 0.572435 -0.158163 0.000000 0.874302 -0.928893 0.000000 1.090407 -1.128875 0.000000 0.354455 0.503095 0.000000 1.143994 -0.409118 0.000000 1.468629 -1.006774 0.000000 0.834193 -0.124499 0.000000 0.814609 0.063685 0.000000 0.600421 0.388023 0.000000 0.533029 0.737636 0.000000 0.366403 1.172866 0.000000 0.205078 1.452356 0.000000 
-0.000000 1.692731 0.000000 -0.051117 1.551532 0.000000 -0.085387 1.268722 0.000000 -0.145693 0.808511 0.000000 -0.185610 0.495180 0.000000 -0.307805 0.165788 0.000000 -0.412446 0.217069 0.000000 -0.813661 -0.629601 0.000000 -1.498618 -0.974231 0.000000 -0.518360 0.288042 0.000000 -0.657528 -0.694508 0.000000 -1.118981 -1.138763 0.000000 -0.627470 -0.356813 0.000000 -0.507026 -0.362376 0.000000 -0.288360 -0.423012 0.000000 -0.179480 -0.683134 0.000000 0.000000 -0.757547 0.000000 0.179480 -0.683134 0.000000 0.288360 -0.423012 0.000000 0.507026 -0.362376 0.000000 0.627470 -0.356813 0.000000 1.118981 -1.138763 0.000000 0.657528 -0.694508 0.000000 0.518360 0.288042 0.000000 1.498618 -0.974231 0.000000 0.813661 -0.629601 0.000000 0.412446 0.217069 0.000000 0.307805 0.165788 0.000000 0.185610 0.495180 0.000000 0.145693 0.808511 0.000000 0.085387 1.268722 0.000000 0.051117 1.551532 0.000000 
-0.000000 1.679276 0.000000 0.064982 1.537742 0.000000 0.122095 1.267443 0.000000 0.152825 0.837859 0.000000 0.133440 0.550134 0.000000 0.125449 0.290521 0.000000 -0.011089 0.381357 0.000000 0.027996 0.079398 0.000000 -1.058524 -0.704419 0.000000 -0.918295 -0.337995 0.000000 -0.423439 -0.528254 0.000000 -0.965922 -0.958950 0.000000 -0.574043 -0.770118 0.000000 -0.353647 -0.683174 0.000000 -0.231515 -0.614128 0.000000 -0.140990 -0.765401 0.000000 0.000000 -0.843304 0.000000 0.140990 -0.765401 0.000000 0.231515 -0.614128 0.000000 0.353647 -0.683174 0.000000 0.574043 -0.770118 0.000000 0.965922 -0.958950 0.000000 0.423439 -0.528254 0.000000 0.918295 -0.337995 0.000000 1.058524 -0.704419 0.000000 -0.027996 0.079398 0.000000 0.011089 0.381357 0.000000 -0.125449 0.290521 0.000000 -0.133440 0.550134 0.000000 -0.152825 0.837859 0.000000 -0.122095 1.267443 0.000000 -0.064982 1.537742 0.000000 
-0.000000 1.562768 0.000000 0.148277 1.429437 0.000000 0.272423 1.180879 0.000000 0.367975 0.797166 0.000000 0.391436 0.522556 0.000000 0.447104 0.310317 0.000000 0.403620 0.314522 0.000000 0.597515 0.417834 0.000000 0.164491 -0.027941 0.000000 -0.413220 -0.347043 0.000000 -0.467495 -0.646880 0.000000 -0.861248 -0.988160 0.000000 -0.671981 -0.969088 0.000000 -0.094083 -0.704905 0.000000 0.242142 -0.635669 0.000000 0.204364 -0.914648 0.000000 -0.000000 -1.039527 0.000000 -0.204364 -0.914648 0.000000 -0.242142 -0.635669 0.000000 0.094083 -0.704905 0.000000 0.671981 -0.969088 0.000000 0.861248 -0.988160 0.000000 0.467495 -0.646880 0.000000 0.413220 -0.347043 0.000000 -0.164491 -0.027941 0.000000 -0.597515 0.417834 0.000000 -0.403620 0.314522 0.000000 -0.447104 0.310317 0.000000 -0.391436 0.522556 0.000000 -0.367975 0.797166 0.000000 -0.272423 1.180879 0.000000 -0.148277 1.429437 0.000000 
-0.000000 1.382723 0.000000 0.201371 1.265319 0.000000 0.367837 1.047745 0.000000 0.504210 0.718847 0.000000 0.561427 0.471005 0.000000 0.644143 0.278337 0.000000 0.668495 0.230946 0.000000 0.841025 0.318526 0.000000 0.978431 0.306316 0.000000 0.700905 0.293991 0.000000 0.549768 -0.080226 0.000000 -0.003431 -0.754465 0.000000 -0.989781 -1.537283 0.000000 -1.205525 -1.597297 0.000000 -0.535895 -0.912576 0.000000 -0.084892 -0.523259 0.000000 0.000000 -0.434576 0.000000 0.084892 -0.523259 0.000000 0.535895 -0.912576 0.000000 1.205525 -1.597297 0.000000 0.989781 -1.537283 0.000000 0.003431 -0.754465 0.000000 -0.549768 -0.080226 0.000000 -0.700905 0.293991 0.000000 -0.978431 0.306316 0.000000 -0.841025 0.318526 0.000000 -0.668495 0.230946 0.000000 -0.644143 0.278337 0.000000 -0.561427 0.471005 0.000000 -0.504210 0.718847 0.000000 -0.367837 1.047745 0.000000 -0.201371 1.265319 0.000000 
0.000000 1.160026 0.000000 0.227643 1.061600 0.000000 0.416321 0.878040 0.000000 0.575997 0.603577 0.000000 0.658727 0.382623 0.000000 0.765024 0.203249 0.000000 0.821914 0.117640 0.000000 1.001115 0.107898 0.000000 1.209192 0.112180 0.000000 1.471271 0.081620 0.000000 1.719820 0.057455 0.000000 1.912792 0.551390 0.000000 1.504365 0.233006 0.000000 0.270822 -1.158791 0.000000 -0.698449 -1.756302 0.000000 -0.566810 -1.450543 0.000000 0.000000 -1.209311 0.000000 0.566810 -1.450543 0.000000 0.698449 -1.756302 0.000000 -0.270822 -1.158791 0.000000 -1.504365 0.233006 0.000000 -1.912792 0.551390 0.000000 -1.719820 0.057455 0.000000 -1.471271 0.081620 0.000000 -1.209192 0.112180 0.000000 -1.001115 0.107898 0.000000 -0.821914 0.117640 0.000000 -0.765024 0.203249 0.000000 -0.658727 0.382623 0.000000 -0.575997 0.603577 0.000000 -0.416321 0.878040 0.000000 -0.227643 1.061600 0.000000 
0.000000 0.927437 0.000000 0.226431 0.848998 0.000000 0.414753 0.699390 0.000000 0.575070 0.476441 0.000000 0.665862 0.281978 0.000000 0.770672 0.115150 0.000000 0.833680 -0.005145 0.000000 0.981054 -0.068751 0.000000 1.120803 -0.163841 0.000000 1.378477 -0.216637 0.000000 1.528227 -0.521747 0.000000 1.924464 -0.539009 0.000000 2.598631 0.104686 0.000000 2.876680 0.605517 0.000000 2.196738 -0.074943 0.000000 1.008030 -1.221708 0.000000 -0.000000 -1.568196 0.000000 -1.008030 -1.221708 0.000000 -2.196738 -0.074943 0.000000 -2.876680 0.605517 0.000000 -2.598631 0.104686 0.000000 -1.924464 -0.539009 0.000000 -1.528227 -0.521747 0.000000 -1.378477 -0.216637 0.000000 -1.120803 -0.163841 0.000000 -0.981054 -0.068751 0.000000 -0.833680 -0.005145 0.000000 -0.770672 0.115150 0.000000 -0.665862 0.281978 0.000000 -0.575070 0.476441 0.000000 -0.414753 0.699390 0.000000 -0.226431 0.848998 0.000000 
0.000000 0.707164 0.000000 0.207574 0.646848 0.000000 0.381611 0.529401 0.000000 0.530831 0.352468 0.000000 0.621553 0.187021 0.000000 0.719339 0.035430 0.000000 0.783991 -0.092742 0.000000 0.898909 -0.179225 0.000000 1.007460 -0.285243 0.000000 1.147491 -0.325804 0.000000 1.261899 -0.488532 0.000000 1.181769 -0.519014 0.000000 1.258672 -0.719209 0.000000 1.648501 -0.756898 0.000000 2.050165 0.112347 0.000000 1.408988 0.746196 0.000000 -0.000000 0.806749 0.000000 -1.408988 0.746196 0.000000 -2.050165 0.112347 0.000000 -1.648501 -0.756898 0.000000 -1.258672 -0.719209 0.000000 -1.181769 -0.519014 0.000000 -1.261899 -0.488532 0.000000 -1.147491 -0.325804 0.000000 -1.007460 -0.285243 0.000000 -0.898909 -0.179225 0.000000 -0.783991 -0.092742 0.000000 -0.719339 0.035430 0.000000 -0.621553 0.187021 0.000000 -0.530831 0.352468 0.000000 -0.381611 0.529401 0.000000 -0.207574 0.646848 0.000000 
0.000000 0.512289 0.000000 0.176398 0.467387 0.000000 0.325087 0.376133 0.000000 0.452858 0.236499 0.000000 0.532622 0.093470 0.000000 0.614231 -0.047288 0.000000 0.667050 -0.184714 0.000000 0.750543 -0.292220 0.000000 0.824047 -0.412422 0.000000 0.912363 -0.471077 0.000000 0.996212 -0.556025 0.000000 0.975688 -0.535782 0.000000 0.992566 -0.362045 0.000000 0.669207 -0.185977 0.000000 0.412791 0.164570 0.000000 0.347890 0.828458 0.000000 -0.000000 1.249779 0.000000 -0.347890 0.828458 0.000000 -0.412791 0.164570 0.000000 -0.669207 -0.185977 0.000000 -0.992566 -0.362045 0.000000 -0.975688 -0.535782 0.000000 -0.996212 -0.556025 0.000000 -0.912363 -0.471077 0.000000 -0.824047 -0.412422 0.000000 -0.750543 -0.292220 0.000000 -0.667050 -0.184714 0.000000 -0.614231 -0.047288 0.000000 -0.532622 0.093470 0.000000 -0.452858 0.236499 0.000000 -0.325087 0.376133 0.000000 -0.176398 0.467387 0.000000 
0.000000 0.354369 0.000000 0.141901 0.321760 0.000000 0.261760 0.252940 0.000000 0.363260 0.144933 0.000000 0.425099 0.025648 0.000000 0.480131 -0.098997 0.000000 0.507146 -0.229053 0.000000 0.538888 -0.336222 0.000000 0.555730 -0.447063 0.000000 0.556215 -0.497969 0.000000 0.551492 -0.551858 0.000000 0.469755 -0.515368 0.000000 0.408639 -0.412728 0.000000 0.321255 -0.177123 0.000000 0.149301 0.433664 0.000000 -0.005842 1.158986 0.000000 -0.000000 1.502529 0.000000 0.005842 1.158986 0.000000 -0.149301 0.433664 0.000000 -0.321255 -0.177123 0.000000 -0.408639 -0.412728 0.000000 -0.469755 -0.515368 0.000000 -0.551492 -0.551858 0.000000 -0.556215 -0.497969 0.000000 -0.555730 -0.447063 0.000000 -0.538888 -0.336222 0.000000 -0.507146 -0.229053 0.000000 -0.480131 -0.098997 0.000000 -0.425099 0.025648 0.000000 -0.363260 0.144933 0.000000 -0.261760 0.252940 0.000000 -0.141901 0.321760 0.000000 
0.000000 0.228487 0.000000 0.109908 0.205627 0.000000 0.201899 0.154774 0.000000 0.276964 0.073160 0.000000 0.316558 -0.023401 0.000000 0.341410 -0.129335 0.000000 0.334293 -0.243471 0.000000 0.314944 -0.340804 0.000000 0.274083 -0.429750 0.000000 0.209403 -0.466839 0.000000 0.142141 -0.469565 0.000000 0.019222 -0.392929 0.000000 -0.083792 -0.213546 0.000000 -0.252829 0.073362 0.000000 -0.358932 0.491667 0.000000 -0.272824 0.977758 0.000000 -0.000000 1.238096 0.000000 0.272824 0.977758 0.000000 0.358932 0.491667 0.000000 0.252829 0.073362 0.000000 0.083792 -0.213546 0.000000 -0.019222 -0.392929 0.000000 -0.142141 -0.469565 0.000000 -0.209403 -0.466839 0.000000 -0.274083 -0.429750 0.000000 -0.314944 -0.340804 0.000000 -0.334293 -0.243471 0.000000 -0.341410 -0.129335 0.000000 -0.316558 -0.023401 0.000000 -0.276964 0.073160 0.000000 -0.201899 0.154774 0.000000 -0.109908 0.205627 0.000000 
0.000000 0.134554 0.000000 0.083703 0.119861 0.000000 0.151801 0.085883 0.000000 0.201951 0.030274 0.000000 0.217065 -0.038797 0.000000 0.207119 -0.116731 0.000000 0.158158 -0.202588 0.000000 0.079962 -0.276013 0.000000 -0.026735 -0.341522 0.000000 -0.160843 -0.366027 0.000000 -0.292650 -0.361677 0.000000 -0.438295 -0.289435 0.000000 -0.539180 -0.140677 0.000000 -0.597050 0.098017 0.000000 -0.550849 0.453659 0.000000 -0.366813 0.800055 0.000000 -0.000000 0.956882 0.000000 0.366813 0.800055 0.000000 0.550849 0.453659 0.000000 0.597050 0.098017 0.000000 0.539180 -0.140677 0.000000 0.438295 -0.289435 0.000000 0.292650 -0.361677 0.000000 0.160843 -0.366027 0.000000 0.026735 -0.341522 0.000000 -0.079962 -0.276013 0.000000 -0.158158 -0.202588 0.000000 -0.207119 -0.116731 0.000000 -0.217065 -0.038797 0.000000 -0.201951 0.030274 0.000000 -0.151801 0.085883 0.000000 -0.083703 0.119861 0.000000 
0.000000 0.061080 0.000000 0.067277 0.053825 0.000000 0.119861 0.036526 0.000000 0.153160 0.007897 0.000000 0.150135 -0.028569 0.000000 0.114363 -0.070428 0.000000 0.033404 -0.116314 0.000000 -0.088224 -0.155911 0.000000 -0.242609 -0.188945 0.000000 -0.429746 -0.200925 0.000000 -0.608636 -0.192112 0.000000 -0.791424 -0.146398 0.000000 -0.898072 -0.054791 0.000000 -0.932100 0.085031 0.000000 -0.800055 0.261430 0.000000 -0.478441 0.426909 0.000000 -0.000000 0.504470 0.000000 0.478441 0.426909 0.000000 0.800055 0.261430 0.000000 0.932100 0.085031 0.000000 0.898072 -0.054791 0.000000 0.791424 -0.146398 0.000000 0.608636 -0.192112 0.000000 0.429746 -0.200925 0.000000 0.242609 -0.188945 0.000000 0.088224 -0.155911 0.000000 -0.033404 -0.116314 0.000000 -0.114363 -0.070428 0.000000 -0.150135 -0.028569 0.000000 -0.153160 0.007897 0.000000 -0.119861 0.036526 0.000000 -0.067277 0.053825 0.000000 
