# vtk DataFile Version 2.0
Comment goes here
ASCII

DATASET STRUCTURED_POINTS
FIELD FieldData 1
TIME 1 1 double
0.08000000
DIMENSIONS    32   32   1

ORIGIN    0.000   0.000   0.000
SPACING   0.03125 0.03125   1.000

POINT_DATA   1024
VECTORS u double

0.000000 -0.000000 0.000000 0.040225 0.000000 0.000000 0.079024 -0.000000 0.000000 0.114933 -0.000000 0.000000 0.148147 -0.000000 0.000000 0.175430 -0.000000 0.000000 0.200948 -0.000000 0.000000 0.218178 -0.000000 0.000000 0.232970 -0.000000 0.000000 0.232279 -0.000000 0.000000 0.223964 -0.000000 0.000000 0.194111 -0.000000 0.000000 0.158584 -0.000000 0.000000 0.105837 -0.000000 0.000000 0.063877 -0.000000 0.000000 -0.032556 -0.000000 0.000000 -0.000000 0.000000 0.000000 0.032556 -0.000000 0.000000 -0.063877 0.000000 0.000000 -0.105837 0.000000 0.000000 -0.158584 0.000000 0.000000 -0.194111 0.000000 0.000000 -0.223964 0.000000 0.000000 -0.232279 0.000000 0.000000 -0.232970 0.000000 0.000000 -0.218178 0.000000 0.000000 -0.200948 0.000000 0.000000 -0.175430 0.000000 0.000000 -0.148147 0.000000 0.000000 -0.114933 0.000000 0.000000 -0.079024 -0.000000 0.000000 -0.040225 0.000000 0.000000 
0.000000 -0.040225 0.000000 0.040595 -0.039512 0.000000 0.078819 -0.037354 0.000000 0.115240 -0.034561 0.000000 0.146125 -0.030249 0.000000 0.173469 -0.026401 0.000000 0.194700 -0.021374 0.000000 0.211940 -0.016011 0.000000 0.223077 -0.007050 0.000000 0.222841 0.004503 0.000000 0.217691 0.019084 0.000000 0.194640 0.032690 0.000000 0.158286 0.044137 0.000000 0.105220 0.047354 0.000000 0.022685 0.069196 0.000000 -0.103685 0.031938 0.000000 -0.000000 -0.032556 0.000000 0.103685 0.031938 0.000000 -0.022685 0.069196 0.000000 -0.105220 0.047354 0.000000 -0.158286 0.044137 0.000000 -0.194640 0.032690 0.000000 -0.217691 0.019084 0.000000 -0.222841 0.004503 0.000000 -0.223077 -0.007050 0.000000 -0.211940 -0.016011 0.000000 -0.194700 -0.021374 0.000000 -0.173469 -0.026401 0.000000 -0.146125 -0.030249 0.000000 -0.115240 -0.034561 0.000000 -0.078819 -0.037354 0.000000 -0.040595 -0.039512 0.000000 
0.000000 -0.081190 0.000000 0.043217 -0.078819 0.000000 0.084138 -0.074645 0.000000 0.122438 -0.067306 0.000000 0.156594 -0.058229 0.000000 0.184833 -0.048575 0.000000 0.212111 -0.038471 0.000000 0.233077 -0.028377 0.000000 0.254063 -0.010902 0.000000 0.258708 0.005386 0.000000 0.254961 0.028201 0.000000 0.223208 0.059405 0.000000 0.182700 0.089420 0.000000 0.107320 0.135602 0.000000 -0.085612 0.208905 0.000000 -0.184248 0.022685 0.000000 -0.000000 -0.207370 0.000000 0.184248 0.022685 0.000000 0.085612 0.208905 0.000000 -0.107320 0.135602 0.000000 -0.182700 0.089420 0.000000 -0.223208 0.059405 0.000000 -0.254961 0.028201 0.000000 -0.258708 0.005386 0.000000 -0.254063 -0.010902 0.000000 -0.233077 -0.028377 0.000000 -0.212111 -0.038471 0.000000 -0.184833 -0.048575 0.000000 -0.156594 -0.058229 0.000000 -0.122438 -0.067306 0.000000 -0.084138 -0.074645 0.000000 -0.043217 -0.078819 0.000000 
0.000000 -0.126658 0.000000 0.047367 -0.123650 0.000000 0.090650 -0.116575 0.000000 0.132476 -0.107018 0.000000 0.165334 -0.092644 0.000000 0.194487 -0.081917 0.000000 0.217099 -0.069617 0.000000 0.240375 -0.057963 0.000000 0.256767 -0.032681 0.000000 0.263632 0.003606 0.000000 0.276362 0.054584 0.000000 0.274444 0.104951 0.000000 0.252097 0.160025 0.000000 0.161380 0.315665 0.000000 -0.014286 0.360764 0.000000 0.002794 -0.053673 0.000000 -0.000000 -0.401052 0.000000 -0.002794 -0.053673 0.000000 0.014286 0.360764 0.000000 -0.161380 0.315665 0.000000 -0.252097 0.160025 0.000000 -0.274444 0.104951 0.000000 -0.276362 0.054584 0.000000 -0.263632 0.003606 0.000000 -0.256767 -0.032681 0.000000 -0.240375 -0.057963 0.000000 -0.217099 -0.069617 0.000000 -0.194487 -0.081917 0.000000 -0.165334 -0.092644 0.000000 -0.132476 -0.107018 0.000000 -0.090650 -0.116575 0.000000 -0.047367 -0.123650 0.000000 
0.000000 -0.175924 0.000000 0.053638 -0.169468 0.000000 0.101376 -0.159753 0.000000 0.147733 -0.141991 0.000000 0.182326 -0.120240 0.000000 0.210200 -0.100340 0.000000 0.241042 -0.084359 0.000000 0.266641 -0.068045 0.000000 0.310606 -0.034159 0.000000 0.349968 -0.014209 0.000000 0.372415 0.017389 0.000000 0.371656 0.083670 0.000000 0.335468 0.202483 0.000000 0.218348 0.401985 0.000000 0.194902 0.367492 0.000000 0.256929 0.008399 0.000000 -0.000000 -0.201782 0.000000 -0.256929 0.008399 0.000000 -0.194902 0.367492 0.000000 -0.218348 0.401985 0.000000 -0.335468 0.202483 0.000000 -0.371656 0.083670 0.000000 -0.372415 0.017389 0.000000 -0.349968 -0.014209 0.000000 -0.310606 -0.034159 0.000000 -0.266641 -0.068045 0.000000 -0.241042 -0.084359 0.000000 -0.210200 -0.100340 0.000000 -0.182326 -0.120240 0.000000 -0.147733 -0.141991 0.000000 -0.101376 -0.159753 0.000000 -0.053638 -0.169468 0.000000 
0.000000 -0.233935 0.000000 0.063921 -0.225025 0.000000 0.118990 -0.210670 0.000000 0.173668 -0.187968 0.000000 0.207546 -0.155110 0.000000 0.234055 -0.140633 0.000000 0.258189 -0.126059 0.000000 0.273232 -0.127527 0.000000 0.297638 -0.116008 0.000000 0.325368 -0.058204 0.000000 0.387836 0.032896 0.000000 0.412113 0.141898 0.000000 0.335986 0.313333 0.000000 0.206321 0.456231 0.000000 0.306060 0.322182 0.000000 0.319313 0.141228 0.000000 -0.000000 0.112807 0.000000 -0.319313 0.141228 0.000000 -0.306060 0.322182 0.000000 -0.206321 0.456231 0.000000 -0.335986 0.313333 0.000000 -0.412113 0.141898 0.000000 -0.387836 0.032896 0.000000 -0.325368 -0.058204 0.000000 -0.297638 -0.116008 0.000000 -0.273232 -0.127527 0.000000 -0.258189 -0.126059 0.000000 -0.234055 -0.140633 0.000000 -0.207546 -0.155110 0.000000 -0.173668 -0.187968 0.000000 -0.118990 -0.210670 0.000000 -0.063921 -0.225025 0.000000 
0.000000 -0.303766 0.000000 0.077381 -0.288458 0.000000 0.140036 -0.269501 0.000000 0.205329 -0.230547 0.000000 0.231572 -0.180627 0.000000 0.244377 -0.150983 0.000000 0.254768 -0.123535 0.000000 0.231892 -0.107493 0.000000 0.329438 -0.086295 0.000000 0.431075 -0.104408 0.000000 0.375233 -0.069356 0.000000 0.148608 0.135520 0.000000 -0.133314 0.408275 0.000000 -0.145166 0.431911 0.000000 0.100993 0.254500 0.000000 0.148560 0.314458 0.000000 -0.000000 0.436844 0.000000 -0.148560 0.314458 0.000000 -0.100993 0.254500 0.000000 0.145166 0.431911 0.000000 0.133314 0.408275 0.000000 -0.148608 0.135520 0.000000 -0.375233 -0.069356 0.000000 -0.431075 -0.104408 0.000000 -0.329438 -0.086295 0.000000 -0.231892 -0.107493 0.000000 -0.254768 -0.123535 0.000000 -0.244377 -0.150983 0.000000 -0.231572 -0.180627 0.000000 -0.205329 -0.230547 0.000000 -0.140036 -0.269501 0.000000 -0.077381 -0.288458 0.000000 
0.000000 -0.388696 0.000000 0.098704 -0.365061 0.000000 0.179006 -0.338619 0.000000 0.263877 -0.279504 0.000000 0.289206 -0.194158 0.000000 0.287451 -0.163830 0.000000 0.248406 -0.113574 0.000000 0.222608 -0.202197 0.000000 0.068194 -0.315191 0.000000 -0.203735 -0.103998 0.000000 -0.452806 0.315363 0.000000 -0.665108 0.650445 0.000000 -0.611331 0.607107 0.000000 -0.321693 0.221924 0.000000 -0.071438 0.028456 0.000000 0.008492 0.242222 0.000000 -0.000000 0.409928 0.000000 -0.008492 0.242222 0.000000 0.071438 0.028456 0.000000 0.321693 0.221924 0.000000 0.611331 0.607107 0.000000 0.665108 0.650445 0.000000 0.452806 0.315363 0.000000 0.203735 -0.103998 0.000000 -0.068194 -0.315191 0.000000 -0.222608 -0.202197 0.000000 -0.248406 -0.113574 0.000000 -0.287451 -0.163830 0.000000 -0.289206 -0.194158 0.000000 -0.263877 -0.279504 0.000000 -0.179006 -0.338619 0.000000 -0.098704 -0.365061 0.000000 
0.000000 -0.501175 0.000000 0.127974 -0.467464 0.000000 0.228288 -0.434673 0.000000 0.349888 -0.340747 0.000000 0.341151 -0.204201 0.000000 0.266433 -0.110183 0.000000 0.004300 -0.058693 0.000000 -0.319193 0.072718 0.000000 -0.390839 0.340048 0.000000 -0.441714 0.416592 0.000000 -0.717584 0.392017 0.000000 -0.830908 0.294045 0.000000 -0.742616 0.064861 0.000000 -0.700140 -0.107982 0.000000 -0.533852 -0.075686 0.000000 -0.282531 0.243020 0.000000 -0.000000 0.453829 0.000000 0.282531 0.243020 0.000000 0.533852 -0.075686 0.000000 0.700140 -0.107982 0.000000 0.742616 0.064861 0.000000 0.830908 0.294045 0.000000 0.717584 0.392017 0.000000 0.441714 0.416592 0.000000 0.390839 0.340048 0.000000 0.319193 0.072718 0.000000 -0.004300 -0.058693 0.000000 -0.266433 -0.110183 0.000000 -0.341151 -0.204201 0.000000 -0.349888 -0.340747 0.000000 -0.228288 -0.434673 0.000000 -0.127974 -0.467464 0.000000 
0.000000 -0.644644 0.000000 0.165636 -0.593349 0.000000 0.307145 -0.560533 0.000000 0.485085 -0.392367 0.000000 0.439268 -0.110703 0.000000 0.149224 0.173022 0.000000 -0.178752 0.472052 0.000000 -0.266053 0.192941 0.000000 -0.632477 -0.192670 0.000000 -1.195776 0.222747 0.000000 -1.797793 0.704557 0.000000 -2.101021 0.675478 0.000000 -2.240332 0.476339 0.000000 -2.072753 0.013160 0.000000 -1.656517 -0.389153 0.000000 -1.036294 -0.291630 0.000000 0.000000 -0.155134 0.000000 1.036294 -0.291630 0.000000 1.656517 -0.389153 0.000000 2.072753 0.013160 0.000000 2.240332 0.476339 0.000000 2.101021 0.675478 0.000000 1.797793 0.704557 0.000000 1.195776 0.222747 0.000000 0.632477 -0.192670 0.000000 0.266053 0.192941 0.000000 0.178752 0.472052 0.000000 -0.149224 0.173022 0.000000 -0.439268 -0.110703 0.000000 -0.485085 -0.392367 0.000000 -0.307145 -0.560533 0.000000 -0.165636 -0.593349 0.000000 
-0.000000 -0.832448 0.000000 0.210535 -0.774609 0.000000 0.418127 -0.754121 0.000000 0.705168 -0.472870 0.000000 0.471381 0.131660 0.000000 -0.003763 0.507837 0.000000 -0.456226 0.356584 0.000000 -1.037548 0.526444 0.000000 -2.333307 1.269770 0.000000 -3.136700 1.581908 0.000000 -3.211328 1.297262 0.000000 -2.735199 0.736585 0.000000 -1.995597 0.036593 0.000000 -1.283076 -0.691797 0.000000 -0.997736 -1.112146 0.000000 -0.685925 -1.413497 0.000000 0.000000 -1.618758 0.000000 0.685925 -1.413497 0.000000 0.997736 -1.112146 0.000000 1.283076 -0.691797 0.000000 1.995597 0.036593 0.000000 2.735199 0.736585 0.000000 3.211328 1.297262 0.000000 3.136700 1.581908 0.000000 2.333307 1.269770 0.000000 1.037548 0.526444 0.000000 0.456226 0.356584 0.000000 0.003763 0.507837 0.000000 -0.471381 0.131660 0.000000 -0.705168 -0.472870 0.000000 -0.418127 -0.754121 0.000000 -0.210535 -0.774609 0.000000 
-0.000000 -1.065714 0.000000 0.236135 -1.011476 0.000000 0.531622 -1.055165 0.000000 0.833023 -0.445621 0.000000 0.025509 0.598227 0.000000 -0.760218 1.100629 0.000000 -1.129823 1.505837 0.000000 -1.903181 2.070022 0.000000 -2.106721 1.906482 0.000000 -1.573160 1.100768 0.000000 -1.004203 0.303056 0.000000 -0.079607 -0.540252 0.000000 0.788329 -0.975785 0.000000 0.898679 -0.984702 0.000000 0.614222 -0.986304 0.000000 0.372921 -1.289366 0.000000 0.000000 -1.526984 0.000000 -0.372921 -1.289366 0.000000 -0.614222 -0.986304 0.000000 -0.898679 -0.984702 0.000000 -0.788329 -0.975785 0.000000 0.079607 -0.540252 0.000000 1.004203 0.303056 0.000000 1.573160 1.100768 0.000000 2.106721 1.906482 0.000000 1.903181 2.070022 0.000000 1.129823 1.505837 0.000000 0.760218 1.100629 0.000000 -0.025509 0.598227 0.000000 -0.833023 -0.445621 0.000000 -0.531622 -1.055165 0.000000 -0.236135 -1.011476 0.000000 
-0.000000 -1.304717 0.000000 0.178325 -1.306231 0.000000 0.541013 -1.351010 0.000000 0.316607 0.033243 0.000000 -0.911657 1.724901 0.000000 -0.972787 1.663170 0.000000 -0.652409 1.499547 0.000000 -0.498757 1.503341 0.000000 0.355400 0.939749 0.000000 0.389840 0.479390 0.000000 0.459617 -0.196291 0.000000 0.923181 -1.055948 0.000000 1.132641 -0.941692 0.000000 0.848594 -0.517690 0.000000 0.621260 -0.586388 0.000000 0.431610 -0.799275 0.000000 -0.000000 -0.872917 0.000000 -0.431610 -0.799275 0.000000 -0.621260 -0.586388 0.000000 -0.848594 -0.517690 0.000000 -1.132641 -0.941692 0.000000 -0.923181 -1.055948 0.000000 -0.459617 -0.196291 0.000000 -0.389840 0.479390 0.000000 -0.355400 0.939749 0.000000 0.498757 1.503341 0.000000 0.652409 1.499547 0.000000 0.972787 1.663170 0.000000 0.911657 1.724901 0.000000 -0.316607 0.033243 0.000000 -0.541013 -1.351010 0.000000 -0.178325 -1.306231 0.000000 
-0.000000 -1.422364 0.000000 -0.048273 -1.552489 0.000000 0.129280 -1.193448 0.000000 -0.895291 1.007048 0.000000 -1.207166 1.887621 0.000000 -0.134333 0.841381 0.000000 -0.003749 1.031808 0.000000 0.278674 1.062212 0.000000 0.657478 1.017885 0.000000 0.351989 0.996550 0.000000 0.399047 -0.230284 0.000000 0.555217 -1.213276 0.000000 0.460367 -0.901198 0.000000 0.405500 -0.473321 0.000000 0.369998 -0.569320 0.000000 0.231795 -0.668106 0.000000 -0.000000 -0.663764 0.000000 -0.231795 -0.668106 0.000000 -0.369998 -0.569320 0.000000 -0.405500 -0.473321 0.000000 -0.460367 -0.901198 0.000000 -0.555217 -1.213276 0.000000 -0.399047 -0.230284 0.000000 -0.351989 0.996550 0.000000 -0.657478 1.017885 0.000000 -0.278674 1.062212 0.000000 0.003749 1.031808 0.000000 0.134333 0.841381 0.000000 1.207166 1.887621 0.000000 0.895291 1.007048 0.000000 -0.129280 -1.193448 0.000000 0.048273 -1.552489 0.000000 
-0.000000 -1.208170 0.000000 -0.389955 -1.435511 0.000000 -0.764054 -0.503992 0.000000 -1.563959 1.369689 0.000000 -0.582294 0.963943 0.000000 0.106182 0.459752 0.000000 -0.145497 1.086541 0.000000 0.502490 0.842115 0.000000 0.716160 0.866434 0.000000 0.987399 0.737820 0.000000 1.169264 -0.399519 0.000000 0.924309 -1.117268 0.000000 0.589506 -0.791975 0.000000 0.521009 -0.427321 0.000000 0.419252 -0.412683 0.000000 0.214603 -0.429276 0.000000 -0.000000 -0.409326 0.000000 -0.214603 -0.429276 0.000000 -0.419252 -0.412683 0.000000 -0.521009 -0.427321 0.000000 -0.589506 -0.791975 0.000000 -0.924309 -1.117268 0.000000 -1.169264 -0.399519 0.000000 -0.987399 0.737820 0.000000 -0.716160 0.866434 0.000000 -0.502490 0.842115 0.000000 0.145497 1.086541 0.000000 -0.106182 0.459752 0.000000 0.582294 0.963943 0.000000 1.563959 1.369689 0.000000 0.764054 -0.503992 0.000000 0.389955 -1.435511 0.000000 
0.000000 -0.642454 0.000000 -0.604085 -0.788435 0.000000 -1.435511 -0.019444 0.000000 -1.108078 0.825288 0.000000 -0.065823 0.217481 0.000000 -0.144135 0.404585 0.000000 0.393930 0.635500 0.000000 0.942406 0.200555 0.000000 1.236045 0.532975 0.000000 1.808840 0.543446 0.000000 1.973865 -0.167194 0.000000 1.409322 -0.633518 0.000000 0.856597 -0.497898 0.000000 0.617346 -0.303067 0.000000 0.429276 -0.262914 0.000000 0.204663 -0.248854 0.000000 -0.000000 -0.234557 0.000000 -0.204663 -0.248854 0.000000 -0.429276 -0.262914 0.000000 -0.617346 -0.303067 0.000000 -0.856597 -0.497898 0.000000 -1.409322 -0.633518 0.000000 -1.973865 -0.167194 0.000000 -1.808840 0.543446 0.000000 -1.236045 0.532975 0.000000 -0.942406 0.200555 0.000000 -0.393930 0.635500 0.000000 0.144135 0.404585 0.000000 0.065823 0.217481 0.000000 1.108078 0.825288 0.000000 1.435511 -0.019444 0.000000 0.604085 -0.788435 0.000000 
0.000000 -0.000000 0.000000 -0.642454 -0.000000 0.000000 -1.576871 0.000000 0.000000 -0.681342 0.000000 0.000000 0.073706 0.000000 0.000000 -0.246380 0.000000 0.000000 0.882876 -0.000000 0.000000 1.024620 -0.000000 0.000000 1.283986 0.000000 0.000000 2.090569 0.000000 0.000000 2.370878 -0.000000 0.000000 1.756181 -0.000000 0.000000 1.103843 -0.000000 0.000000 0.760384 0.000000 0.000000 0.497709 -0.000000 0.000000 0.234557 -0.000000 0.000000 0.000000 0.000000 0.000000 -0.234557 -0.000000 0.000000 -0.497709 0.000000 0.000000 -0.760384 -0.000000 0.000000 -1.103843 0.000000 0.000000 -1.756181 -0.000000 0.000000 -2.370878 -0.000000 0.000000 -2.090569 -0.000000 0.000000 -1.283986 -0.000000 0.000000 -1.024620 0.000000 0.000000 -0.882876 -0.000000 0.000000 0.246380 0.000000 0.000000 -0.073706 -0.000000 0.000000 0.681342 -0.000000 0.000000 1.576871 -0.000000 0.000000 0.642454 -0.000000 0.000000 
-0.000000 0.642454 0.000000 -0.604085 0.788435 0.000000 -1.435511 0.019444 0.000000 -1.108078 -0.825288 0.000000 -0.065823 -0.217481 0.000000 -0.144135 -0.404585 0.000000 0.393930 -0.635500 0.000000 0.942406 -0.200555 0.000000 1.236045 -0.532975 0.000000 1.808840 -0.543446 0.000000 1.973865 0.167194 0.000000 1.409322 0.633518 0.000000 0.856597 0.497898 0.000000 0.617346 0.303067 0.000000 0.429276 0.262914 0.000000 0.204663 0.248854 0.000000 -0.000000 0.234557 0.000000 -0.204663 0.248854 0.000000 -0.429276 0.262914 0.000000 -0.617346 0.303067 0.000000 -0.856597 0.497898 0.000000 -1.409322 0.633518 0.000000 -1.973865 0.167194 0.000000 -1.808840 -0.543446 0.000000 -1.236045 -0.532975 0.000000 -0.942406 -0.200555 0.000000 -0.393930 -0.635500 0.000000 0.144135 -0.404585 0.000000 0.065823 -0.217481 0.000000 1.108078 -0.825288 0.000000 1.435511 0.019444 0.000000 0.604085 0.788435 0.000000 
-0.000000 1.208170 0.000000 -0.389955 1.435511 0.000000 -0.764054 0.503992 0.000000 -1.563959 -1.369689 0.000000 -0.582294 -0.963943 0.000000 0.106182 -0.459752 0.000000 -0.145497 -1.086541 0.000000 0.502490 -0.842115 0.000000 0.716160 -0.866434 0.000000 0.987399 -0.737820 0.000000 1.169264 0.399519 0.000000 0.924309 1.117268 0.000000 0.589506 0.791975 0.000000 0.521009 0.427321 0.000000 0.419252 0.412683 0.000000 0.214603 0.429276 0.000000 -0.000000 0.409326 0.000000 -0.214603 0.429276 0.000000 -0.419252 0.412683 0.000000 -0.521009 0.427321 0.000000 -0.589506 0.791975 0.000000 -0.924309 1.117268 0.000000 -1.169264 0.399519 0.000000 -0.987399 -0.737820 0.000000 -0.716160 -0.866434 0.000000 -0.502490 -0.842115 0.000000 0.145497 -1.086541 0.000000 -0.106182 -0.459752 0.000000 0.582294 -0.963943 0.000000 1.563959 -1.369689 0.000000 0.764054 0.503992 0.000000 0.389955 1.435511 0.000000 
-0.000000 1.422364 0.000000 -0.048273 1.552489 0.000000 0.129280 1.193448 0.000000 -0.895291 -1.007048 0.000000 -1.207166 -1.887621 0.000000 -0.134333 -0.841381 0.000000 -0.003749 -1.031808 0.000000 0.278674 -1.062212 0.000000 0.657478 -1.017885 0.000000 0.351989 -0.996550 0.000000 0.399047 0.230284 0.000000 0.555217 1.213276 0.000000 0.460367 0.901198 0.000000 0.405500 0.473321 0.000000 0.369998 0.569320 0.000000 0.231795 0.668106 0.000000 -0.000000 0.663764 0.000000 -0.231795 0.668106 0.000000 -0.369998 0.569320 0.000000 -0.405500 0.473321 0.000000 -0.460367 0.901198 0.000000 -0.555217 1.213276 0.000000 -0.399047 0.230284 0.000000 -0.351989 -0.996550 0.000000 -0.657478 -1.017885 0.000000 -0.278674 -1.062212 0.000000 0.003749 -1.031808 0.000000 0.134333 -0.841381 0.000000 1.207166 -1.887621 0.000000 0.895291 -1.007048 0.000000 -0.129280 1.193448 0.000000 0.048273 1.552489 0.000000 
0.000000 1.304717 0.000000 0.178325 1.306231 0.000000 0.541013 1.351010 0.000000 0.316607 -0.033243 0.000000 -0.911657 -1.724901 0.000000 -0.972787 -1.663170 0.000000 -0.652409 -1.499547 0.000000 -0.498757 -1.503341 0.000000 0.355400 -0.939749 0.000000 0.389840 -0.479390 0.000000 0.459617 0.196291 0.000000 0.923181 1.055948 0.000000 1.132641 0.941692 0.000000 0.848594 0.517690 0.000000 0.621260 0.586388 0.000000 0.431610 0.799275 0.000000 -0.000000 0.872917 0.000000 -0.431610 0.799275 0.000000 -0.621260 0.586388 0.000000 -0.848594 0.517690 0.000000 -1.132641 0.941692 0.000000 -0.923181 1.055948 0.000000 -0.459617 0.196291 0.000000 -0.389840 -0.479390 0.000000 -0.355400 -0.939749 0.000000 0.498757 -1.503341 0.000000 0.652409 -1.499547 0.000000 0.972787 -1.663170 0.000000 0.911657 -1.724901 0.000000 -0.316607 -0.033243 0.000000 -0.541013 1.351010 0.000000 -0.178325 1.306231 0.000000 
0.000000 1.065714 0.000000 0.236135 1.011476 0.000000 0.531622 1.055165 0.000000 0.833023 0.445621 0.000000 0.025509 -0.598227 0.000000 -0.760218 -1.100629 0.000000 -1.129823 -1.505837 0.000000 -1.903181 -2.070022 0.000000 -2.106721 -1.906482 0.000000 -1.573160 -1.100768 0.000000 -1.004203 -0.303056 0.000000 -0.079607 0.540252 0.000000 0.788329 0.975785 0.000000 0.898679 0.984702 0.000000 0.614222 0.986304 0.000000 0.372921 1.289366 0.000000 -0.000000 1.526984 0.000000 -0.372921 1.289366 0.000000 -0.614222 0.986304 0.000000 -0.898679 0.984702 0.000000 -0.788329 0.975785 0.000000 0.079607 0.540252 0.000000 1.004203 -0.303056 0.000000 1.573160 -1.100768 0.000000 2.106721 -1.906482 0.000000 1.903181 -2.070022 0.000000 1.129823 -1.505837 0.000000 0.760218 -1.100629 0.000000 -0.025509 -0.598227 0.000000 -0.833023 0.445621 0.000000 -0.531622 1.055165 0.000000 -0.236135 1.011476 0.000000 
0.000000 0.832448 0.000000 0.210535 0.774609 0.000000 0.418127 0.754121 0.000000 0.705168 0.472870 0.000000 0.471381 -0.131660 0.000000 -0.003763 -0.507837 0.000000 -0.456226 -0.356584 0.000000 -1.037548 -0.526444 0.000000 -2.333307 -1.269770 0.000000 -3.136700 -1.581908 0.000000 -3.211328 -1.297262 0.000000 -2.735199 -0.736585 0.000000 -1.995597 -0.036593 0.000000 -1.283076 0.691797 0.000000 -0.997736 1.112146 0.000000 -0.685925 1.413497 0.000000 0.000000 1.618758 0.000000 0.685925 1.413497 0.000000 0.997736 1.112146 0.000000 1.283076 0.691797 0.000000 1.995597 -0.036593 0.000000 2.735199 -0.736585 0.000000 3.211328 -1.297262 0.000000 3.136700 -1.581908 0.000000 2.333307 -1.269770 0.000000 1.037548 -0.526444 0.000000 0.456226 -0.356584 0.000000 0.003763 -0.507837 0.000000 -0.471381 -0.131660 0.000000 -0.705168 0.472870 0.000000 -0.418127 0.754121 0.000000 -0.210535 0.774609 0.000000 
-0.000000 0.644644 0.000000 0.165636 0.593349 0.000000 0.307145 0.560533 0.000000 0.485085 0.392367 0.000000 0.439268 0.110703 0.000000 0.149224 -0.173022 0.000000 -0.178752 -0.472052 0.000000 -0.266053 -0.192941 0.000000 -0.632477 0.192670 0.000000 -1.195776 -0.222747 0.000000 -1.797793 -0.704557 0.000000 -2.101021 -0.675478 0.000000 -2.240332 -0.476339 0.000000 -2.072753 -0.013160 0.000000 -1.656517 0.389153 0.000000 -1.036294 0.291630 0.000000 0.000000 0.155134 0.000000 1.036294 0.291630 0.000000 1.656517 0.389153 0.000000 2.072753 -0.013160 0.000000 2.240332 -0.476339 0.000000 2.101021 -0.675478 0.000000 1.797793 -0.704557 0.000000 1.195776 -0.222747 0.000000 0.632477 0.192670 0.000000 0.266053 -0.192941 0.000000 0.178752 -0.472052 0.000000 -0.149224 -0.173022 0.000000 -0.439268 0.110703 0.000000 -0.485085 0.392367 0.000000 -0.307145 0.560533 0.000000 -0.165636 0.593349 0.000000 
-0.000000 0.501175 0.000000 0.127974 0.467464 0.000000 0.228288 0.434673 0.000000 0.349888 0.340747 0.000000 0.341151 0.204201 0.000000 0.266433 0.110183 0.000000 0.004300 0.058693 0.000000 -0.319193 -0.072718 0.000000 -0.390839 -0.340048 0.000000 -0.441714 -0.416592 0.000000 -0.717584 -0.392017 0.000000 -0.830908 -0.294045 0.000000 -0.742616 -0.064861 0.000000 -0.700140 0.107982 0.000000 -0.533852 0.075686 0.000000 -0.282531 -0.243020 0.000000 0.000000 -0.453829 0.000000 0.282531 -0.243020 0.000000 0.533852 0.075686 0.000000 0.700140 0.107982 0.000000 0.742616 -0.064861 0.000000 0.830908 -0.294045 0.000000 0.717584 -0.392017 0.000000 0.441714 -0.416592 0.000000 0.390839 -0.340048 0.000000 0.319193 -0.072718 0.000000 -0.004300 0.058693 0.000000 -0.266433 0.110183 0.000000 -0.341151 0.204201 0.000000 -0.349888 0.340747 0.000000 -0.228288 0.434673 0.000000 -0.127974 0.467464 0.000000 
-0.000000 0.388696 0.000000 0.098704 0.365061 0.000000 0.179006 0.338619 0.000000 0.263877 0.279504 0.000000 0.289206 0.194158 0.000000 0.287451 0.163830 0.000000 0.248406 0.113574 0.000000 0.222608 0.202197 0.000000 0.068194 0.315191 0.000000 -0.203735 0.103998 0.000000 -0.452806 -0.315363 0.000000 -0.665108 -0.650445 0.000000 -0.611331 -0.607107 0.000000 -0.321693 -0.221924 0.000000 -0.071438 -0.028456 0.000000 0.008492 -0.242222 0.000000 0.000000 -0.409928 0.000000 -0.008492 -0.242222 0.000000 0.071438 -0.028456 0.000000 0.321693 -0.221924 0.000000 0.611331 -0.607107 0.000000 0.665108 -0.650445 0.000000 0.452806 -0.315363 0.000000 0.203735 0.103998 0.000000 -0.068194 0.315191 0.000000 -0.222608 0.202197 0.000000 -0.248406 0.113574 0.000000 -0.287451 0.163830 0.000000 -0.289206 0.194158 0.000000 -0.263877 0.279504 0.000000 -0.179006 0.338619 0.000000 -0.098704 0.365061 0.000000 
-0.000000 0.303766 0.000000 0.077381 0.288458 0.000000 0.140036 0.269501 0.000000 0.205329 0.230547 0.000000 0.231572 0.180627 0.000000 0.244377 0.150983 0.000000 0.254768 0.123535 0.000000 0.231892 0.107493 0.000000 0.329438 0.086295 0.000000 0.431075 0.104408 0.000000 0.375233 0.069356 0.000000 0.148608 -0.135520 0.000000 -0.133314 -0.408275 0.000000 -0.145166 -0.431911 0.000000 0.100993 -0.254500 0.000000 0.148560 -0.314458 0.000000 0.000000 -0.436844 0.000000 -0.148560 -0.314458 0.000000 -0.100993 -0.254500 0.000000 0.145166 -0.431911 0.000000 0.133314 -0.408275 0.000000 -0.148608 -0.135520 0.000000 -0.375233 0.069356 0.000000 -0.431075 0.104408 0.000000 -0.329438 0.086295 0.000000 -0.231892 0.107493 0.000000 -0.254768 0.123535 0.000000 -0.244377 0.150983 0.000000 -0.231572 0.180627 0.000000 -0.205329 0.230547 0.000000 -0.140036 0.269501 0.000000 -0.077381 0.288458 0.000000 
-0.000000 0.233935 0.000000 0.063921 0.225025 0.000000 0.118990 0.210670 0.000000 0.173668 0.187968 0.000000 0.207546 0.155110 0.000000 0.234055 0.140633 0.000000 0.258189 0.126059 0.000000 0.273232 0.127527 0.000000 0.297638 0.116008 0.000000 0.325368 0.058204 0.000000 0.387836 -0.032896 0.000000 0.412113 -0.141898 0.000000 0.335986 -0.313333 0.000000 0.206321 -0.456231 0.000000 0.306060 -0.322182 0.000000 0.319313 -0.141228 0.000000 0.000000 -0.112807 0.000000 -0.319313 -0.141228 0.000000 -0.306060 -0.322182 0.000000 -0.206321 -0.456231 0.000000 -0.335986 -0.313333 0.000000 -0.412113 -0.141898 0.000000 -0.387836 -0.032896 0.000000 -0.325368 0.058204 0.000000 -0.297638 0.116008 0.000000 -0.273232 0.127527 0.000000 -0.258189 0.126059 0.000000 -0.234055 0.140633 0.000000 -0.207546 0.155110 0.000000 -0.173668 0.187968 0.000000 -0.118990 0.210670 0.000000 -0.063921 0.225025 0.000000 
-0.000000 0.175924 0.000000 0.053638 0.169468 0.000000 0.101376 0.159753 0.000000 0.147733 0.141991 0.000000 0.182326 0.120240 0.000000 0.210200 0.100340 0.000000 0.241042 0.084359 0.000000 0.266641 0.068045 0.000000 0.310606 0.034159 0.000000 0.349968 0.014209 0.000000 0.372415 -0.017389 0.000000 0.371656 -0.083670 0.000000 0.335468 -0.202483 0.000000 0.218348 -0.401985 0.000000 0.194902 -0.367492 0.000000 0.256929 -0.008399 0.000000 -0.000000 0.201782 0.000000 -0.256929 -0.008399 0.000000 -0.194902 -0.367492 0.000000 -0.218348 -0.401985 0.000000 -0.335468 -0.202483 0.000000 -0.371656 -0.083670 0.000000 -0.372415 -0.017389 0.000000 -0.349968 0.014209 0.000000 -0.310606 0.034159 0.000000 -0.266641 0.068045 0.000000 -0.241042 0.084359 0.000000 -0.210200 0.100340 0.000000 -0.182326 0.120240 0.000000 -0.147733 0.141991 0.000000 -0.101376 0.159753 0.000000 -0.053638 0.169468 0.000000 
-0.000000 0.126658 0.000000 0.047367 0.123650 0.000000 0.090650 0.116575 0.000000 0.132476 0.107018 0.000000 0.165334 0.092644 0.000000 0.194487 0.081917 0.000000 0.217099 0.069617 0.000000 0.240375 0.057963 0.000000 0.256767 0.032681 0.000000 0.263632 -0.003606 0.000000 0.276362 -0.054584 0.000000 0.274444 -0.104951 0.000000 0.252097 -0.160025 0.000000 0.161380 -0.315665 0.000000 -0.014286 -0.360764 0.000000 0.002794 0.053673 0.000000 -0.000000 0.401052 0.000000 -0.002794 0.053673 0.000000 0.014286 -0.360764 0.000000 -0.161380 -0.315665 0.000000 -0.252097 -0.160025 0.000000 -0.274444 -0.104951 0.000000 -0.276362 -0.054584 0.000000 -0.263632 -0.003606 0.000000 -0.256767 0.032681 0.000000 -0.240375 0.057963 0.000000 -0.217099 0.069617 0.000000 -0.194487 0.081917 0.000000 -0.165334 0.092644 0.000000 -0.132476 0.107018 0.000000 -0.090650 0.116575 0.000000 -0.047367 0.123650 0.000000 
-0.000000 0.081190 0.000000 0.043217 0.078819 0.000000 0.084138 0.074645 0.000000 0.122438 0.067306 0.000000 0.156594 0.058229 0.000000 0.184833 0.048575 0.000000 0.212111 0.038471 0.000000 0.233077 0.028377 0.000000 0.254063 0.010902 0.000000 0.258708 -0.005386 0.000000 0.254961 -0.028201 0.000000 0.223208 -0.059405 0.000000 0.182700 -0.089420 0.000000 0.107320 -0.135602 0.000000 -0.085612 -0.208905 0.000000 -0.184248 -0.022685 0.000000 -0.000000 0.207370 0.000000 0.184248 -0.022685 0.000000 0.085612 -0.208905 0.000000 -0.107320 -0.135602 0.000000 -0.182700 -0.089420 0.000000 -0.223208 -0.059405 0.000000 -0.254961 -0.028201 0.000000 -0.258708 -0.005386 0.000000 -0.254063 0.010902 0.000000 -0.233077 0.028377 0.000000 -0.212111 0.038471 0.000000 -0.184833 0.048575 0.000000 -0.156594 0.058229 0.000000 -0.122438 0.067306 0.000000 -0.084138 0.074645 0.000000 -0.043217 0.078819 0.000000 
-0.000000 0.040225 0.000000 0.040595 0.039512 0.000000 0.078819 0.037354 0.000000 0.115240 0.034561 0.000000 0.146125 0.030249 0.000000 0.173469 0.026401 0.000000 0.194700 0.021374 0.000000 0.211940 0.016011 0.000000 0.223077 0.007050 0.000000 0.222841 -0.004503 0.000000 0.217691 -0.019084 0.000000 0.194640 -0.032690 0.000000 0.158286 -0.044137 0.000000 0.105220 -0.047354 0.000000 0.022685 -0.069196 0.000000 -0.103685 -0.031938 0.000000 -0.000000 0.032556 0.000000 0.103685 -0.031938 0.000000 -0.022685 -0.069196 0.000000 -0.105220 -0.047354 0.000000 -0.158286 -0.044137 0.000000 -0.194640 -0.032690 0.000000 -0.217691 -0.019084 0.000000 -0.222841 -0.004503 0.000000 -0.223077 0.007050 0.000000 -0.211940 0.016011 0.000000 -0.194700 0.021374 0.000000 -0.173469 0.026401 0.000000 -0.146125 0.030249 0.000000 -0.115240 0.034561 0.000000 -0.078819 0.037354 0.000000 -0.040595 0.039512 0.000000 
