# vtk DataFile Version 2.0
Comment goes here
ASCII

DATASET STRUCTURED_POINTS
FIELD FieldData 1
TIME 1 1 double
0.66000000
DIMENSIONS    32   32   1

ORIGIN    0.000   0.000   0.000
SPACING   0.03125 0.03125   1.000

POINT_DATA   1024
VECTORS u double

-0.000000 -0.000000 0.000000 0.046129 -0.000000 0.000000 0.083007 -0.000000 0.000000 0.105982 -0.000000 0.000000 0.103261 -0.000000 0.000000 0.072283 -0.000000 0.000000 0.000319 0.000000 0.000000 -0.114048 -0.000000 0.000000 -0.274070 -0.000000 0.000000 -0.469216 -0.000000 0.000000 -0.680050 -0.000000 0.000000 -0.879976 0.000000 0.000000 -1.011226 -0.000000 0.000000 -1.037024 0.000000 0.000000 -0.864618 -0.000000 0.000000 -0.501687 0.000000 0.000000 0.000000 -0.000000 0.000000 0.501687 -0.000000 0.000000 0.864618 -0.000000 0.000000 1.037024 -0.000000 0.000000 1.011226 -0.000000 0.000000 0.879976 -0.000000 0.000000 0.680050 0.000000 0.000000 0.469216 -0.000000 0.000000 0.274070 0.000000 0.000000 0.114048 -0.000000 0.000000 -0.000319 0.000000 0.000000 -0.072283 -0.000000 0.000000 -0.103261 0.000000 0.000000 -0.105982 -0.000000 0.000000 -0.083007 0.000000 0.000000 -0.046129 -0.000000 0.000000 
-0.000000 -0.046129 0.000000 0.047570 -0.041504 0.000000 0.086144 -0.029926 0.000000 0.111723 -0.010127 0.000000 0.113605 0.016849 0.000000 0.090881 0.051471 0.000000 0.032549 0.093166 0.000000 -0.060887 0.137194 0.000000 -0.192977 0.177584 0.000000 -0.351225 0.202990 0.000000 -0.522999 0.205380 0.000000 -0.677191 0.165588 0.000000 -0.779752 0.078524 0.000000 -0.783054 -0.073304 0.000000 -0.640588 -0.267668 0.000000 -0.381993 -0.432309 0.000000 0.000000 -0.501687 0.000000 0.381993 -0.432309 0.000000 0.640588 -0.267668 0.000000 0.783054 -0.073304 0.000000 0.779752 0.078524 0.000000 0.677191 0.165588 0.000000 0.522999 0.205380 0.000000 0.351225 0.202990 0.000000 0.192977 0.177584 0.000000 0.060887 0.137194 0.000000 -0.032549 0.093166 0.000000 -0.090881 0.051471 0.000000 -0.113605 0.016849 0.000000 -0.111723 -0.010127 0.000000 -0.086144 -0.029926 0.000000 -0.047570 -0.041504 0.000000 
-0.000000 -0.095141 0.000000 0.061071 -0.086144 0.000000 0.112523 -0.064153 0.000000 0.152101 -0.027461 0.000000 0.169475 0.020842 0.000000 0.168439 0.081056 0.000000 0.139151 0.151768 0.000000 0.085601 0.225526 0.000000 0.001929 0.290338 0.000000 -0.103465 0.330022 0.000000 -0.227067 0.325967 0.000000 -0.355676 0.256753 0.000000 -0.460058 0.105862 0.000000 -0.538899 -0.139164 0.000000 -0.479625 -0.401061 0.000000 -0.280511 -0.640588 0.000000 0.000000 -0.763986 0.000000 0.280511 -0.640588 0.000000 0.479625 -0.401061 0.000000 0.538899 -0.139164 0.000000 0.460058 0.105862 0.000000 0.355676 0.256753 0.000000 0.227067 0.325967 0.000000 0.103465 0.330022 0.000000 -0.001929 0.290338 0.000000 -0.085601 0.225526 0.000000 -0.139151 0.151768 0.000000 -0.168439 0.081056 0.000000 -0.169475 0.020842 0.000000 -0.152101 -0.027461 0.000000 -0.112523 -0.064153 0.000000 -0.061071 -0.086144 0.000000 
-0.000000 -0.168272 0.000000 0.075363 -0.154026 0.000000 0.139923 -0.120956 0.000000 0.193400 -0.067079 0.000000 0.226961 0.000511 0.000000 0.250358 0.081794 0.000000 0.257760 0.176004 0.000000 0.257594 0.274417 0.000000 0.245312 0.366649 0.000000 0.225909 0.431986 0.000000 0.190453 0.457591 0.000000 0.145028 0.398579 0.000000 0.099977 0.261747 0.000000 0.103261 -0.053738 0.000000 0.102201 -0.526056 0.000000 0.013332 -0.911934 0.000000 0.000000 -1.062710 0.000000 -0.013332 -0.911934 0.000000 -0.102201 -0.526056 0.000000 -0.103261 -0.053738 0.000000 -0.099977 0.261747 0.000000 -0.145028 0.398579 0.000000 -0.190453 0.457591 0.000000 -0.225909 0.431986 0.000000 -0.245312 0.366649 0.000000 -0.257594 0.274417 0.000000 -0.257760 0.176004 0.000000 -0.250358 0.081794 0.000000 -0.226961 0.000511 0.000000 -0.193400 -0.067079 0.000000 -0.139923 -0.120956 0.000000 -0.075363 -0.154026 0.000000 
-0.000000 -0.245867 0.000000 0.101073 -0.226068 0.000000 0.187920 -0.182190 0.000000 0.262883 -0.114498 0.000000 0.316139 -0.036116 0.000000 0.366515 0.050257 0.000000 0.409206 0.144533 0.000000 0.460516 0.237975 0.000000 0.514294 0.322023 0.000000 0.576500 0.384880 0.000000 0.609068 0.406848 0.000000 0.613530 0.347229 0.000000 0.567242 0.147629 0.000000 0.364958 -0.141388 0.000000 0.206318 -0.311132 0.000000 0.147492 -0.538387 0.000000 -0.000000 -0.737323 0.000000 -0.147492 -0.538387 0.000000 -0.206318 -0.311132 0.000000 -0.364958 -0.141388 0.000000 -0.567242 0.147629 0.000000 -0.613530 0.347229 0.000000 -0.609068 0.406848 0.000000 -0.576500 0.384880 0.000000 -0.514294 0.322023 0.000000 -0.460516 0.237975 0.000000 -0.409206 0.144533 0.000000 -0.366515 0.050257 0.000000 -0.316139 -0.036116 0.000000 -0.262883 -0.114498 0.000000 -0.187920 -0.182190 0.000000 -0.101073 -0.226068 0.000000 
-0.000000 -0.370419 0.000000 0.123491 -0.341946 0.000000 0.227216 -0.282766 0.000000 0.315108 -0.195298 0.000000 0.376152 -0.103121 0.000000 0.438025 -0.011272 0.000000 0.499953 0.082003 0.000000 0.581864 0.169328 0.000000 0.690149 0.250665 0.000000 0.821367 0.337213 0.000000 0.935533 0.420561 0.000000 1.013437 0.440405 0.000000 1.206353 0.510319 0.000000 1.753599 0.307186 0.000000 1.886076 -0.308590 0.000000 1.209074 -0.705616 0.000000 -0.000000 -0.767725 0.000000 -1.209074 -0.705616 0.000000 -1.886076 -0.308590 0.000000 -1.753599 0.307186 0.000000 -1.206353 0.510319 0.000000 -1.013437 0.440405 0.000000 -0.935533 0.420561 0.000000 -0.821367 0.337213 0.000000 -0.690149 0.250665 0.000000 -0.581864 0.169328 0.000000 -0.499953 0.082003 0.000000 -0.438025 -0.011272 0.000000 -0.376152 -0.103121 0.000000 -0.315108 -0.195298 0.000000 -0.227216 -0.282766 0.000000 -0.123491 -0.341946 0.000000 
-0.000000 -0.492849 0.000000 0.155540 -0.453284 0.000000 0.283411 -0.373806 0.000000 0.390355 -0.263434 0.000000 0.459668 -0.159034 0.000000 0.533373 -0.073544 0.000000 0.610488 0.000694 0.000000 0.720951 0.047779 0.000000 0.890868 0.082519 0.000000 1.131540 0.139497 0.000000 1.382381 0.214777 0.000000 1.884819 0.076409 0.000000 2.753755 -0.592532 0.000000 3.065739 -0.821112 0.000000 1.920502 0.233393 0.000000 0.908747 1.347689 0.000000 -0.000000 1.680824 0.000000 -0.908747 1.347689 0.000000 -1.920502 0.233393 0.000000 -3.065739 -0.821112 0.000000 -2.753755 -0.592532 0.000000 -1.884819 0.076409 0.000000 -1.382381 0.214777 0.000000 -1.131540 0.139497 0.000000 -0.890868 0.082519 0.000000 -0.720951 0.047779 0.000000 -0.610488 0.000694 0.000000 -0.533373 -0.073544 0.000000 -0.459668 -0.159034 0.000000 -0.390355 -0.263434 0.000000 -0.283411 -0.373806 0.000000 -0.155540 -0.453284 0.000000 
-0.000000 -0.681498 0.000000 0.176364 -0.625357 0.000000 0.316185 -0.517582 0.000000 0.427396 -0.371555 0.000000 0.484418 -0.246138 0.000000 0.545366 -0.162092 0.000000 0.606955 -0.105574 0.000000 0.707339 -0.111052 0.000000 0.924781 -0.159924 0.000000 1.228585 -0.154300 0.000000 1.596376 -0.332718 0.000000 1.773640 -0.930969 0.000000 1.350011 -0.670601 0.000000 -0.344809 1.140439 0.000000 -1.620457 1.848402 0.000000 -0.942153 1.214886 0.000000 0.000000 1.049769 0.000000 0.942153 1.214886 0.000000 1.620457 1.848402 0.000000 0.344809 1.140439 0.000000 -1.350011 -0.670601 0.000000 -1.773640 -0.930969 0.000000 -1.596376 -0.332718 0.000000 -1.228585 -0.154300 0.000000 -0.924781 -0.159924 0.000000 -0.707339 -0.111052 0.000000 -0.606955 -0.105574 0.000000 -0.545366 -0.162092 0.000000 -0.484418 -0.246138 0.000000 -0.427396 -0.371555 0.000000 -0.316185 -0.517582 0.000000 -0.176364 -0.625357 0.000000 
-0.000000 -0.845576 0.000000 0.196661 -0.769469 0.000000 0.349896 -0.624839 0.000000 0.471583 -0.431667 0.000000 0.517766 -0.277004 0.000000 0.570258 -0.196081 0.000000 0.606482 -0.161279 0.000000 0.670408 -0.270048 0.000000 0.952741 -0.438727 0.000000 0.938447 -0.532098 0.000000 0.901112 -0.330278 0.000000 0.267298 0.322774 0.000000 -0.913654 1.525918 0.000000 -1.319052 2.149356 0.000000 -0.601963 0.830737 0.000000 -0.053811 -0.272768 0.000000 0.000000 -0.203481 0.000000 0.053811 -0.272768 0.000000 0.601963 0.830737 0.000000 1.319052 2.149356 0.000000 0.913654 1.525918 0.000000 -0.267298 0.322774 0.000000 -0.901112 -0.330278 0.000000 -0.938447 -0.532098 0.000000 -0.952741 -0.438727 0.000000 -0.670408 -0.270048 0.000000 -0.606482 -0.161279 0.000000 -0.570258 -0.196081 0.000000 -0.517766 -0.277004 0.000000 -0.471583 -0.431667 0.000000 -0.349896 -0.624839 0.000000 -0.196661 -0.769469 0.000000 
-0.000000 -1.074820 0.000000 0.190394 -0.975254 0.000000 0.335255 -0.792504 0.000000 0.447289 -0.539424 0.000000 0.456997 -0.344814 0.000000 0.473124 -0.250809 0.000000 0.413354 -0.205724 0.000000 0.409502 -0.457311 0.000000 0.559430 -0.427963 0.000000 -0.047326 -0.102671 0.000000 -0.344991 0.338431 0.000000 -0.697672 0.883797 0.000000 -0.939557 0.915748 0.000000 -0.043806 0.828748 0.000000 0.738668 0.583162 0.000000 0.455449 0.612923 0.000000 -0.000000 0.942146 0.000000 -0.455449 0.612923 0.000000 -0.738668 0.583162 0.000000 0.043806 0.828748 0.000000 0.939557 0.915748 0.000000 0.697672 0.883797 0.000000 0.344991 0.338431 0.000000 0.047326 -0.102671 0.000000 -0.559430 -0.427963 0.000000 -0.409502 -0.457311 0.000000 -0.413354 -0.205724 0.000000 -0.473124 -0.250809 0.000000 -0.456997 -0.344814 0.000000 -0.447289 -0.539424 0.000000 -0.335255 -0.792504 0.000000 -0.190394 -0.975254 0.000000 
0.000000 -1.226365 0.000000 0.165639 -1.104723 0.000000 0.292980 -0.881734 0.000000 0.402569 -0.553409 0.000000 0.390132 -0.302839 0.000000 0.435349 -0.152439 0.000000 0.285023 -0.097657 0.000000 0.456970 -0.416124 0.000000 0.073416 0.018101 0.000000 -0.572312 0.372323 0.000000 -0.318064 0.320069 0.000000 -0.566683 0.917340 0.000000 -0.518121 0.872051 0.000000 -0.123627 0.471132 0.000000 0.097183 0.331482 0.000000 0.006073 0.465900 0.000000 -0.000000 0.707416 0.000000 -0.006073 0.465900 0.000000 -0.097183 0.331482 0.000000 0.123627 0.471132 0.000000 0.518121 0.872051 0.000000 0.566683 0.917340 0.000000 0.318064 0.320069 0.000000 0.572312 0.372323 0.000000 -0.073416 0.018101 0.000000 -0.456970 -0.416124 0.000000 -0.285023 -0.097657 0.000000 -0.435349 -0.152439 0.000000 -0.390132 -0.302839 0.000000 -0.402569 -0.553409 0.000000 -0.292980 -0.881734 0.000000 -0.165639 -1.104723 0.000000 
0.000000 -1.406099 0.000000 0.104100 -1.268234 0.000000 0.188031 -1.029433 0.000000 0.268732 -0.636577 0.000000 0.230580 -0.377594 0.000000 0.255705 -0.145699 0.000000 -0.020654 -0.227345 0.000000 0.183306 -0.245704 0.000000 -0.906955 0.601320 0.000000 -0.675696 0.288809 0.000000 -0.299015 0.332802 0.000000 -0.951536 1.083854 0.000000 -0.370231 0.472692 0.000000 -0.255900 0.213444 0.000000 -0.071148 0.453462 0.000000 -0.104274 0.710106 0.000000 0.000000 0.954291 0.000000 0.104274 0.710106 0.000000 0.071148 0.453462 0.000000 0.255900 0.213444 0.000000 0.370231 0.472692 0.000000 0.951536 1.083854 0.000000 0.299015 0.332802 0.000000 0.675696 0.288809 0.000000 0.906955 0.601320 0.000000 -0.183306 -0.245704 0.000000 0.020654 -0.227345 0.000000 -0.255705 -0.145699 0.000000 -0.230580 -0.377594 0.000000 -0.268732 -0.636577 0.000000 -0.188031 -1.029433 0.000000 -0.104100 -1.268234 0.000000 
0.000000 -1.434564 0.000000 0.003826 -1.292755 0.000000 0.019377 -1.046366 0.000000 0.037335 -0.595958 0.000000 0.003341 -0.289811 0.000000 -0.043861 0.098795 0.000000 -0.289904 -0.025258 0.000000 -0.376299 0.470177 0.000000 -1.353863 0.877103 0.000000 -0.462688 -0.235617 0.000000 -0.596792 0.595909 0.000000 -1.076245 0.988556 0.000000 -0.416867 0.176416 0.000000 -0.611666 0.172048 0.000000 -0.370151 0.179856 0.000000 -0.284208 0.394753 0.000000 -0.000000 0.498867 0.000000 0.284208 0.394753 0.000000 0.370151 0.179856 0.000000 0.611666 0.172048 0.000000 0.416867 0.176416 0.000000 1.076245 0.988556 0.000000 0.596792 0.595909 0.000000 0.462688 -0.235617 0.000000 1.353863 0.877103 0.000000 0.376299 0.470177 0.000000 0.289904 -0.025258 0.000000 0.043861 0.098795 0.000000 -0.003341 -0.289811 0.000000 -0.037335 -0.595958 0.000000 -0.019377 -1.046366 0.000000 -0.003826 -1.292755 0.000000 
0.000000 -1.413750 0.000000 -0.134204 -1.287610 0.000000 -0.217861 -1.062943 0.000000 -0.276802 -0.620541 0.000000 -0.281566 -0.296398 0.000000 -0.379657 0.147546 0.000000 -0.503587 0.105093 0.000000 -0.873268 0.818255 0.000000 -0.851025 0.687708 0.000000 -0.328146 -0.468262 0.000000 -0.748010 0.946359 0.000000 -0.660995 0.903929 0.000000 -0.373278 0.008113 0.000000 -0.399102 0.166728 0.000000 -0.268365 0.126004 0.000000 -0.191395 0.339955 0.000000 0.000000 0.385876 0.000000 0.191395 0.339955 0.000000 0.268365 0.126004 0.000000 0.399102 0.166728 0.000000 0.373278 0.008113 0.000000 0.660995 0.903929 0.000000 0.748010 0.946359 0.000000 0.328146 -0.468262 0.000000 0.851025 0.687708 0.000000 0.873268 0.818255 0.000000 0.503587 0.105093 0.000000 0.379657 0.147546 0.000000 0.281566 -0.296398 0.000000 0.276802 -0.620541 0.000000 0.217861 -1.062943 0.000000 0.134204 -1.287610 0.000000 
0.000000 -1.166155 0.000000 -0.335177 -1.074894 0.000000 -0.595558 -0.903769 0.000000 -0.821279 -0.532253 0.000000 -0.899487 -0.186956 0.000000 -1.086325 0.320816 0.000000 -1.076074 0.468353 0.000000 -1.414269 0.817615 0.000000 -0.645665 0.331981 0.000000 -0.754793 -0.338633 0.000000 -0.996423 0.928759 0.000000 -0.355351 0.613825 0.000000 -0.414675 -0.085477 0.000000 -0.307643 0.067136 0.000000 -0.273388 -0.027851 0.000000 -0.162620 0.126387 0.000000 -0.000000 0.116077 0.000000 0.162620 0.126387 0.000000 0.273388 -0.027851 0.000000 0.307643 0.067136 0.000000 0.414675 -0.085477 0.000000 0.355351 0.613825 0.000000 0.996423 0.928759 0.000000 0.754793 -0.338633 0.000000 0.645665 0.331981 0.000000 1.414269 0.817615 0.000000 1.076074 0.468353 0.000000 1.086325 0.320816 0.000000 0.899487 -0.186956 0.000000 0.821279 -0.532253 0.000000 0.595558 -0.903769 0.000000 0.335177 -1.074894 0.000000 
0.000000 -0.743396 0.000000 -0.583078 -0.692052 0.000000 -1.074894 -0.576841 0.000000 -1.486847 -0.316612 0.000000 -1.607147 -0.031352 0.000000 -1.673802 0.324132 0.000000 -1.286330 0.433038 0.000000 -1.205450 0.387846 0.000000 -0.468715 0.028232 0.000000 -0.873469 -0.117503 0.000000 -0.807348 0.546917 0.000000 0.055290 0.322180 0.000000 -0.193523 -0.039596 0.000000 -0.030187 0.025442 0.000000 -0.126387 -0.019019 0.000000 -0.058039 0.066567 0.000000 -0.000000 0.060636 0.000000 0.058039 0.066567 0.000000 0.126387 -0.019019 0.000000 0.030187 0.025442 0.000000 0.193523 -0.039596 0.000000 -0.055290 0.322180 0.000000 0.807348 0.546917 0.000000 0.873469 -0.117503 0.000000 0.468715 0.028232 0.000000 1.205450 0.387846 0.000000 1.286330 0.433038 0.000000 1.673802 0.324132 0.000000 1.607147 -0.031352 0.000000 1.486847 -0.316612 0.000000 1.074894 -0.576841 0.000000 0.583078 -0.692052 0.000000 
-0.000000 0.000000 0.000000 -0.743396 0.000000 0.000000 -1.384105 0.000000 0.000000 -1.897078 0.000000 0.000000 -2.017328 0.000000 0.000000 -1.959782 0.000000 0.000000 -1.369063 0.000000 0.000000 -1.093706 0.000000 0.000000 -0.593372 0.000000 0.000000 -1.037241 -0.000000 0.000000 -0.828378 -0.000000 0.000000 0.056593 -0.000000 0.000000 -0.184018 -0.000000 0.000000 -0.022598 -0.000000 0.000000 -0.133134 -0.000000 0.000000 -0.060636 -0.000000 0.000000 -0.000000 -0.000000 0.000000 0.060636 -0.000000 0.000000 0.133134 -0.000000 0.000000 0.022598 -0.000000 0.000000 0.184018 -0.000000 0.000000 -0.056593 -0.000000 0.000000 0.828378 0.000000 0.000000 1.037241 0.000000 0.000000 0.593372 0.000000 0.000000 1.093706 -0.000000 0.000000 1.369063 -0.000000 0.000000 1.959782 -0.000000 0.000000 2.017328 0.000000 0.000000 1.897078 0.000000 0.000000 1.384105 0.000000 0.000000 0.743396 0.000000 0.000000 
-0.000000 0.743396 0.000000 -0.583078 0.692052 0.000000 -1.074894 0.576841 0.000000 -1.486847 0.316612 0.000000 -1.607147 0.031352 0.000000 -1.673802 -0.324132 0.000000 -1.286330 -0.433038 0.000000 -1.205450 -0.387846 0.000000 -0.468715 -0.028232 0.000000 -0.873469 0.117503 0.000000 -0.807348 -0.546917 0.000000 0.055290 -0.322180 0.000000 -0.193523 0.039596 0.000000 -0.030187 -0.025442 0.000000 -0.126387 0.019019 0.000000 -0.058039 -0.066567 0.000000 -0.000000 -0.060636 0.000000 0.058039 -0.066567 0.000000 0.126387 0.019019 0.000000 0.030187 -0.025442 0.000000 0.193523 0.039596 0.000000 -0.055290 -0.322180 0.000000 0.807348 -0.546917 0.000000 0.873469 0.117503 0.000000 0.468715 -0.028232 0.000000 1.205450 -0.387846 0.000000 1.286330 -0.433038 0.000000 1.673802 -0.324132 0.000000 1.607147 0.031352 0.000000 1.486847 0.316612 0.000000 1.074894 0.576841 0.000000 0.583078 0.692052 0.000000 
-0.000000 1.166155 0.000000 -0.335177 1.074894 0.000000 -0.595558 0.903769 0.000000 -0.821279 0.532253 0.000000 -0.899487 0.186956 0.000000 -1.086325 -0.320816 0.000000 -1.076074 -0.468353 0.000000 -1.414269 -0.817615 0.000000 -0.645665 -0.331981 0.000000 -0.754793 0.338633 0.000000 -0.996423 -0.928759 0.000000 -0.355351 -0.613825 0.000000 -0.414675 0.085477 0.000000 -0.307643 -0.067136 0.000000 -0.273388 0.027851 0.000000 -0.162620 -0.126387 0.000000 -0.000000 -0.116077 0.000000 0.162620 -0.126387 0.000000 0.273388 0.027851 0.000000 0.307643 -0.067136 0.000000 0.414675 0.085477 0.000000 0.355351 -0.613825 0.000000 0.996423 -0.928759 0.000000 0.754793 0.338633 0.000000 0.645665 -0.331981 0.000000 1.414269 -0.817615 0.000000 1.076074 -0.468353 0.000000 1.086325 -0.320816 0.000000 0.899487 0.186956 0.000000 0.821279 0.532253 0.000000 0.595558 0.903769 0.000000 0.335177 1.074894 0.000000 
-0.000000 1.413750 0.000000 -0.134204 1.287610 0.000000 -0.217861 1.062943 0.000000 -0.276802 0.620541 0.000000 -0.281566 0.296398 0.000000 -0.379657 -0.147546 0.000000 -0.503587 -0.105093 0.000000 -0.873268 -0.818255 0.000000 -0.851025 -0.687708 0.000000 -0.328146 0.468262 0.000000 -0.748010 -0.946359 0.000000 -0.660995 -0.903929 0.000000 -0.373278 -0.008113 0.000000 -0.399102 -0.166728 0.000000 -0.268365 -0.126004 0.000000 -0.191395 -0.339955 0.000000 -0.000000 -0.385876 0.000000 0.191395 -0.339955 0.000000 0.268365 -0.126004 0.000000 0.399102 -0.166728 0.000000 0.373278 -0.008113 0.000000 0.660995 -0.903929 0.000000 0.748010 -0.946359 0.000000 0.328146 0.468262 0.000000 0.851025 -0.687708 0.000000 0.873268 -0.818255 0.000000 0.503587 -0.105093 0.000000 0.379657 -0.147546 0.000000 0.281566 0.296398 0.000000 0.276802 0.620541 0.000000 0.217861 1.062943 0.000000 0.134204 1.287610 0.000000 
-0.000000 1.434564 0.000000 0.003826 1.292755 0.000000 0.019377 1.046366 0.000000 0.037335 0.595958 0.000000 0.003341 0.289811 0.000000 -0.043861 -0.098795 0.000000 -0.289904 0.025258 0.000000 -0.376299 -0.470177 0.000000 -1.353863 -0.877103 0.000000 -0.462688 0.235617 0.000000 -0.596792 -0.595909 0.000000 -1.076245 -0.988556 0.000000 -0.416867 -0.176416 0.000000 -0.611666 -0.172048 0.000000 -0.370151 -0.179856 0.000000 -0.284208 -0.394753 0.000000 -0.000000 -0.498867 0.000000 0.284208 -0.394753 0.000000 0.370151 -0.179856 0.000000 0.611666 -0.172048 0.000000 0.416867 -0.176416 0.000000 1.076245 -0.988556 0.000000 0.596792 -0.595909 0.000000 0.462688 0.235617 0.000000 1.353863 -0.877103 0.000000 0.376299 -0.470177 0.000000 0.289904 0.025258 0.000000 0.043861 -0.098795 0.000000 -0.003341 0.289811 0.000000 -0.037335 0.595958 0.000000 -0.019377 1.046366 0.000000 -0.003826 1.292755 0.000000 
-0.000000 1.406099 0.000000 0.104100 1.268234 0.000000 0.188031 1.029433 0.000000 0.268732 0.636577 0.000000 0.230580 0.377594 0.000000 0.255705 0.145699 0.000000 -0.020654 0.227345 0.000000 0.183306 0.245704 0.000000 -0.906955 -0.601320 0.000000 -0.675696 -0.288809 0.000000 -0.299015 -0.332802 0.000000 -0.951536 -1.083854 0.000000 -0.370231 -0.472692 0.000000 -0.255900 -0.213444 0.000000 -0.071148 -0.453462 0.000000 -0.104274 -0.710106 0.000000 -0.000000 -0.954291 0.000000 0.104274 -0.710106 0.000000 0.071148 -0.453462 0.000000 0.255900 -0.213444 0.000000 0.370231 -0.472692 0.000000 0.951536 -1.083854 0.000000 0.299015 -0.332802 0.000000 0.675696 -0.288809 0.000000 0.906955 -0.601320 0.000000 -0.183306 0.245704 0.000000 0.020654 0.227345 0.000000 -0.255705 0.145699 0.000000 -0.230580 0.377594 0.000000 -0.268732 0.636577 0.000000 -0.188031 1.029433 0.000000 -0.104100 1.268234 0.000000 
0.000000 1.226365 0.000000 0.165639 1.104723 0.000000 0.292980 0.881734 0.000000 0.402569 0.553409 0.000000 0.390132 0.302839 0.000000 0.435349 0.152439 0.000000 0.285023 0.097657 0.000000 0.456970 0.416124 0.000000 0.073416 -0.018101 0.000000 -0.572312 -0.372323 0.000000 -0.318064 -0.320069 0.000000 -0.566683 -0.917340 0.000000 -0.518121 -0.872051 0.000000 -0.123627 -0.471132 0.000000 0.097183 -0.331482 0.000000 0.006073 -0.465900 0.000000 -0.000000 -0.707416 0.000000 -0.006073 -0.465900 0.000000 -0.097183 -0.331482 0.000000 0.123627 -0.471132 0.000000 0.518121 -0.872051 0.000000 0.566683 -0.917340 0.000000 0.318064 -0.320069 0.000000 0.572312 -0.372323 0.000000 -0.073416 -0.018101 0.000000 -0.456970 0.416124 0.000000 -0.285023 0.097657 0.000000 -0.435349 0.152439 0.000000 -0.390132 0.302839 0.000000 -0.402569 0.553409 0.000000 -0.292980 0.881734 0.000000 -0.165639 1.104723 0.000000 
0.000000 1.074820 0.000000 0.190394 0.975254 0.000000 0.335255 0.792504 0.000000 0.447289 0.539424 0.000000 0.456997 0.344814 0.000000 0.473124 0.250809 0.000000 0.413354 0.205724 0.000000 0.409502 0.457311 0.000000 0.559430 0.427963 0.000000 -0.047326 0.102671 0.000000 -0.344991 -0.338431 0.000000 -0.697672 -0.883797 0.000000 -0.939557 -0.915748 0.000000 -0.043806 -0.828748 0.000000 0.738668 -0.583162 0.000000 0.455449 -0.612923 0.000000 -0.000000 -0.942146 0.000000 -0.455449 -0.612923 0.000000 -0.738668 -0.583162 0.000000 0.043806 -0.828748 0.000000 0.939557 -0.915748 0.000000 0.697672 -0.883797 0.000000 0.344991 -0.338431 0.000000 0.047326 0.102671 0.000000 -0.559430 0.427963 0.000000 -0.409502 0.457311 0.000000 -0.413354 0.205724 0.000000 -0.473124 0.250809 0.000000 -0.456997 0.344814 0.000000 -0.447289 0.539424 0.000000 -0.335255 0.792504 0.000000 -0.190394 0.975254 0.000000 
0.000000 0.845576 0.000000 0.196661 0.769469 0.000000 0.349896 0.624839 0.000000 0.471583 0.431667 0.000000 0.517766 0.277004 0.000000 0.570258 0.196081 0.000000 0.606482 0.161279 0.000000 0.670408 0.270048 0.000000 0.952741 0.438727 0.000000 0.938447 0.532098 0.000000 0.901112 0.330278 0.000000 0.267298 -0.322774 0.000000 -0.913654 -1.525918 0.000000 -1.319052 -2.149356 0.000000 -0.601963 -0.830737 0.000000 -0.053811 0.272768 0.000000 0.000000 0.203481 0.000000 0.053811 0.272768 0.000000 0.601963 -0.830737 0.000000 1.319052 -2.149356 0.000000 0.913654 -1.525918 0.000000 -0.267298 -0.322774 0.000000 -0.901112 0.330278 0.000000 -0.938447 0.532098 0.000000 -0.952741 0.438727 0.000000 -0.670408 0.270048 0.000000 -0.606482 0.161279 0.000000 -0.570258 0.196081 0.000000 -0.517766 0.277004 0.000000 -0.471583 0.431667 0.000000 -0.349896 0.624839 0.000000 -0.196661 0.769469 0.000000 
0.000000 0.681498 0.000000 0.176364 0.625357 0.000000 0.316185 0.517582 0.000000 0.427396 0.371555 0.000000 0.484418 0.246138 0.000000 0.545366 0.162092 0.000000 0.606955 0.105574 0.000000 0.707339 0.111052 0.000000 0.924781 0.159924 0.000000 1.228585 0.154300 0.000000 1.596376 0.332718 0.000000 1.773640 0.930969 0.000000 1.350011 0.670601 0.000000 -0.344809 -1.140439 0.000000 -1.620457 -1.848402 0.000000 -0.942153 -1.214886 0.000000 0.000000 -1.049769 0.000000 0.942153 -1.214886 0.000000 1.620457 -1.848402 0.000000 0.344809 -1.140439 0.000000 -1.350011 0.670601 0.000000 -1.773640 0.930969 0.000000 -1.596376 0.332718 0.000000 -1.228585 0.154300 0.000000 -0.924781 0.159924 0.000000 -0.707339 0.111052 0.000000 -0.606955 0.105574 0.000000 -0.545366 0.162092 0.000000 -0.484418 0.246138 0.000000 -0.427396 0.371555 0.000000 -0.316185 0.517582 0.000000 -0.176364 0.625357 0.000000 
0.000000 0.492849 0.000000 0.155540 0.453284 0.000000 0.283411 0.373806 0.000000 0.390355 0.263434 0.000000 0.459668 0.159034 0.000000 0.533373 0.073544 0.000000 0.610488 -0.000694 0.000000 0.720951 -0.047779 0.000000 0.890868 -0.082519 0.000000 1.131540 -0.139497 0.000000 1.382381 -0.214777 0.000000 1.884819 -0.076409 0.000000 2.753755 0.592532 0.000000 3.065739 0.821112 0.000000 1.920502 -0.233393 0.000000 0.908747 -1.347689 0.000000 0.000000 -1.680824 0.000000 -0.908747 -1.347689 0.000000 -1.920502 -0.233393 0.000000 -3.065739 0.821112 0.000000 -2.753755 0.592532 0.000000 -1.884819 -0.076409 0.000000 -1.382381 -0.214777 0.000000 -1.131540 -0.139497 0.000000 -0.890868 -0.082519 0.000000 -0.720951 -0.047779 0.000000 -0.610488 -0.000694 0.000000 -0.533373 0.073544 0.000000 -0.459668 0.159034 0.000000 -0.390355 0.263434 0.000000 -0.283411 0.373806 0.000000 -0.155540 0.453284 0.000000 
0.000000 0.370419 0.000000 0.123491 0.341946 0.000000 0.227216 0.282766 0.000000 0.315108 0.195298 0.000000 0.376152 0.103121 0.000000 0.438025 0.011272 0.000000 0.499953 -0.082003 0.000000 0.581864 -0.169328 0.000000 0.690149 -0.250665 0.000000 0.821367 -0.337213 0.000000 0.935533 -0.420561 0.000000 1.013437 -0.440405 0.000000 1.206353 -0.510319 0.000000 1.753599 -0.307186 0.000000 1.886076 0.308590 0.000000 1.209074 0.705616 0.000000 -0.000000 0.767725 0.000000 -1.209074 0.705616 0.000000 -1.886076 0.308590 0.000000 -1.753599 -0.307186 0.000000 -1.206353 -0.510319 0.000000 -1.013437 -0.440405 0.000000 -0.935533 -0.420561 0.000000 -0.821367 -0.337213 0.000000 -0.690149 -0.250665 0.000000 -0.581864 -0.169328 0.000000 -0.499953 -0.082003 0.000000 -0.438025 0.011272 0.000000 -0.376152 0.103121 0.000000 -0.315108 0.195298 0.000000 -0.227216 0.282766 0.000000 -0.123491 0.341946 0.000000 
0.000000 0.245867 0.000000 0.101073 0.226068 0.000000 0.187920 0.182190 0.000000 0.262883 0.114498 0.000000 0.316139 0.036116 0.000000 0.366515 -0.050257 0.000000 0.409206 -0.144533 0.000000 0.460516 -0.237975 0.000000 0.514294 -0.322023 0.000000 0.576500 -0.384880 0.000000 0.609068 -0.406848 0.000000 0.613530 -0.347229 0.000000 0.567242 -0.147629 0.000000 0.364958 0.141388 0.000000 0.206318 0.311132 0.000000 0.147492 0.538387 0.000000 -0.000000 0.737323 0.000000 -0.147492 0.538387 0.000000 -0.206318 0.311132 0.000000 -0.364958 0.141388 0.000000 -0.567242 -0.147629 0.000000 -0.613530 -0.347229 0.000000 -0.609068 -0.406848 0.000000 -0.576500 -0.384880 0.000000 -0.514294 -0.322023 0.000000 -0.460516 -0.237975 0.000000 -0.409206 -0.144533 0.000000 -0.366515 -0.050257 0.000000 -0.316139 0.036116 0.000000 -0.262883 0.114498 0.000000 -0.187920 0.182190 0.000000 -0.101073 0.226068 0.000000 
-0.000000 0.168272 0.000000 0.075363 0.154026 0.000000 0.139923 0.120956 0.000000 0.193400 0.067079 0.000000 0.226961 -0.000511 0.000000 0.250358 -0.081794 0.000000 0.257760 -0.176004 0.000000 0.257594 -0.274417 0.000000 0.245312 -0.366649 0.000000 0.225909 -0.431986 0.000000 0.190453 -0.457591 0.000000 0.145028 -0.398579 0.000000 0.099977 -0.261747 0.000000 0.103261 0.053738 0.000000 0.102201 0.526056 0.000000 0.013332 0.911934 0.000000 0.000000 1.062710 0.000000 -0.013332 0.911934 0.000000 -0.102201 0.526056 0.000000 -0.103261 0.053738 0.000000 -0.099977 -0.261747 0.000000 -0.145028 -0.398579 0.000000 -0.190453 -0.457591 0.000000 -0.225909 -0.431986 0.000000 -0.245312 -0.366649 0.000000 -0.257594 -0.274417 0.000000 -0.257760 -0.176004 0.000000 -0.250358 -0.081794 0.000000 -0.226961 -0.000511 0.000000 -0.193400 0.067079 0.000000 -0.139923 0.120956 0.000000 -0.075363 0.154026 0.000000 
-0.000000 0.095141 0.000000 0.061071 0.086144 0.000000 0.112523 0.064153 0.000000 0.152101 0.027461 0.000000 0.169475 -0.020842 0.000000 0.168439 -0.081056 0.000000 0.139151 -0.151768 0.000000 0.085601 -0.225526 0.000000 0.001929 -0.290338 0.000000 -0.103465 -0.330022 0.000000 -0.227067 -0.325967 0.000000 -0.355676 -0.256753 0.000000 -0.460058 -0.105862 0.000000 -0.538899 0.139164 0.000000 -0.479625 0.401061 0.000000 -0.280511 0.640588 0.000000 0.000000 0.763986 0.000000 0.280511 0.640588 0.000000 0.479625 0.401061 0.000000 0.538899 0.139164 0.000000 0.460058 -0.105862 0.000000 0.355676 -0.256753 0.000000 0.227067 -0.325967 0.000000 0.103465 -0.330022 0.000000 -0.001929 -0.290338 0.000000 -0.085601 -0.225526 0.000000 -0.139151 -0.151768 0.000000 -0.168439 -0.081056 0.000000 -0.169475 -0.020842 0.000000 -0.152101 0.027461 0.000000 -0.112523 0.064153 0.000000 -0.061071 0.086144 0.000000 
-0.000000 0.046129 0.000000 0.047570 0.041504 0.000000 0.086144 0.029926 0.000000 0.111723 0.010127 0.000000 0.113605 -0.016849 0.000000 0.090881 -0.051471 0.000000 0.032549 -0.093166 0.000000 -0.060887 -0.137194 0.000000 -0.192977 -0.177584 0.000000 -0.351225 -0.202990 0.000000 -0.522999 -0.205380 0.000000 -0.677191 -0.165588 0.000000 -0.779752 -0.078524 0.000000 -0.783054 0.073304 0.000000 -0.640588 0.267668 0.000000 -0.381993 0.432309 0.000000 0.000000 0.501687 0.000000 0.381993 0.432309 0.000000 0.640588 0.267668 0.000000 0.783054 0.073304 0.000000 0.779752 -0.078524 0.000000 0.677191 -0.165588 0.000000 0.522999 -0.205380 0.000000 0.351225 -0.202990 0.000000 0.192977 -0.177584 0.000000 0.060887 -0.137194 0.000000 -0.032549 -0.093166 0.000000 -0.090881 -0.051471 0.000000 -0.113605 -0.016849 0.000000 -0.111723 0.010127 0.000000 -0.086144 0.029926 0.000000 -0.047570 0.041504 0.000000 
