# vtk DataFile Version 2.0
Comment goes here
ASCII

DATASET STRUCTURED_POINTS
FIELD FieldData 1
TIME 1 1 double
0.18000000
DIMENSIONS    32   32   1

ORIGIN    0.000   0.000   0.000
SPACING   0.03125 0.03125   1.000

POINT_DATA   1024
VECTORS u double

0.000000 -0.000000 0.000000 0.101288 -0.000000 0.000000 0.206744 -0.000000 0.000000 0.308641 -0.000000 0.000000 0.420583 -0.000000 0.000000 0.524358 -0.000000 0.000000 0.634580 -0.000000 0.000000 0.726119 -0.000000 0.000000 0.799598 -0.000000 0.000000 0.825830 0.000000 0.000000 0.775440 -0.000000 0.000000 0.620676 0.000000 0.000000 0.320201 0.000000 0.000000 -0.029941 -0.000000 0.000000 -0.314641 0.000000 0.000000 -0.310063 -0.000000 0.000000 -0.000000 -0.000000 0.000000 0.310063 0.000000 0.000000 0.314641 -0.000000 0.000000 0.029941 -0.000000 0.000000 -0.320201 -0.000000 0.000000 -0.620676 0.000000 0.000000 -0.775440 -0.000000 0.000000 -0.825830 0.000000 0.000000 -0.799598 0.000000 0.000000 -0.726119 0.000000 0.000000 -0.634580 0.000000 0.000000 -0.524358 0.000000 0.000000 -0.420583 -0.000000 0.000000 -0.308641 0.000000 0.000000 -0.206744 -0.000000 0.000000 -0.101288 -0.000000 0.000000 
-0.000000 -0.101288 0.000000 0.100507 -0.103372 0.000000 0.205249 -0.103676 0.000000 0.306750 -0.106920 0.000000 0.418592 -0.107859 0.000000 0.523588 -0.106999 0.000000 0.635536 -0.100880 0.000000 0.733394 -0.082509 0.000000 0.813347 -0.049856 0.000000 0.859906 0.012079 0.000000 0.828998 0.102577 0.000000 0.723545 0.227619 0.000000 0.467398 0.325309 0.000000 0.215202 0.317421 0.000000 0.063655 0.140061 0.000000 -0.105457 -0.157321 0.000000 -0.000000 -0.310063 0.000000 0.105457 -0.157321 0.000000 -0.063655 0.140061 0.000000 -0.215202 0.317421 0.000000 -0.467398 0.325309 0.000000 -0.723545 0.227619 0.000000 -0.828998 0.102577 0.000000 -0.859906 0.012079 0.000000 -0.813347 -0.049856 0.000000 -0.733394 -0.082509 0.000000 -0.635536 -0.100880 0.000000 -0.523588 -0.106999 0.000000 -0.418592 -0.107859 0.000000 -0.306750 -0.106920 0.000000 -0.205249 -0.103676 0.000000 -0.100507 -0.103372 0.000000 
0.000000 -0.201014 0.000000 0.098959 -0.205249 0.000000 0.203291 -0.206243 0.000000 0.304601 -0.213344 0.000000 0.420595 -0.216838 0.000000 0.531277 -0.216943 0.000000 0.658791 -0.209806 0.000000 0.776533 -0.177811 0.000000 0.894096 -0.126512 0.000000 0.980786 -0.015651 0.000000 1.009673 0.136361 0.000000 0.901856 0.361600 0.000000 0.562416 0.508342 0.000000 0.122103 0.403743 0.000000 -0.217400 0.320659 0.000000 -0.228730 0.063655 0.000000 -0.000000 -0.210914 0.000000 0.228730 0.063655 0.000000 0.217400 0.320659 0.000000 -0.122103 0.403743 0.000000 -0.562416 0.508342 0.000000 -0.901856 0.361600 0.000000 -1.009673 0.136361 0.000000 -0.980786 -0.015651 0.000000 -0.894096 -0.126512 0.000000 -0.776533 -0.177811 0.000000 -0.658791 -0.209806 0.000000 -0.531277 -0.216943 0.000000 -0.420595 -0.216838 0.000000 -0.304601 -0.213344 0.000000 -0.203291 -0.206243 0.000000 -0.098959 -0.205249 0.000000 
-0.000000 -0.299206 0.000000 0.095390 -0.306663 0.000000 0.197316 -0.309318 0.000000 0.296364 -0.324224 0.000000 0.414947 -0.334535 0.000000 0.530007 -0.345194 0.000000 0.672968 -0.346136 0.000000 0.813573 -0.317814 0.000000 0.972208 -0.254109 0.000000 1.126212 -0.103498 0.000000 1.259147 0.181507 0.000000 1.277498 0.674876 0.000000 1.033756 1.105061 0.000000 1.273849 1.097237 0.000000 1.765701 0.490894 0.000000 1.304575 -0.374720 0.000000 -0.000000 -0.767523 0.000000 -1.304575 -0.374720 0.000000 -1.765701 0.490894 0.000000 -1.273849 1.097237 0.000000 -1.033756 1.105061 0.000000 -1.277498 0.674876 0.000000 -1.259147 0.181507 0.000000 -1.126212 -0.103498 0.000000 -0.972208 -0.254109 0.000000 -0.813573 -0.317814 0.000000 -0.672968 -0.346136 0.000000 -0.530007 -0.345194 0.000000 -0.414947 -0.334535 0.000000 -0.296364 -0.324224 0.000000 -0.197316 -0.309318 0.000000 -0.095390 -0.306663 0.000000 
0.000000 -0.391794 0.000000 0.089024 -0.402565 0.000000 0.185972 -0.407217 0.000000 0.279553 -0.430974 0.000000 0.398860 -0.450481 0.000000 0.516517 -0.474965 0.000000 0.677987 -0.493372 0.000000 0.852478 -0.477051 0.000000 1.084775 -0.439151 0.000000 1.397606 -0.302590 0.000000 1.837699 -0.014925 0.000000 2.206490 0.586992 0.000000 3.027448 0.511992 0.000000 3.903766 -0.328202 0.000000 3.544128 0.289933 0.000000 1.816354 1.829356 0.000000 -0.000000 2.398236 0.000000 -1.816354 1.829356 0.000000 -3.544128 0.289933 0.000000 -3.903766 -0.328202 0.000000 -3.027448 0.511992 0.000000 -2.206490 0.586992 0.000000 -1.837699 -0.014925 0.000000 -1.397606 -0.302590 0.000000 -1.084775 -0.439151 0.000000 -0.852478 -0.477051 0.000000 -0.677987 -0.493372 0.000000 -0.516517 -0.474965 0.000000 -0.398860 -0.450481 0.000000 -0.279553 -0.430974 0.000000 -0.185972 -0.407217 0.000000 -0.089024 -0.402565 0.000000 
-0.000000 -0.477254 0.000000 0.080180 -0.492634 0.000000 0.169031 -0.499847 0.000000 0.252472 -0.537113 0.000000 0.367146 -0.571499 0.000000 0.475971 -0.624321 0.000000 0.645308 -0.682097 0.000000 0.824912 -0.724602 0.000000 1.102198 -0.799237 0.000000 1.572354 -0.856422 0.000000 2.153718 -0.627376 0.000000 2.348615 -0.514873 0.000000 2.970005 -0.592215 0.000000 2.220600 0.580557 0.000000 -0.093550 2.578306 0.000000 -0.575436 3.169408 0.000000 -0.000000 2.865184 0.000000 0.575436 3.169408 0.000000 0.093550 2.578306 0.000000 -2.220600 0.580557 0.000000 -2.970005 -0.592215 0.000000 -2.348615 -0.514873 0.000000 -2.153718 -0.627376 0.000000 -1.572354 -0.856422 0.000000 -1.102198 -0.799237 0.000000 -0.824912 -0.724602 0.000000 -0.645308 -0.682097 0.000000 -0.475971 -0.624321 0.000000 -0.367146 -0.571499 0.000000 -0.252472 -0.537113 0.000000 -0.169031 -0.499847 0.000000 -0.080180 -0.492634 0.000000 
0.000000 -0.552153 0.000000 0.066563 -0.571596 0.000000 0.140999 -0.579509 0.000000 0.204947 -0.629089 0.000000 0.300370 -0.673980 0.000000 0.376664 -0.753127 0.000000 0.515388 -0.842313 0.000000 0.645333 -0.933942 0.000000 0.907540 -1.186594 0.000000 1.514224 -1.354110 0.000000 1.721644 -0.791185 0.000000 1.604645 -0.229295 0.000000 0.970929 0.640006 0.000000 -0.042213 2.735353 0.000000 -0.617758 3.085970 0.000000 -0.050432 1.735806 0.000000 -0.000000 1.247363 0.000000 0.050432 1.735806 0.000000 0.617758 3.085970 0.000000 0.042213 2.735353 0.000000 -0.970929 0.640006 0.000000 -1.604645 -0.229295 0.000000 -1.721644 -0.791185 0.000000 -1.514224 -1.354110 0.000000 -0.907540 -1.186594 0.000000 -0.645333 -0.933942 0.000000 -0.515388 -0.842313 0.000000 -0.376664 -0.753127 0.000000 -0.300370 -0.673980 0.000000 -0.204947 -0.629089 0.000000 -0.140999 -0.579509 0.000000 -0.066563 -0.571596 0.000000 
-0.000000 -0.610381 0.000000 0.052801 -0.633634 0.000000 0.109760 -0.638230 0.000000 0.149679 -0.696483 0.000000 0.212965 -0.743216 0.000000 0.230531 -0.839339 0.000000 0.314113 -0.950766 0.000000 0.336138 -1.116755 0.000000 0.717984 -1.668128 0.000000 1.032458 -1.670526 0.000000 0.829757 -0.717798 0.000000 0.745283 0.235842 0.000000 0.012442 1.054644 0.000000 -0.294757 2.169244 0.000000 0.645599 2.586524 0.000000 0.671697 2.551650 0.000000 0.000000 2.764320 0.000000 -0.671697 2.551650 0.000000 -0.645599 2.586524 0.000000 0.294757 2.169244 0.000000 -0.012442 1.054644 0.000000 -0.745283 0.235842 0.000000 -0.829757 -0.717798 0.000000 -1.032458 -1.670526 0.000000 -0.717984 -1.668128 0.000000 -0.336138 -1.116755 0.000000 -0.314113 -0.950766 0.000000 -0.230531 -0.839339 0.000000 -0.212965 -0.743216 0.000000 -0.149679 -0.696483 0.000000 -0.109760 -0.638230 0.000000 -0.052801 -0.633634 0.000000 
0.000000 -0.657756 0.000000 0.037739 -0.681356 0.000000 0.071762 -0.676387 0.000000 0.076609 -0.732294 0.000000 0.085901 -0.754832 0.000000 0.015425 -0.854276 0.000000 0.022232 -0.947920 0.000000 -0.095350 -1.337813 0.000000 0.383663 -1.882914 0.000000 -0.078909 -1.465883 0.000000 0.016549 -0.504010 0.000000 -0.079586 0.588020 0.000000 -0.767914 1.680046 0.000000 -0.528855 2.102196 0.000000 0.083831 2.119516 0.000000 0.126066 2.381405 0.000000 0.000000 2.590757 0.000000 -0.126066 2.381405 0.000000 -0.083831 2.119516 0.000000 0.528855 2.102196 0.000000 0.767914 1.680046 0.000000 0.079586 0.588020 0.000000 -0.016549 -0.504010 0.000000 0.078909 -1.465883 0.000000 -0.383663 -1.882914 0.000000 0.095350 -1.337813 0.000000 -0.022232 -0.947920 0.000000 -0.015425 -0.854276 0.000000 -0.085901 -0.754832 0.000000 -0.076609 -0.732294 0.000000 -0.071762 -0.676387 0.000000 -0.037739 -0.681356 0.000000 
-0.000000 -0.685859 0.000000 0.030810 -0.705395 0.000000 0.042725 -0.677100 0.000000 0.019520 -0.710622 0.000000 -0.041662 -0.682032 0.000000 -0.160436 -0.775671 0.000000 -0.250392 -0.839990 0.000000 -0.348524 -1.478186 0.000000 -0.136710 -1.684569 0.000000 -0.667694 -1.303412 0.000000 -0.304760 -0.717121 0.000000 -0.670948 1.020305 0.000000 -1.242125 1.503913 0.000000 -0.405578 1.317498 0.000000 -0.165404 1.931604 0.000000 0.011229 2.635482 0.000000 0.000000 3.016451 0.000000 -0.011229 2.635482 0.000000 0.165404 1.931604 0.000000 0.405578 1.317498 0.000000 1.242125 1.503913 0.000000 0.670948 1.020305 0.000000 0.304760 -0.717121 0.000000 0.667694 -1.303412 0.000000 0.136710 -1.684569 0.000000 0.348524 -1.478186 0.000000 0.250392 -0.839990 0.000000 0.160436 -0.775671 0.000000 0.041662 -0.682032 0.000000 -0.019520 -0.710622 0.000000 -0.042725 -0.677100 0.000000 -0.030810 -0.705395 0.000000 
-0.000000 -0.719376 0.000000 0.038071 -0.724081 0.000000 0.037245 -0.665097 0.000000 -0.006666 -0.647907 0.000000 -0.133340 -0.574876 0.000000 -0.243972 -0.645546 0.000000 -0.419329 -0.759832 0.000000 -0.424893 -1.451495 0.000000 -0.772211 -1.563744 0.000000 -0.733387 -1.297833 0.000000 -0.664354 -0.500755 0.000000 -1.333477 1.525384 0.000000 -1.552212 1.414676 0.000000 -1.170369 1.025476 0.000000 -0.999750 1.702709 0.000000 -0.502090 2.216001 0.000000 0.000000 2.613215 0.000000 0.502090 2.216001 0.000000 0.999750 1.702709 0.000000 1.170369 1.025476 0.000000 1.552212 1.414676 0.000000 1.333477 1.525384 0.000000 0.664354 -0.500755 0.000000 0.733387 -1.297833 0.000000 0.772211 -1.563744 0.000000 0.424893 -1.451495 0.000000 0.419329 -0.759832 0.000000 0.243972 -0.645546 0.000000 0.133340 -0.574876 0.000000 0.006666 -0.647907 0.000000 -0.037245 -0.665097 0.000000 -0.038071 -0.724081 0.000000 
-0.000000 -0.762001 0.000000 0.060732 -0.742640 0.000000 0.065540 -0.632363 0.000000 0.004032 -0.540037 0.000000 -0.176787 -0.444726 0.000000 -0.291296 -0.489681 0.000000 -0.535586 -0.659069 0.000000 -0.571049 -1.125305 0.000000 -1.165825 -1.376076 0.000000 -0.975254 -1.411268 0.000000 -1.316642 -0.117031 0.000000 -1.849068 1.908162 0.000000 -1.650040 1.340806 0.000000 -1.531309 0.765037 0.000000 -1.190672 1.263325 0.000000 -0.664451 1.635731 0.000000 0.000000 2.012271 0.000000 0.664451 1.635731 0.000000 1.190672 1.263325 0.000000 1.531309 0.765037 0.000000 1.650040 1.340806 0.000000 1.849068 1.908162 0.000000 1.316642 -0.117031 0.000000 0.975254 -1.411268 0.000000 1.165825 -1.376076 0.000000 0.571049 -1.125305 0.000000 0.535586 -0.659069 0.000000 0.291296 -0.489681 0.000000 0.176787 -0.444726 0.000000 -0.004032 -0.540037 0.000000 -0.065540 -0.632363 0.000000 -0.060732 -0.742640 0.000000 
-0.000000 -0.840841 0.000000 0.086573 -0.789621 0.000000 0.111851 -0.608397 0.000000 0.040175 -0.405580 0.000000 -0.130467 -0.279548 0.000000 -0.238607 -0.286747 0.000000 -0.521339 -0.480079 0.000000 -0.636318 -0.821255 0.000000 -0.939962 -1.159539 0.000000 -0.998286 -1.147015 0.000000 -1.719243 0.373059 0.000000 -1.984450 1.858782 0.000000 -1.410415 1.096917 0.000000 -1.388113 0.566108 0.000000 -1.039783 0.835851 0.000000 -0.626280 1.025329 0.000000 0.000000 1.284314 0.000000 0.626280 1.025329 0.000000 1.039783 0.835851 0.000000 1.388113 0.566108 0.000000 1.410415 1.096917 0.000000 1.984450 1.858782 0.000000 1.719243 0.373059 0.000000 0.998286 -1.147015 0.000000 0.939962 -1.159539 0.000000 0.636318 -0.821255 0.000000 0.521339 -0.480079 0.000000 0.238607 -0.286747 0.000000 0.130467 -0.279548 0.000000 -0.040175 -0.405580 0.000000 -0.111851 -0.608397 0.000000 -0.086573 -0.789621 0.000000 
-0.000000 -0.935147 0.000000 0.054821 -0.854491 0.000000 0.066030 -0.585965 0.000000 0.010052 -0.297720 0.000000 -0.101109 -0.165945 0.000000 -0.271439 -0.098809 0.000000 -0.616758 -0.261358 0.000000 -0.783035 -0.706681 0.000000 -0.960470 -1.014107 0.000000 -1.404012 -0.631987 0.000000 -1.954230 0.869132 0.000000 -1.756342 1.599334 0.000000 -1.106638 0.744469 0.000000 -1.084226 0.394404 0.000000 -0.766424 0.501491 0.000000 -0.468303 0.595948 0.000000 0.000000 0.759712 0.000000 0.468303 0.595948 0.000000 0.766424 0.501491 0.000000 1.084226 0.394404 0.000000 1.106638 0.744469 0.000000 1.756342 1.599334 0.000000 1.954230 0.869132 0.000000 1.404012 -0.631987 0.000000 0.960470 -1.014107 0.000000 0.783035 -0.706681 0.000000 0.616758 -0.261358 0.000000 0.271439 -0.098809 0.000000 0.101109 -0.165945 0.000000 -0.010052 -0.297720 0.000000 -0.066030 -0.585965 0.000000 -0.054821 -0.854491 0.000000 
-0.000000 -0.950483 0.000000 -0.105662 -0.855651 0.000000 -0.233509 -0.563628 0.000000 -0.344612 -0.238441 0.000000 -0.472584 0.001943 0.000000 -0.657414 0.228902 0.000000 -0.845858 0.031518 0.000000 -0.949451 -0.477544 0.000000 -1.203022 -0.538563 0.000000 -1.675094 -0.153255 0.000000 -1.922918 0.725389 0.000000 -1.317967 1.011191 0.000000 -0.805544 0.424801 0.000000 -0.750021 0.225893 0.000000 -0.509991 0.219928 0.000000 -0.317999 0.258905 0.000000 0.000000 0.347708 0.000000 0.317999 0.258905 0.000000 0.509991 0.219928 0.000000 0.750021 0.225893 0.000000 0.805544 0.424801 0.000000 1.317967 1.011191 0.000000 1.922918 0.725389 0.000000 1.675094 -0.153255 0.000000 1.203022 -0.538563 0.000000 0.949451 -0.477544 0.000000 0.845858 0.031518 0.000000 0.657414 0.228902 0.000000 0.472584 0.001943 0.000000 0.344612 -0.238441 0.000000 0.233509 -0.563628 0.000000 0.105662 -0.855651 0.000000 
0.000000 -0.723823 0.000000 -0.475241 -0.620982 0.000000 -0.855651 -0.347015 0.000000 -1.038870 -0.058644 0.000000 -1.094092 0.146857 0.000000 -1.036927 0.274464 0.000000 -0.865190 0.030679 0.000000 -1.005409 -0.349517 0.000000 -1.342733 -0.288464 0.000000 -1.543972 0.087909 0.000000 -1.495989 0.512005 0.000000 -0.818583 0.481961 0.000000 -0.484798 0.176523 0.000000 -0.393782 0.098852 0.000000 -0.258905 0.069469 0.000000 -0.173854 0.085957 0.000000 0.000000 0.123714 0.000000 0.173854 0.085957 0.000000 0.258905 0.069469 0.000000 0.393782 0.098852 0.000000 0.484798 0.176523 0.000000 0.818583 0.481961 0.000000 1.495989 0.512005 0.000000 1.543972 0.087909 0.000000 1.342733 -0.288464 0.000000 1.005409 -0.349517 0.000000 0.865190 0.030679 0.000000 1.036927 0.274464 0.000000 1.094092 0.146857 0.000000 1.038870 -0.058644 0.000000 0.855651 -0.347015 0.000000 0.475241 -0.620982 0.000000 
0.000000 0.000000 0.000000 -0.723823 -0.000000 0.000000 -1.241964 -0.000000 0.000000 -1.417852 0.000000 0.000000 -1.359252 0.000000 0.000000 -1.124139 -0.000000 0.000000 -0.810323 -0.000000 0.000000 -1.062781 -0.000000 0.000000 -1.509357 0.000000 0.000000 -1.639709 0.000000 0.000000 -1.333539 0.000000 0.000000 -0.615700 0.000000 0.000000 -0.369618 -0.000000 0.000000 -0.262653 -0.000000 0.000000 -0.171915 -0.000000 0.000000 -0.123714 -0.000000 0.000000 -0.000000 -0.000000 0.000000 0.123714 -0.000000 0.000000 0.171915 -0.000000 0.000000 0.262653 -0.000000 0.000000 0.369618 -0.000000 0.000000 0.615700 -0.000000 0.000000 1.333539 -0.000000 0.000000 1.639709 0.000000 0.000000 1.509357 0.000000 0.000000 1.062781 0.000000 0.000000 0.810323 0.000000 0.000000 1.124139 -0.000000 0.000000 1.359252 -0.000000 0.000000 1.417852 0.000000 0.000000 1.241964 0.000000 0.000000 0.723823 0.000000 0.000000 
0.000000 0.723823 0.000000 -0.475241 0.620982 0.000000 -0.855651 0.347015 0.000000 -1.038870 0.058644 0.000000 -1.094092 -0.146857 0.000000 -1.036927 -0.274464 0.000000 -0.865190 -0.030679 0.000000 -1.005409 0.349517 0.000000 -1.342733 0.288464 0.000000 -1.543972 -0.087909 0.000000 -1.495989 -0.512005 0.000000 -0.818583 -0.481961 0.000000 -0.484798 -0.176523 0.000000 -0.393782 -0.098852 0.000000 -0.258905 -0.069469 0.000000 -0.173854 -0.085957 0.000000 0.000000 -0.123714 0.000000 0.173854 -0.085957 0.000000 0.258905 -0.069469 0.000000 0.393782 -0.098852 0.000000 0.484798 -0.176523 0.000000 0.818583 -0.481961 0.000000 1.495989 -0.512005 0.000000 1.543972 -0.087909 0.000000 1.342733 0.288464 0.000000 1.005409 0.349517 0.000000 0.865190 -0.030679 0.000000 1.036927 -0.274464 0.000000 1.094092 -0.146857 0.000000 1.038870 0.058644 0.000000 0.855651 0.347015 0.000000 0.475241 0.620982 0.000000 
0.000000 0.950483 0.000000 -0.105662 0.855651 0.000000 -0.233509 0.563628 0.000000 -0.344612 0.238441 0.000000 -0.472584 -0.001943 0.000000 -0.657414 -0.228902 0.000000 -0.845858 -0.031518 0.000000 -0.949451 0.477544 0.000000 -1.203022 0.538563 0.000000 -1.675094 0.153255 0.000000 -1.922918 -0.725389 0.000000 -1.317967 -1.011191 0.000000 -0.805544 -0.424801 0.000000 -0.750021 -0.225893 0.000000 -0.509991 -0.219928 0.000000 -0.317999 -0.258905 0.000000 0.000000 -0.347708 0.000000 0.317999 -0.258905 0.000000 0.509991 -0.219928 0.000000 0.750021 -0.225893 0.000000 0.805544 -0.424801 0.000000 1.317967 -1.011191 0.000000 1.922918 -0.725389 0.000000 1.675094 0.153255 0.000000 1.203022 0.538563 0.000000 0.949451 0.477544 0.000000 0.845858 -0.031518 0.000000 0.657414 -0.228902 0.000000 0.472584 -0.001943 0.000000 0.344612 0.238441 0.000000 0.233509 0.563628 0.000000 0.105662 0.855651 0.000000 
0.000000 0.935147 0.000000 0.054821 0.854491 0.000000 0.066030 0.585965 0.000000 0.010052 0.297720 0.000000 -0.101109 0.165945 0.000000 -0.271439 0.098809 0.000000 -0.616758 0.261358 0.000000 -0.783035 0.706681 0.000000 -0.960470 1.014107 0.000000 -1.404012 0.631987 0.000000 -1.954230 -0.869132 0.000000 -1.756342 -1.599334 0.000000 -1.106638 -0.744469 0.000000 -1.084226 -0.394404 0.000000 -0.766424 -0.501491 0.000000 -0.468303 -0.595948 0.000000 0.000000 -0.759712 0.000000 0.468303 -0.595948 0.000000 0.766424 -0.501491 0.000000 1.084226 -0.394404 0.000000 1.106638 -0.744469 0.000000 1.756342 -1.599334 0.000000 1.954230 -0.869132 0.000000 1.404012 0.631987 0.000000 0.960470 1.014107 0.000000 0.783035 0.706681 0.000000 0.616758 0.261358 0.000000 0.271439 0.098809 0.000000 0.101109 0.165945 0.000000 -0.010052 0.297720 0.000000 -0.066030 0.585965 0.000000 -0.054821 0.854491 0.000000 
0.000000 0.840841 0.000000 0.086573 0.789621 0.000000 0.111851 0.608397 0.000000 0.040175 0.405580 0.000000 -0.130467 0.279548 0.000000 -0.238607 0.286747 0.000000 -0.521339 0.480079 0.000000 -0.636318 0.821255 0.000000 -0.939962 1.159539 0.000000 -0.998286 1.147015 0.000000 -1.719243 -0.373059 0.000000 -1.984450 -1.858782 0.000000 -1.410415 -1.096917 0.000000 -1.388113 -0.566108 0.000000 -1.039783 -0.835851 0.000000 -0.626280 -1.025329 0.000000 0.000000 -1.284314 0.000000 0.626280 -1.025329 0.000000 1.039783 -0.835851 0.000000 1.388113 -0.566108 0.000000 1.410415 -1.096917 0.000000 1.984450 -1.858782 0.000000 1.719243 -0.373059 0.000000 0.998286 1.147015 0.000000 0.939962 1.159539 0.000000 0.636318 0.821255 0.000000 0.521339 0.480079 0.000000 0.238607 0.286747 0.000000 0.130467 0.279548 0.000000 -0.040175 0.405580 0.000000 -0.111851 0.608397 0.000000 -0.086573 0.789621 0.000000 
0.000000 0.762001 0.000000 0.060732 0.742640 0.000000 0.065540 0.632363 0.000000 0.004032 0.540037 0.000000 -0.176787 0.444726 0.000000 -0.291296 0.489681 0.000000 -0.535586 0.659069 0.000000 -0.571049 1.125305 0.000000 -1.165825 1.376076 0.000000 -0.975254 1.411268 0.000000 -1.316642 0.117031 0.000000 -1.849068 -1.908162 0.000000 -1.650040 -1.340806 0.000000 -1.531309 -0.765037 0.000000 -1.190672 -1.263325 0.000000 -0.664451 -1.635731 0.000000 0.000000 -2.012271 0.000000 0.664451 -1.635731 0.000000 1.190672 -1.263325 0.000000 1.531309 -0.765037 0.000000 1.650040 -1.340806 0.000000 1.849068 -1.908162 0.000000 1.316642 0.117031 0.000000 0.975254 1.411268 0.000000 1.165825 1.376076 0.000000 0.571049 1.125305 0.000000 0.535586 0.659069 0.000000 0.291296 0.489681 0.000000 0.176787 0.444726 0.000000 -0.004032 0.540037 0.000000 -0.065540 0.632363 0.000000 -0.060732 0.742640 0.000000 
0.000000 0.719376 0.000000 0.038071 0.724081 0.000000 0.037245 0.665097 0.000000 -0.006666 0.647907 0.000000 -0.133340 0.574876 0.000000 -0.243972 0.645546 0.000000 -0.419329 0.759832 0.000000 -0.424893 1.451495 0.000000 -0.772211 1.563744 0.000000 -0.733387 1.297833 0.000000 -0.664354 0.500755 0.000000 -1.333477 -1.525384 0.000000 -1.552212 -1.414676 0.000000 -1.170369 -1.025476 0.000000 -0.999750 -1.702709 0.000000 -0.502090 -2.216001 0.000000 0.000000 -2.613215 0.000000 0.502090 -2.216001 0.000000 0.999750 -1.702709 0.000000 1.170369 -1.025476 0.000000 1.552212 -1.414676 0.000000 1.333477 -1.525384 0.000000 0.664354 0.500755 0.000000 0.733387 1.297833 0.000000 0.772211 1.563744 0.000000 0.424893 1.451495 0.000000 0.419329 0.759832 0.000000 0.243972 0.645546 0.000000 0.133340 0.574876 0.000000 0.006666 0.647907 0.000000 -0.037245 0.665097 0.000000 -0.038071 0.724081 0.000000 
0.000000 0.685859 0.000000 0.030810 0.705395 0.000000 0.042725 0.677100 0.000000 0.019520 0.710622 0.000000 -0.041662 0.682032 0.000000 -0.160436 0.775671 0.000000 -0.250392 0.839990 0.000000 -0.348524 1.478186 0.000000 -0.136710 1.684569 0.000000 -0.667694 1.303412 0.000000 -0.304760 0.717121 0.000000 -0.670948 -1.020305 0.000000 -1.242125 -1.503913 0.000000 -0.405578 -1.317498 0.000000 -0.165404 -1.931604 0.000000 0.011229 -2.635482 0.000000 0.000000 -3.016451 0.000000 -0.011229 -2.635482 0.000000 0.165404 -1.931604 0.000000 0.405578 -1.317498 0.000000 1.242125 -1.503913 0.000000 0.670948 -1.020305 0.000000 0.304760 0.717121 0.000000 0.667694 1.303412 0.000000 0.136710 1.684569 0.000000 0.348524 1.478186 0.000000 0.250392 0.839990 0.000000 0.160436 0.775671 0.000000 0.041662 0.682032 0.000000 -0.019520 0.710622 0.000000 -0.042725 0.677100 0.000000 -0.030810 0.705395 0.000000 
-0.000000 0.657756 0.000000 0.037739 0.681356 0.000000 0.071762 0.676387 0.000000 0.076609 0.732294 0.000000 0.085901 0.754832 0.000000 0.015425 0.854276 0.000000 0.022232 0.947920 0.000000 -0.095350 1.337813 0.000000 0.383663 1.882914 0.000000 -0.078909 1.465883 0.000000 0.016549 0.504010 0.000000 -0.079586 -0.588020 0.000000 -0.767914 -1.680046 0.000000 -0.528855 -2.102196 0.000000 0.083831 -2.119516 0.000000 0.126066 -2.381405 0.000000 0.000000 -2.590757 0.000000 -0.126066 -2.381405 0.000000 -0.083831 -2.119516 0.000000 0.528855 -2.102196 0.000000 0.767914 -1.680046 0.000000 0.079586 -0.588020 0.000000 -0.016549 0.504010 0.000000 0.078909 1.465883 0.000000 -0.383663 1.882914 0.000000 0.095350 1.337813 0.000000 -0.022232 0.947920 0.000000 -0.015425 0.854276 0.000000 -0.085901 0.754832 0.000000 -0.076609 0.732294 0.000000 -0.071762 0.676387 0.000000 -0.037739 0.681356 0.000000 
0.000000 0.610381 0.000000 0.052801 0.633634 0.000000 0.109760 0.638230 0.000000 0.149679 0.696483 0.000000 0.212965 0.743216 0.000000 0.230531 0.839339 0.000000 0.314113 0.950766 0.000000 0.336138 1.116755 0.000000 0.717984 1.668128 0.000000 1.032458 1.670526 0.000000 0.829757 0.717798 0.000000 0.745283 -0.235842 0.000000 0.012442 -1.054644 0.000000 -0.294757 -2.169244 0.000000 0.645599 -2.586524 0.000000 0.671697 -2.551650 0.000000 -0.000000 -2.764320 0.000000 -0.671697 -2.551650 0.000000 -0.645599 -2.586524 0.000000 0.294757 -2.169244 0.000000 -0.012442 -1.054644 0.000000 -0.745283 -0.235842 0.000000 -0.829757 0.717798 0.000000 -1.032458 1.670526 0.000000 -0.717984 1.668128 0.000000 -0.336138 1.116755 0.000000 -0.314113 0.950766 0.000000 -0.230531 0.839339 0.000000 -0.212965 0.743216 0.000000 -0.149679 0.696483 0.000000 -0.109760 0.638230 0.000000 -0.052801 0.633634 0.000000 
-0.000000 0.552153 0.000000 0.066563 0.571596 0.000000 0.140999 0.579509 0.000000 0.204947 0.629089 0.000000 0.300370 0.673980 0.000000 0.376664 0.753127 0.000000 0.515388 0.842313 0.000000 0.645333 0.933942 0.000000 0.907540 1.186594 0.000000 1.514224 1.354110 0.000000 1.721644 0.791185 0.000000 1.604645 0.229295 0.000000 0.970929 -0.640006 0.000000 -0.042213 -2.735353 0.000000 -0.617758 -3.085970 0.000000 -0.050432 -1.735806 0.000000 -0.000000 -1.247363 0.000000 0.050432 -1.735806 0.000000 0.617758 -3.085970 0.000000 0.042213 -2.735353 0.000000 -0.970929 -0.640006 0.000000 -1.604645 0.229295 0.000000 -1.721644 0.791185 0.000000 -1.514224 1.354110 0.000000 -0.907540 1.186594 0.000000 -0.645333 0.933942 0.000000 -0.515388 0.842313 0.000000 -0.376664 0.753127 0.000000 -0.300370 0.673980 0.000000 -0.204947 0.629089 0.000000 -0.140999 0.579509 0.000000 -0.066563 0.571596 0.000000 
-0.000000 0.477254 0.000000 0.080180 0.492634 0.000000 0.169031 0.499847 0.000000 0.252472 0.537113 0.000000 0.367146 0.571499 0.000000 0.475971 0.624321 0.000000 0.645308 0.682097 0.000000 0.824912 0.724602 0.000000 1.102198 0.799237 0.000000 1.572354 0.856422 0.000000 2.153718 0.627376 0.000000 2.348615 0.514873 0.000000 2.970005 0.592215 0.000000 2.220600 -0.580557 0.000000 -0.093550 -2.578306 0.000000 -0.575436 -3.169408 0.000000 0.000000 -2.865184 0.000000 0.575436 -3.169408 0.000000 0.093550 -2.578306 0.000000 -2.220600 -0.580557 0.000000 -2.970005 0.592215 0.000000 -2.348615 0.514873 0.000000 -2.153718 0.627376 0.000000 -1.572354 0.856422 0.000000 -1.102198 0.799237 0.000000 -0.824912 0.724602 0.000000 -0.645308 0.682097 0.000000 -0.475971 0.624321 0.000000 -0.367146 0.571499 0.000000 -0.252472 0.537113 0.000000 -0.169031 0.499847 0.000000 -0.080180 0.492634 0.000000 
-0.000000 0.391794 0.000000 0.089024 0.402565 0.000000 0.185972 0.407217 0.000000 0.279553 0.430974 0.000000 0.398860 0.450481 0.000000 0.516517 0.474965 0.000000 0.677987 0.493372 0.000000 0.852478 0.477051 0.000000 1.084775 0.439151 0.000000 1.397606 0.302590 0.000000 1.837699 0.014925 0.000000 2.206490 -0.586992 0.000000 3.027448 -0.511992 0.000000 3.903766 0.328202 0.000000 3.544128 -0.289933 0.000000 1.816354 -1.829356 0.000000 0.000000 -2.398236 0.000000 -1.816354 -1.829356 0.000000 -3.544128 -0.289933 0.000000 -3.903766 0.328202 0.000000 -3.027448 -0.511992 0.000000 -2.206490 -0.586992 0.000000 -1.837699 0.014925 0.000000 -1.397606 0.302590 0.000000 -1.084775 0.439151 0.000000 -0.852478 0.477051 0.000000 -0.677987 0.493372 0.000000 -0.516517 0.474965 0.000000 -0.398860 0.450481 0.000000 -0.279553 0.430974 0.000000 -0.185972 0.407217 0.000000 -0.089024 0.402565 0.000000 
0.000000 0.299206 0.000000 0.095390 0.306663 0.000000 0.197316 0.309318 0.000000 0.296364 0.324224 0.000000 0.414947 0.334535 0.000000 0.530007 0.345194 0.000000 0.672968 0.346136 0.000000 0.813573 0.317814 0.000000 0.972208 0.254109 0.000000 1.126212 0.103498 0.000000 1.259147 -0.181507 0.000000 1.277498 -0.674876 0.000000 1.033756 -1.105061 0.000000 1.273849 -1.097237 0.000000 1.765701 -0.490894 0.000000 1.304575 0.374720 0.000000 0.000000 0.767523 0.000000 -1.304575 0.374720 0.000000 -1.765701 -0.490894 0.000000 -1.273849 -1.097237 0.000000 -1.033756 -1.105061 0.000000 -1.277498 -0.674876 0.000000 -1.259147 -0.181507 0.000000 -1.126212 0.103498 0.000000 -0.972208 0.254109 0.000000 -0.813573 0.317814 0.000000 -0.672968 0.346136 0.000000 -0.530007 0.345194 0.000000 -0.414947 0.334535 0.000000 -0.296364 0.324224 0.000000 -0.197316 0.309318 0.000000 -0.095390 0.306663 0.000000 
0.000000 0.201014 0.000000 0.098959 0.205249 0.000000 0.203291 0.206243 0.000000 0.304601 0.213344 0.000000 0.420595 0.216838 0.000000 0.531277 0.216943 0.000000 0.658791 0.209806 0.000000 0.776533 0.177811 0.000000 0.894096 0.126512 0.000000 0.980786 0.015651 0.000000 1.009673 -0.136361 0.000000 0.901856 -0.361600 0.000000 0.562416 -0.508342 0.000000 0.122103 -0.403743 0.000000 -0.217400 -0.320659 0.000000 -0.228730 -0.063655 0.000000 -0.000000 0.210914 0.000000 0.228730 -0.063655 0.000000 0.217400 -0.320659 0.000000 -0.122103 -0.403743 0.000000 -0.562416 -0.508342 0.000000 -0.901856 -0.361600 0.000000 -1.009673 -0.136361 0.000000 -0.980786 0.015651 0.000000 -0.894096 0.126512 0.000000 -0.776533 0.177811 0.000000 -0.658791 0.209806 0.000000 -0.531277 0.216943 0.000000 -0.420595 0.216838 0.000000 -0.304601 0.213344 0.000000 -0.203291 0.206243 0.000000 -0.098959 0.205249 0.000000 
-0.000000 0.101288 0.000000 0.100507 0.103372 0.000000 0.205249 0.103676 0.000000 0.306750 0.106920 0.000000 0.418592 0.107859 0.000000 0.523588 0.106999 0.000000 0.635536 0.100880 0.000000 0.733394 0.082509 0.000000 0.813347 0.049856 0.000000 0.859906 -0.012079 0.000000 0.828998 -0.102577 0.000000 0.723545 -0.227619 0.000000 0.467398 -0.325309 0.000000 0.215202 -0.317421 0.000000 0.063655 -0.140061 0.000000 -0.105457 0.157321 0.000000 -0.000000 0.310063 0.000000 0.105457 0.157321 0.000000 -0.063655 -0.140061 0.000000 -0.215202 -0.317421 0.000000 -0.467398 -0.325309 0.000000 -0.723545 -0.227619 0.000000 -0.828998 -0.102577 0.000000 -0.859906 -0.012079 0.000000 -0.813347 0.049856 0.000000 -0.733394 0.082509 0.000000 -0.635536 0.100880 0.000000 -0.523588 0.106999 0.000000 -0.418592 0.107859 0.000000 -0.306750 0.106920 0.000000 -0.205249 0.103676 0.000000 -0.100507 0.103372 0.000000 
