# vtk DataFile Version 2.0
Comment goes here
ASCII

DATASET STRUCTURED_POINTS
FIELD FieldData 1
TIME 1 1 double
0.74000000
DIMENSIONS    32   32   1

ORIGIN    0.000   0.000   0.000
SPACING   0.03125 0.03125   1.000

POINT_DATA   1024
VECTORS u double

-0.000000 -0.000000 0.000000 -0.022888 -0.000000 0.000000 -0.054852 -0.000000 0.000000 -0.108152 -0.000000 0.000000 -0.185164 -0.000000 0.000000 -0.294122 -0.000000 0.000000 -0.438941 -0.000000 0.000000 -0.611700 -0.000000 0.000000 -0.823766 -0.000000 0.000000 -1.027390 -0.000000 0.000000 -1.242793 -0.000000 0.000000 -1.374043 0.000000 0.000000 -1.461259 0.000000 0.000000 -1.379165 0.000000 0.000000 -1.170943 0.000000 0.000000 -0.705618 0.000000 0.000000 0.000000 -0.000000 0.000000 0.705618 -0.000000 0.000000 1.170943 -0.000000 0.000000 1.379165 -0.000000 0.000000 1.461259 -0.000000 0.000000 1.374043 0.000000 0.000000 1.242793 0.000000 0.000000 1.027390 0.000000 0.000000 0.823766 0.000000 0.000000 0.611700 0.000000 0.000000 0.438941 0.000000 0.000000 0.294122 0.000000 0.000000 0.185164 0.000000 0.000000 0.108152 -0.000000 0.000000 0.054852 0.000000 0.000000 0.022888 -0.000000 0.000000 
-0.000000 0.022888 0.000000 -0.018012 0.027426 0.000000 -0.044896 0.042632 0.000000 -0.093873 0.065156 0.000000 -0.164599 0.092985 0.000000 -0.266801 0.126888 0.000000 -0.399744 0.158789 0.000000 -0.558413 0.192413 0.000000 -0.750166 0.207845 0.000000 -0.933202 0.209514 0.000000 -1.126613 0.173326 0.000000 -1.243687 0.109233 0.000000 -1.325492 0.002561 0.000000 -1.257893 -0.145158 0.000000 -1.083743 -0.336774 0.000000 -0.658231 -0.585471 0.000000 0.000000 -0.705618 0.000000 0.658231 -0.585471 0.000000 1.083743 -0.336774 0.000000 1.257893 -0.145158 0.000000 1.325492 0.002561 0.000000 1.243687 0.109233 0.000000 1.126613 0.173326 0.000000 0.933202 0.209514 0.000000 0.750166 0.207845 0.000000 0.558413 0.192413 0.000000 0.399744 0.158789 0.000000 0.266801 0.126888 0.000000 0.164599 0.092985 0.000000 0.093873 0.065156 0.000000 0.044896 0.042632 0.000000 0.018012 0.027426 0.000000 
-0.000000 0.036025 0.000000 -0.004945 0.044896 0.000000 -0.019627 0.075860 0.000000 -0.058863 0.119704 0.000000 -0.118341 0.172928 0.000000 -0.208460 0.235144 0.000000 -0.321344 0.291612 0.000000 -0.453736 0.350422 0.000000 -0.610190 0.374789 0.000000 -0.752992 0.376447 0.000000 -0.913039 0.310485 0.000000 -1.004128 0.198879 0.000000 -1.093839 0.014206 0.000000 -1.047739 -0.241749 0.000000 -0.930539 -0.599662 0.000000 -0.559676 -1.083743 0.000000 0.000000 -1.316462 0.000000 0.559676 -1.083743 0.000000 0.930539 -0.599662 0.000000 1.047739 -0.241749 0.000000 1.093839 0.014206 0.000000 1.004128 0.198879 0.000000 0.913039 0.310485 0.000000 0.752992 0.376447 0.000000 0.610190 0.374789 0.000000 0.453736 0.350422 0.000000 0.321344 0.291612 0.000000 0.208460 0.235144 0.000000 0.118341 0.172928 0.000000 0.058863 0.119704 0.000000 0.019627 0.075860 0.000000 0.004945 0.044896 0.000000 
-0.000000 0.032777 0.000000 0.016589 0.047053 0.000000 0.022061 0.096550 0.000000 -0.002887 0.163870 0.000000 -0.045611 0.242582 0.000000 -0.121795 0.329891 0.000000 -0.208253 0.404065 0.000000 -0.309854 0.481259 0.000000 -0.417764 0.507102 0.000000 -0.503579 0.512362 0.000000 -0.598843 0.424462 0.000000 -0.623443 0.290033 0.000000 -0.669480 0.046172 0.000000 -0.626371 -0.308459 0.000000 -0.587779 -0.824836 0.000000 -0.320748 -1.516010 0.000000 0.000000 -1.824971 0.000000 0.320748 -1.516010 0.000000 0.587779 -0.824836 0.000000 0.626371 -0.308459 0.000000 0.669480 0.046172 0.000000 0.623443 0.290033 0.000000 0.598843 0.424462 0.000000 0.503579 0.512362 0.000000 0.417764 0.507102 0.000000 0.309854 0.481259 0.000000 0.208253 0.404065 0.000000 0.121795 0.329891 0.000000 0.045611 0.242582 0.000000 0.002887 0.163870 0.000000 -0.022061 0.096550 0.000000 -0.016589 0.047053 0.000000 
-0.000000 0.002846 0.000000 0.045872 0.022835 0.000000 0.076988 0.095337 0.000000 0.067933 0.187376 0.000000 0.039527 0.291836 0.000000 -0.030355 0.397787 0.000000 -0.101010 0.479671 0.000000 -0.187641 0.559933 0.000000 -0.263685 0.568514 0.000000 -0.308083 0.557526 0.000000 -0.357793 0.430349 0.000000 -0.329829 0.269516 0.000000 -0.369944 0.017134 0.000000 -0.308902 -0.323450 0.000000 -0.274941 -0.905285 0.000000 -0.056885 -1.671522 0.000000 0.000000 -1.957959 0.000000 0.056885 -1.671522 0.000000 0.274941 -0.905285 0.000000 0.308902 -0.323450 0.000000 0.369944 0.017134 0.000000 0.329829 0.269516 0.000000 0.357793 0.430349 0.000000 0.308083 0.557526 0.000000 0.263685 0.568514 0.000000 0.187641 0.559933 0.000000 0.101010 0.479671 0.000000 0.030355 0.397787 0.000000 -0.039527 0.291836 0.000000 -0.067933 0.187376 0.000000 -0.076988 0.095337 0.000000 -0.045872 0.022835 0.000000 
-0.000000 -0.058967 0.000000 0.079603 -0.029935 0.000000 0.139986 0.074490 0.000000 0.146252 0.201331 0.000000 0.130458 0.340870 0.000000 0.057078 0.470428 0.000000 -0.008620 0.561350 0.000000 -0.103375 0.643934 0.000000 -0.172889 0.627544 0.000000 -0.206629 0.606470 0.000000 -0.225325 0.446209 0.000000 -0.092514 0.302184 0.000000 0.010390 0.025245 0.000000 0.168912 -0.403461 0.000000 0.219254 -1.076853 0.000000 0.298626 -1.790951 0.000000 0.000000 -1.938740 0.000000 -0.298626 -1.790951 0.000000 -0.219254 -1.076853 0.000000 -0.168912 -0.403461 0.000000 -0.010390 0.025245 0.000000 0.092514 0.302184 0.000000 0.225325 0.446209 0.000000 0.206629 0.606470 0.000000 0.172889 0.627544 0.000000 0.103375 0.643934 0.000000 0.008620 0.561350 0.000000 -0.057078 0.470428 0.000000 -0.130458 0.340870 0.000000 -0.146252 0.201331 0.000000 -0.139986 0.074490 0.000000 -0.079603 -0.029935 0.000000 
-0.000000 -0.156360 0.000000 0.117376 -0.117151 0.000000 0.209491 0.028688 0.000000 0.231887 0.196904 0.000000 0.225154 0.381009 0.000000 0.138733 0.536864 0.000000 0.065477 0.640124 0.000000 -0.062570 0.724201 0.000000 -0.144637 0.671769 0.000000 -0.187805 0.609963 0.000000 -0.196618 0.316234 0.000000 -0.062959 0.033802 0.000000 -0.092601 -0.244292 0.000000 0.133002 -0.532314 0.000000 0.357981 -1.034998 0.000000 0.407306 -1.452268 0.000000 -0.000000 -1.360707 0.000000 -0.407306 -1.452268 0.000000 -0.357981 -1.034998 0.000000 -0.133002 -0.532314 0.000000 0.092601 -0.244292 0.000000 0.062959 0.033802 0.000000 0.196618 0.316234 0.000000 0.187805 0.609963 0.000000 0.144637 0.671769 0.000000 0.062570 0.724201 0.000000 -0.065477 0.640124 0.000000 -0.138733 0.536864 0.000000 -0.225154 0.381009 0.000000 -0.231887 0.196904 0.000000 -0.209491 0.028688 0.000000 -0.117376 -0.117151 0.000000 
-0.000000 -0.293719 0.000000 0.148421 -0.239426 0.000000 0.266661 -0.040021 0.000000 0.301442 0.185668 0.000000 0.302979 0.434024 0.000000 0.197561 0.630106 0.000000 0.113083 0.762653 0.000000 -0.075439 0.854047 0.000000 -0.224275 0.752779 0.000000 -0.411474 0.658452 0.000000 -0.524411 0.321363 0.000000 -0.220838 0.198167 0.000000 0.333297 -0.170716 0.000000 0.882540 -0.854043 0.000000 0.892284 -1.351157 0.000000 0.465615 -1.432970 0.000000 -0.000000 -1.124129 0.000000 -0.465615 -1.432970 0.000000 -0.892284 -1.351157 0.000000 -0.882540 -0.854043 0.000000 -0.333297 -0.170716 0.000000 0.220838 0.198167 0.000000 0.524411 0.321363 0.000000 0.411474 0.658452 0.000000 0.224275 0.752779 0.000000 0.075439 0.854047 0.000000 -0.113083 0.762653 0.000000 -0.197561 0.630106 0.000000 -0.302979 0.434024 0.000000 -0.301442 0.185668 0.000000 -0.266661 -0.040021 0.000000 -0.148421 -0.239426 0.000000 
0.000000 -0.453203 0.000000 0.175069 -0.383812 0.000000 0.314334 -0.124333 0.000000 0.363617 0.160585 0.000000 0.372101 0.484890 0.000000 0.247516 0.726761 0.000000 0.145345 0.913124 0.000000 -0.148791 1.061559 0.000000 -0.362211 1.007803 0.000000 -0.530394 0.910098 0.000000 -0.040741 0.125598 0.000000 0.415326 -0.823906 0.000000 0.902619 -1.347670 0.000000 0.711065 -1.091301 0.000000 0.466927 -0.618073 0.000000 0.073525 -0.559984 0.000000 -0.000000 -0.429477 0.000000 -0.073525 -0.559984 0.000000 -0.466927 -0.618073 0.000000 -0.711065 -1.091301 0.000000 -0.902619 -1.347670 0.000000 -0.415326 -0.823906 0.000000 0.040741 0.125598 0.000000 0.530394 0.910098 0.000000 0.362211 1.007803 0.000000 0.148791 1.061559 0.000000 -0.145345 0.913124 0.000000 -0.247516 0.726761 0.000000 -0.372101 0.484890 0.000000 -0.363617 0.160585 0.000000 -0.314334 -0.124333 0.000000 -0.175069 -0.383812 0.000000 
0.000000 -0.643856 0.000000 0.180565 -0.553759 0.000000 0.320705 -0.228569 0.000000 0.378417 0.127900 0.000000 0.396785 0.550125 0.000000 0.269962 0.856862 0.000000 0.203205 1.158960 0.000000 -0.143301 1.361603 0.000000 -0.401129 1.134381 0.000000 -0.258124 0.336982 0.000000 0.558704 -0.624356 0.000000 0.248231 -0.745193 0.000000 -0.095505 -0.466455 0.000000 -0.613391 -0.418351 0.000000 -0.403834 -0.713618 0.000000 -0.198020 -0.966044 0.000000 0.000000 -0.977078 0.000000 0.198020 -0.966044 0.000000 0.403834 -0.713618 0.000000 0.613391 -0.418351 0.000000 0.095505 -0.466455 0.000000 -0.248231 -0.745193 0.000000 -0.558704 -0.624356 0.000000 0.258124 0.336982 0.000000 0.401129 1.134381 0.000000 0.143301 1.361603 0.000000 -0.203205 1.158960 0.000000 -0.269962 0.856862 0.000000 -0.396785 0.550125 0.000000 -0.378417 0.127900 0.000000 -0.320705 -0.228569 0.000000 -0.180565 -0.553759 0.000000 
0.000000 -0.814332 0.000000 0.175086 -0.704517 0.000000 0.307462 -0.322185 0.000000 0.386842 0.084505 0.000000 0.420647 0.593346 0.000000 0.331631 0.920341 0.000000 0.283930 1.326387 0.000000 -0.282712 1.665892 0.000000 -0.629344 1.122626 0.000000 0.122834 -0.049734 0.000000 0.245783 -0.380756 0.000000 0.026928 -0.169697 0.000000 0.466917 -0.486048 0.000000 0.788905 -0.782973 0.000000 0.870663 -1.033444 0.000000 0.529849 -0.963818 0.000000 0.000000 -0.825518 0.000000 -0.529849 -0.963818 0.000000 -0.870663 -1.033444 0.000000 -0.788905 -0.782973 0.000000 -0.466917 -0.486048 0.000000 -0.026928 -0.169697 0.000000 -0.245783 -0.380756 0.000000 -0.122834 -0.049734 0.000000 0.629344 1.122626 0.000000 0.282712 1.665892 0.000000 -0.283930 1.326387 0.000000 -0.331631 0.920341 0.000000 -0.420647 0.593346 0.000000 -0.386842 0.084505 0.000000 -0.307462 -0.322185 0.000000 -0.175086 -0.704517 0.000000 
0.000000 -0.994028 0.000000 0.126819 -0.861221 0.000000 0.210274 -0.440326 0.000000 0.299183 0.014715 0.000000 0.319962 0.605337 0.000000 0.262105 0.993578 0.000000 0.232274 1.773303 0.000000 -0.848776 2.274878 0.000000 -0.250602 0.728835 0.000000 0.925922 -0.538145 0.000000 0.690046 -0.528451 0.000000 1.034120 -0.966327 0.000000 1.072331 -1.228431 0.000000 0.906115 -0.822098 0.000000 0.678391 -0.454563 0.000000 0.315233 -0.095380 0.000000 -0.000000 0.082620 0.000000 -0.315233 -0.095380 0.000000 -0.678391 -0.454563 0.000000 -0.906115 -0.822098 0.000000 -1.072331 -1.228431 0.000000 -1.034120 -0.966327 0.000000 -0.690046 -0.528451 0.000000 -0.925922 -0.538145 0.000000 0.250602 0.728835 0.000000 0.848776 2.274878 0.000000 -0.232274 1.773303 0.000000 -0.262105 0.993578 0.000000 -0.319962 0.605337 0.000000 -0.299183 0.014715 0.000000 -0.210274 -0.440326 0.000000 -0.126819 -0.861221 0.000000 
0.000000 -1.067971 0.000000 0.048738 -0.914791 0.000000 0.073380 -0.494549 0.000000 0.196030 -0.025184 0.000000 0.216756 0.630424 0.000000 0.426635 1.008030 0.000000 0.083452 2.437269 0.000000 -0.921875 2.148769 0.000000 1.201586 -0.652073 0.000000 1.334446 -0.990383 0.000000 1.023597 -0.488955 0.000000 0.749911 -0.551981 0.000000 0.339381 -0.358042 0.000000 0.068919 -0.389034 0.000000 -0.024959 -0.442563 0.000000 -0.058196 -0.285427 0.000000 -0.000000 -0.195052 0.000000 0.058196 -0.285427 0.000000 0.024959 -0.442563 0.000000 -0.068919 -0.389034 0.000000 -0.339381 -0.358042 0.000000 -0.749911 -0.551981 0.000000 -1.023597 -0.488955 0.000000 -1.334446 -0.990383 0.000000 -1.201586 -0.652073 0.000000 0.921875 2.148769 0.000000 -0.083452 2.437269 0.000000 -0.426635 1.008030 0.000000 -0.216756 0.630424 0.000000 -0.196030 -0.025184 0.000000 -0.073380 -0.494549 0.000000 -0.048738 -0.914791 0.000000 
0.000000 -1.091505 0.000000 -0.095050 -0.934601 0.000000 -0.200089 -0.587617 0.000000 -0.092189 -0.128660 0.000000 -0.203368 0.374731 0.000000 0.376564 1.126881 0.000000 -0.671815 3.121813 0.000000 0.284341 1.156744 0.000000 2.092332 -1.527486 0.000000 0.818064 -0.360156 0.000000 0.654222 0.056085 0.000000 0.221453 -0.282112 0.000000 0.216190 -0.547440 0.000000 0.197507 -0.457757 0.000000 0.116997 -0.327448 0.000000 0.028282 -0.120339 0.000000 -0.000000 -0.033771 0.000000 -0.028282 -0.120339 0.000000 -0.116997 -0.327448 0.000000 -0.197507 -0.457757 0.000000 -0.216190 -0.547440 0.000000 -0.221453 -0.282112 0.000000 -0.654222 0.056085 0.000000 -0.818064 -0.360156 0.000000 -2.092332 -1.527486 0.000000 -0.284341 1.156744 0.000000 0.671815 3.121813 0.000000 -0.376564 1.126881 0.000000 0.203368 0.374731 0.000000 0.092189 -0.128660 0.000000 0.200089 -0.587617 0.000000 0.095050 -0.934601 0.000000 
0.000000 -0.877870 0.000000 -0.281188 -0.714702 0.000000 -0.500441 -0.497409 0.000000 -0.536940 -0.021905 0.000000 -0.571986 0.161670 0.000000 -0.127494 1.476478 0.000000 -0.528002 2.529492 0.000000 1.641396 -0.615379 0.000000 1.302853 -1.185796 0.000000 0.420702 0.447728 0.000000 0.494959 0.107657 0.000000 0.440746 -0.113949 0.000000 0.292839 -0.334096 0.000000 0.150778 -0.289841 0.000000 0.036310 -0.273337 0.000000 -0.014862 -0.168430 0.000000 -0.000000 -0.138489 0.000000 0.014862 -0.168430 0.000000 -0.036310 -0.273337 0.000000 -0.150778 -0.289841 0.000000 -0.292839 -0.334096 0.000000 -0.440746 -0.113949 0.000000 -0.494959 0.107657 0.000000 -0.420702 0.447728 0.000000 -1.302853 -1.185796 0.000000 -1.641396 -0.615379 0.000000 0.528002 2.529492 0.000000 0.127494 1.476478 0.000000 0.571986 0.161670 0.000000 0.536940 -0.021905 0.000000 0.500441 -0.497409 0.000000 0.281188 -0.714702 0.000000 
0.000000 -0.529130 0.000000 -0.438935 -0.434160 0.000000 -0.714702 -0.331865 0.000000 -0.936345 -0.057115 0.000000 -0.736607 -0.034715 0.000000 -0.774674 1.082897 0.000000 0.739871 1.352923 0.000000 1.754817 -0.674111 0.000000 0.124492 -0.306792 0.000000 0.569021 0.447737 0.000000 0.572220 0.036041 0.000000 0.676678 -0.079991 0.000000 0.458271 -0.257473 0.000000 0.342582 -0.201228 0.000000 0.168430 -0.161807 0.000000 0.069244 -0.084030 0.000000 -0.000000 -0.063496 0.000000 -0.069244 -0.084030 0.000000 -0.168430 -0.161807 0.000000 -0.342582 -0.201228 0.000000 -0.458271 -0.257473 0.000000 -0.676678 -0.079991 0.000000 -0.572220 0.036041 0.000000 -0.569021 0.447737 0.000000 -0.124492 -0.306792 0.000000 -1.754817 -0.674111 0.000000 -0.739871 1.352923 0.000000 0.774674 1.082897 0.000000 0.736607 -0.034715 0.000000 0.936345 -0.057115 0.000000 0.714702 -0.331865 0.000000 0.438935 -0.434160 0.000000 
-0.000000 0.000000 0.000000 -0.529130 0.000000 0.000000 -0.868319 0.000000 0.000000 -1.192859 0.000000 0.000000 -0.982550 0.000000 0.000000 -1.262289 -0.000000 0.000000 1.183245 -0.000000 0.000000 1.443557 0.000000 0.000000 -0.164977 -0.000000 0.000000 0.829973 -0.000000 0.000000 0.730497 -0.000000 0.000000 0.902056 -0.000000 0.000000 0.570516 -0.000000 0.000000 0.387111 -0.000000 0.000000 0.168059 -0.000000 0.000000 0.063496 -0.000000 0.000000 -0.000000 -0.000000 0.000000 -0.063496 -0.000000 0.000000 -0.168059 -0.000000 0.000000 -0.387111 -0.000000 0.000000 -0.570516 -0.000000 0.000000 -0.902056 0.000000 0.000000 -0.730497 0.000000 0.000000 -0.829973 0.000000 0.000000 0.164977 0.000000 0.000000 -1.443557 0.000000 0.000000 -1.183245 0.000000 0.000000 1.262289 -0.000000 0.000000 0.982550 -0.000000 0.000000 1.192859 -0.000000 0.000000 0.868319 -0.000000 0.000000 0.529130 0.000000 0.000000 
-0.000000 0.529130 0.000000 -0.438935 0.434160 0.000000 -0.714702 0.331865 0.000000 -0.936345 0.057115 0.000000 -0.736607 0.034715 0.000000 -0.774674 -1.082897 0.000000 0.739871 -1.352923 0.000000 1.754817 0.674111 0.000000 0.124492 0.306792 0.000000 0.569021 -0.447737 0.000000 0.572220 -0.036041 0.000000 0.676678 0.079991 0.000000 0.458271 0.257473 0.000000 0.342582 0.201228 0.000000 0.168430 0.161807 0.000000 0.069244 0.084030 0.000000 -0.000000 0.063496 0.000000 -0.069244 0.084030 0.000000 -0.168430 0.161807 0.000000 -0.342582 0.201228 0.000000 -0.458271 0.257473 0.000000 -0.676678 0.079991 0.000000 -0.572220 -0.036041 0.000000 -0.569021 -0.447737 0.000000 -0.124492 0.306792 0.000000 -1.754817 0.674111 0.000000 -0.739871 -1.352923 0.000000 0.774674 -1.082897 0.000000 0.736607 0.034715 0.000000 0.936345 0.057115 0.000000 0.714702 0.331865 0.000000 0.438935 0.434160 0.000000 
-0.000000 0.877870 0.000000 -0.281188 0.714702 0.000000 -0.500441 0.497409 0.000000 -0.536940 0.021905 0.000000 -0.571986 -0.161670 0.000000 -0.127494 -1.476478 0.000000 -0.528002 -2.529492 0.000000 1.641396 0.615379 0.000000 1.302853 1.185796 0.000000 0.420702 -0.447728 0.000000 0.494959 -0.107657 0.000000 0.440746 0.113949 0.000000 0.292839 0.334096 0.000000 0.150778 0.289841 0.000000 0.036310 0.273337 0.000000 -0.014862 0.168430 0.000000 -0.000000 0.138489 0.000000 0.014862 0.168430 0.000000 -0.036310 0.273337 0.000000 -0.150778 0.289841 0.000000 -0.292839 0.334096 0.000000 -0.440746 0.113949 0.000000 -0.494959 -0.107657 0.000000 -0.420702 -0.447728 0.000000 -1.302853 1.185796 0.000000 -1.641396 0.615379 0.000000 0.528002 -2.529492 0.000000 0.127494 -1.476478 0.000000 0.571986 -0.161670 0.000000 0.536940 0.021905 0.000000 0.500441 0.497409 0.000000 0.281188 0.714702 0.000000 
-0.000000 1.091505 0.000000 -0.095050 0.934601 0.000000 -0.200089 0.587617 0.000000 -0.092189 0.128660 0.000000 -0.203368 -0.374731 0.000000 0.376564 -1.126881 0.000000 -0.671815 -3.121813 0.000000 0.284341 -1.156744 0.000000 2.092332 1.527486 0.000000 0.818064 0.360156 0.000000 0.654222 -0.056085 0.000000 0.221453 0.282112 0.000000 0.216190 0.547440 0.000000 0.197507 0.457757 0.000000 0.116997 0.327448 0.000000 0.028282 0.120339 0.000000 -0.000000 0.033771 0.000000 -0.028282 0.120339 0.000000 -0.116997 0.327448 0.000000 -0.197507 0.457757 0.000000 -0.216190 0.547440 0.000000 -0.221453 0.282112 0.000000 -0.654222 -0.056085 0.000000 -0.818064 0.360156 0.000000 -2.092332 1.527486 0.000000 -0.284341 -1.156744 0.000000 0.671815 -3.121813 0.000000 -0.376564 -1.126881 0.000000 0.203368 -0.374731 0.000000 0.092189 0.128660 0.000000 0.200089 0.587617 0.000000 0.095050 0.934601 0.000000 
-0.000000 1.067971 0.000000 0.048738 0.914791 0.000000 0.073380 0.494549 0.000000 0.196030 0.025184 0.000000 0.216756 -0.630424 0.000000 0.426635 -1.008030 0.000000 0.083452 -2.437269 0.000000 -0.921875 -2.148769 0.000000 1.201586 0.652073 0.000000 1.334446 0.990383 0.000000 1.023597 0.488955 0.000000 0.749911 0.551981 0.000000 0.339381 0.358042 0.000000 0.068919 0.389034 0.000000 -0.024959 0.442563 0.000000 -0.058196 0.285427 0.000000 -0.000000 0.195052 0.000000 0.058196 0.285427 0.000000 0.024959 0.442563 0.000000 -0.068919 0.389034 0.000000 -0.339381 0.358042 0.000000 -0.749911 0.551981 0.000000 -1.023597 0.488955 0.000000 -1.334446 0.990383 0.000000 -1.201586 0.652073 0.000000 0.921875 -2.148769 0.000000 -0.083452 -2.437269 0.000000 -0.426635 -1.008030 0.000000 -0.216756 -0.630424 0.000000 -0.196030 0.025184 0.000000 -0.073380 0.494549 0.000000 -0.048738 0.914791 0.000000 
-0.000000 0.994028 0.000000 0.126819 0.861221 0.000000 0.210274 0.440326 0.000000 0.299183 -0.014715 0.000000 0.319962 -0.605337 0.000000 0.262105 -0.993578 0.000000 0.232274 -1.773303 0.000000 -0.848776 -2.274878 0.000000 -0.250602 -0.728835 0.000000 0.925922 0.538145 0.000000 0.690046 0.528451 0.000000 1.034120 0.966327 0.000000 1.072331 1.228431 0.000000 0.906115 0.822098 0.000000 0.678391 0.454563 0.000000 0.315233 0.095380 0.000000 -0.000000 -0.082620 0.000000 -0.315233 0.095380 0.000000 -0.678391 0.454563 0.000000 -0.906115 0.822098 0.000000 -1.072331 1.228431 0.000000 -1.034120 0.966327 0.000000 -0.690046 0.528451 0.000000 -0.925922 0.538145 0.000000 0.250602 -0.728835 0.000000 0.848776 -2.274878 0.000000 -0.232274 -1.773303 0.000000 -0.262105 -0.993578 0.000000 -0.319962 -0.605337 0.000000 -0.299183 -0.014715 0.000000 -0.210274 0.440326 0.000000 -0.126819 0.861221 0.000000 
-0.000000 0.814332 0.000000 0.175086 0.704517 0.000000 0.307462 0.322185 0.000000 0.386842 -0.084505 0.000000 0.420647 -0.593346 0.000000 0.331631 -0.920341 0.000000 0.283930 -1.326387 0.000000 -0.282712 -1.665892 0.000000 -0.629344 -1.122626 0.000000 0.122834 0.049734 0.000000 0.245783 0.380756 0.000000 0.026928 0.169697 0.000000 0.466917 0.486048 0.000000 0.788905 0.782973 0.000000 0.870663 1.033444 0.000000 0.529849 0.963818 0.000000 -0.000000 0.825518 0.000000 -0.529849 0.963818 0.000000 -0.870663 1.033444 0.000000 -0.788905 0.782973 0.000000 -0.466917 0.486048 0.000000 -0.026928 0.169697 0.000000 -0.245783 0.380756 0.000000 -0.122834 0.049734 0.000000 0.629344 -1.122626 0.000000 0.282712 -1.665892 0.000000 -0.283930 -1.326387 0.000000 -0.331631 -0.920341 0.000000 -0.420647 -0.593346 0.000000 -0.386842 -0.084505 0.000000 -0.307462 0.322185 0.000000 -0.175086 0.704517 0.000000 
-0.000000 0.643856 0.000000 0.180565 0.553759 0.000000 0.320705 0.228569 0.000000 0.378417 -0.127900 0.000000 0.396785 -0.550125 0.000000 0.269962 -0.856862 0.000000 0.203205 -1.158960 0.000000 -0.143301 -1.361603 0.000000 -0.401129 -1.134381 0.000000 -0.258124 -0.336982 0.000000 0.558704 0.624356 0.000000 0.248231 0.745193 0.000000 -0.095505 0.466455 0.000000 -0.613391 0.418351 0.000000 -0.403834 0.713618 0.000000 -0.198020 0.966044 0.000000 0.000000 0.977078 0.000000 0.198020 0.966044 0.000000 0.403834 0.713618 0.000000 0.613391 0.418351 0.000000 0.095505 0.466455 0.000000 -0.248231 0.745193 0.000000 -0.558704 0.624356 0.000000 0.258124 -0.336982 0.000000 0.401129 -1.134381 0.000000 0.143301 -1.361603 0.000000 -0.203205 -1.158960 0.000000 -0.269962 -0.856862 0.000000 -0.396785 -0.550125 0.000000 -0.378417 -0.127900 0.000000 -0.320705 0.228569 0.000000 -0.180565 0.553759 0.000000 
-0.000000 0.453203 0.000000 0.175069 0.383812 0.000000 0.314334 0.124333 0.000000 0.363617 -0.160585 0.000000 0.372101 -0.484890 0.000000 0.247516 -0.726761 0.000000 0.145345 -0.913124 0.000000 -0.148791 -1.061559 0.000000 -0.362211 -1.007803 0.000000 -0.530394 -0.910098 0.000000 -0.040741 -0.125598 0.000000 0.415326 0.823906 0.000000 0.902619 1.347670 0.000000 0.711065 1.091301 0.000000 0.466927 0.618073 0.000000 0.073525 0.559984 0.000000 0.000000 0.429477 0.000000 -0.073525 0.559984 0.000000 -0.466927 0.618073 0.000000 -0.711065 1.091301 0.000000 -0.902619 1.347670 0.000000 -0.415326 0.823906 0.000000 0.040741 -0.125598 0.000000 0.530394 -0.910098 0.000000 0.362211 -1.007803 0.000000 0.148791 -1.061559 0.000000 -0.145345 -0.913124 0.000000 -0.247516 -0.726761 0.000000 -0.372101 -0.484890 0.000000 -0.363617 -0.160585 0.000000 -0.314334 0.124333 0.000000 -0.175069 0.383812 0.000000 
0.000000 0.293719 0.000000 0.148421 0.239426 0.000000 0.266661 0.040021 0.000000 0.301442 -0.185668 0.000000 0.302979 -0.434024 0.000000 0.197561 -0.630106 0.000000 0.113083 -0.762653 0.000000 -0.075439 -0.854047 0.000000 -0.224275 -0.752779 0.000000 -0.411474 -0.658452 0.000000 -0.524411 -0.321363 0.000000 -0.220838 -0.198167 0.000000 0.333297 0.170716 0.000000 0.882540 0.854043 0.000000 0.892284 1.351157 0.000000 0.465615 1.432970 0.000000 0.000000 1.124129 0.000000 -0.465615 1.432970 0.000000 -0.892284 1.351157 0.000000 -0.882540 0.854043 0.000000 -0.333297 0.170716 0.000000 0.220838 -0.198167 0.000000 0.524411 -0.321363 0.000000 0.411474 -0.658452 0.000000 0.224275 -0.752779 0.000000 0.075439 -0.854047 0.000000 -0.113083 -0.762653 0.000000 -0.197561 -0.630106 0.000000 -0.302979 -0.434024 0.000000 -0.301442 -0.185668 0.000000 -0.266661 0.040021 0.000000 -0.148421 0.239426 0.000000 
0.000000 0.156360 0.000000 0.117376 0.117151 0.000000 0.209491 -0.028688 0.000000 0.231887 -0.196904 0.000000 0.225154 -0.381009 0.000000 0.138733 -0.536864 0.000000 0.065477 -0.640124 0.000000 -0.062570 -0.724201 0.000000 -0.144637 -0.671769 0.000000 -0.187805 -0.609963 0.000000 -0.196618 -0.316234 0.000000 -0.062959 -0.033802 0.000000 -0.092601 0.244292 0.000000 0.133002 0.532314 0.000000 0.357981 1.034998 0.000000 0.407306 1.452268 0.000000 0.000000 1.360707 0.000000 -0.407306 1.452268 0.000000 -0.357981 1.034998 0.000000 -0.133002 0.532314 0.000000 0.092601 0.244292 0.000000 0.062959 -0.033802 0.000000 0.196618 -0.316234 0.000000 0.187805 -0.609963 0.000000 0.144637 -0.671769 0.000000 0.062570 -0.724201 0.000000 -0.065477 -0.640124 0.000000 -0.138733 -0.536864 0.000000 -0.225154 -0.381009 0.000000 -0.231887 -0.196904 0.000000 -0.209491 -0.028688 0.000000 -0.117376 0.117151 0.000000 
0.000000 0.058967 0.000000 0.079603 0.029935 0.000000 0.139986 -0.074490 0.000000 0.146252 -0.201331 0.000000 0.130458 -0.340870 0.000000 0.057078 -0.470428 0.000000 -0.008620 -0.561350 0.000000 -0.103375 -0.643934 0.000000 -0.172889 -0.627544 0.000000 -0.206629 -0.606470 0.000000 -0.225325 -0.446209 0.000000 -0.092514 -0.302184 0.000000 0.010390 -0.025245 0.000000 0.168912 0.403461 0.000000 0.219254 1.076853 0.000000 0.298626 1.790951 0.000000 0.000000 1.938740 0.000000 -0.298626 1.790951 0.000000 -0.219254 1.076853 0.000000 -0.168912 0.403461 0.000000 -0.010390 -0.025245 0.000000 0.092514 -0.302184 0.000000 0.225325 -0.446209 0.000000 0.206629 -0.606470 0.000000 0.172889 -0.627544 0.000000 0.103375 -0.643934 0.000000 0.008620 -0.561350 0.000000 -0.057078 -0.470428 0.000000 -0.130458 -0.340870 0.000000 -0.146252 -0.201331 0.000000 -0.139986 -0.074490 0.000000 -0.079603 0.029935 0.000000 
0.000000 -0.002846 0.000000 0.045872 -0.022835 0.000000 0.076988 -0.095337 0.000000 0.067933 -0.187376 0.000000 0.039527 -0.291836 0.000000 -0.030355 -0.397787 0.000000 -0.101010 -0.479671 0.000000 -0.187641 -0.559933 0.000000 -0.263685 -0.568514 0.000000 -0.308083 -0.557526 0.000000 -0.357793 -0.430349 0.000000 -0.329829 -0.269516 0.000000 -0.369944 -0.017134 0.000000 -0.308902 0.323450 0.000000 -0.274941 0.905285 0.000000 -0.056885 1.671522 0.000000 -0.000000 1.957959 0.000000 0.056885 1.671522 0.000000 0.274941 0.905285 0.000000 0.308902 0.323450 0.000000 0.369944 -0.017134 0.000000 0.329829 -0.269516 0.000000 0.357793 -0.430349 0.000000 0.308083 -0.557526 0.000000 0.263685 -0.568514 0.000000 0.187641 -0.559933 0.000000 0.101010 -0.479671 0.000000 0.030355 -0.397787 0.000000 -0.039527 -0.291836 0.000000 -0.067933 -0.187376 0.000000 -0.076988 -0.095337 0.000000 -0.045872 -0.022835 0.000000 
-0.000000 -0.032777 0.000000 0.016589 -0.047053 0.000000 0.022061 -0.096550 0.000000 -0.002887 -0.163870 0.000000 -0.045611 -0.242582 0.000000 -0.121795 -0.329891 0.000000 -0.208253 -0.404065 0.000000 -0.309854 -0.481259 0.000000 -0.417764 -0.507102 0.000000 -0.503579 -0.512362 0.000000 -0.598843 -0.424462 0.000000 -0.623443 -0.290033 0.000000 -0.669480 -0.046172 0.000000 -0.626371 0.308459 0.000000 -0.587779 0.824836 0.000000 -0.320748 1.516010 0.000000 -0.000000 1.824971 0.000000 0.320748 1.516010 0.000000 0.587779 0.824836 0.000000 0.626371 0.308459 0.000000 0.669480 -0.046172 0.000000 0.623443 -0.290033 0.000000 0.598843 -0.424462 0.000000 0.503579 -0.512362 0.000000 0.417764 -0.507102 0.000000 0.309854 -0.481259 0.000000 0.208253 -0.404065 0.000000 0.121795 -0.329891 0.000000 0.045611 -0.242582 0.000000 0.002887 -0.163870 0.000000 -0.022061 -0.096550 0.000000 -0.016589 -0.047053 0.000000 
-0.000000 -0.036025 0.000000 -0.004945 -0.044896 0.000000 -0.019627 -0.075860 0.000000 -0.058863 -0.119704 0.000000 -0.118341 -0.172928 0.000000 -0.208460 -0.235144 0.000000 -0.321344 -0.291612 0.000000 -0.453736 -0.350422 0.000000 -0.610190 -0.374789 0.000000 -0.752992 -0.376447 0.000000 -0.913039 -0.310485 0.000000 -1.004128 -0.198879 0.000000 -1.093839 -0.014206 0.000000 -1.047739 0.241749 0.000000 -0.930539 0.599662 0.000000 -0.559676 1.083743 0.000000 -0.000000 1.316462 0.000000 0.559676 1.083743 0.000000 0.930539 0.599662 0.000000 1.047739 0.241749 0.000000 1.093839 -0.014206 0.000000 1.004128 -0.198879 0.000000 0.913039 -0.310485 0.000000 0.752992 -0.376447 0.000000 0.610190 -0.374789 0.000000 0.453736 -0.350422 0.000000 0.321344 -0.291612 0.000000 0.208460 -0.235144 0.000000 0.118341 -0.172928 0.000000 0.058863 -0.119704 0.000000 0.019627 -0.075860 0.000000 0.004945 -0.044896 0.000000 
-0.000000 -0.022888 0.000000 -0.018012 -0.027426 0.000000 -0.044896 -0.042632 0.000000 -0.093873 -0.065156 0.000000 -0.164599 -0.092985 0.000000 -0.266801 -0.126888 0.000000 -0.399744 -0.158789 0.000000 -0.558413 -0.192413 0.000000 -0.750166 -0.207845 0.000000 -0.933202 -0.209514 0.000000 -1.126613 -0.173326 0.000000 -1.243687 -0.109233 0.000000 -1.325492 -0.002561 0.000000 -1.257893 0.145158 0.000000 -1.083743 0.336774 0.000000 -0.658231 0.585471 0.000000 0.000000 0.705618 0.000000 0.658231 0.585471 0.000000 1.083743 0.336774 0.000000 1.257893 0.145158 0.000000 1.325492 -0.002561 0.000000 1.243687 -0.109233 0.000000 1.126613 -0.173326 0.000000 0.933202 -0.209514 0.000000 0.750166 -0.207845 0.000000 0.558413 -0.192413 0.000000 0.399744 -0.158789 0.000000 0.266801 -0.126888 0.000000 0.164599 -0.092985 0.000000 0.093873 -0.065156 0.000000 0.044896 -0.042632 0.000000 0.018012 -0.027426 0.000000 
