# vtk DataFile Version 2.0
Comment goes here
ASCII

DATASET STRUCTURED_POINTS
FIELD FieldData 1
TIME 1 1 double
0.78000000
DIMENSIONS    32   32   1

ORIGIN    0.000   0.000   0.000
SPACING   0.03125 0.03125   1.000

POINT_DATA   1024
VECTORS u double

-0.000000 -0.000000 0.000000 -0.032276 -0.000000 0.000000 -0.078830 -0.000000 0.000000 -0.141547 -0.000000 0.000000 -0.241271 -0.000000 0.000000 -0.368090 -0.000000 0.000000 -0.542520 -0.000000 0.000000 -0.744173 -0.000000 0.000000 -0.974540 -0.000000 0.000000 -1.200510 -0.000000 0.000000 -1.397857 -0.000000 0.000000 -1.535425 0.000000 0.000000 -1.576380 0.000000 0.000000 -1.483630 0.000000 0.000000 -1.207731 0.000000 0.000000 -0.690224 0.000000 0.000000 0.000000 -0.000000 0.000000 0.690224 -0.000000 0.000000 1.207731 -0.000000 0.000000 1.483630 -0.000000 0.000000 1.576380 -0.000000 0.000000 1.535425 0.000000 0.000000 1.397857 0.000000 0.000000 1.200510 0.000000 0.000000 0.974540 0.000000 0.000000 0.744173 0.000000 0.000000 0.542520 0.000000 0.000000 0.368090 0.000000 0.000000 0.241271 0.000000 0.000000 0.141547 0.000000 0.000000 0.078830 0.000000 0.000000 0.032276 0.000000 0.000000 
-0.000000 0.032276 0.000000 -0.027508 0.039415 0.000000 -0.069635 0.054635 0.000000 -0.127387 0.081221 0.000000 -0.221934 0.113271 0.000000 -0.340855 0.150624 0.000000 -0.505988 0.188042 0.000000 -0.694695 0.216010 0.000000 -0.912754 0.228168 0.000000 -1.126179 0.211658 0.000000 -1.315710 0.167457 0.000000 -1.448871 0.089262 0.000000 -1.488820 -0.025897 0.000000 -1.402791 -0.184324 0.000000 -1.127841 -0.396703 0.000000 -0.632492 -0.603865 0.000000 0.000000 -0.690224 0.000000 0.632492 -0.603865 0.000000 1.127841 -0.396703 0.000000 1.402791 -0.184324 0.000000 1.488820 -0.025897 0.000000 1.448871 0.089262 0.000000 1.315710 0.167457 0.000000 1.126179 0.211658 0.000000 0.912754 0.228168 0.000000 0.694695 0.216010 0.000000 0.505988 0.188042 0.000000 0.340855 0.150624 0.000000 0.221934 0.113271 0.000000 0.127387 0.081221 0.000000 0.069635 0.054635 0.000000 0.027508 0.039415 0.000000 
-0.000000 0.055016 0.000000 -0.011618 0.069635 0.000000 -0.038810 0.099879 0.000000 -0.081335 0.152299 0.000000 -0.159552 0.213468 0.000000 -0.256569 0.284054 0.000000 -0.393302 0.353840 0.000000 -0.544923 0.406766 0.000000 -0.719120 0.431485 0.000000 -0.886685 0.402956 0.000000 -1.028819 0.322691 0.000000 -1.121976 0.173110 0.000000 -1.130199 -0.046080 0.000000 -1.039658 -0.360978 0.000000 -0.815163 -0.770299 0.000000 -0.435537 -1.127841 0.000000 0.000000 -1.264983 0.000000 0.435537 -1.127841 0.000000 0.815163 -0.770299 0.000000 1.039658 -0.360978 0.000000 1.130199 -0.046080 0.000000 1.121976 0.173110 0.000000 1.028819 0.322691 0.000000 0.886685 0.402956 0.000000 0.719120 0.431485 0.000000 0.544923 0.406766 0.000000 0.393302 0.353840 0.000000 0.256569 0.284054 0.000000 0.159552 0.213468 0.000000 0.081335 0.152299 0.000000 0.038810 0.099879 0.000000 0.011618 0.069635 0.000000 
-0.000000 0.055513 0.000000 0.012315 0.078224 0.000000 0.006458 0.124352 0.000000 -0.015460 0.201963 0.000000 -0.074707 0.288506 0.000000 -0.146106 0.384374 0.000000 -0.252911 0.476396 0.000000 -0.362377 0.541828 0.000000 -0.490609 0.569930 0.000000 -0.607018 0.521358 0.000000 -0.705866 0.402748 0.000000 -0.765314 0.190642 0.000000 -0.763668 -0.108215 0.000000 -0.695488 -0.499361 0.000000 -0.482782 -1.000824 0.000000 -0.217304 -1.419028 0.000000 0.000000 -1.561298 0.000000 0.217304 -1.419028 0.000000 0.482782 -1.000824 0.000000 0.695488 -0.499361 0.000000 0.763668 -0.108215 0.000000 0.765314 0.190642 0.000000 0.705866 0.402748 0.000000 0.607018 0.521358 0.000000 0.490609 0.569930 0.000000 0.362377 0.541828 0.000000 0.252911 0.476396 0.000000 0.146106 0.384374 0.000000 0.074707 0.288506 0.000000 0.015460 0.201963 0.000000 -0.006458 0.124352 0.000000 -0.012315 0.078224 0.000000 
-0.000000 0.030385 0.000000 0.044925 0.063177 0.000000 0.067107 0.127654 0.000000 0.069721 0.233464 0.000000 0.029451 0.344114 0.000000 -0.018891 0.462258 0.000000 -0.101895 0.570110 0.000000 -0.177280 0.644463 0.000000 -0.267397 0.676126 0.000000 -0.343680 0.618213 0.000000 -0.399392 0.480987 0.000000 -0.421172 0.230912 0.000000 -0.352702 -0.115906 0.000000 -0.234298 -0.641864 0.000000 -0.075147 -1.248483 0.000000 -0.008536 -1.610624 0.000000 -0.000000 -1.699592 0.000000 0.008536 -1.610624 0.000000 0.075147 -1.248483 0.000000 0.234298 -0.641864 0.000000 0.352702 -0.115906 0.000000 0.421172 0.230912 0.000000 0.399392 0.480987 0.000000 0.343680 0.618213 0.000000 0.267397 0.676126 0.000000 0.177280 0.644463 0.000000 0.101895 0.570110 0.000000 0.018891 0.462258 0.000000 -0.029451 0.344114 0.000000 -0.069721 0.233464 0.000000 -0.067107 0.127654 0.000000 -0.044925 0.063177 0.000000 
-0.000000 -0.034337 0.000000 0.082265 0.011117 0.000000 0.135359 0.099555 0.000000 0.162974 0.239620 0.000000 0.137291 0.377118 0.000000 0.104833 0.515720 0.000000 0.031658 0.634785 0.000000 -0.025575 0.707330 0.000000 -0.101608 0.736331 0.000000 -0.162619 0.653353 0.000000 -0.218646 0.480239 0.000000 -0.233304 0.143952 0.000000 -0.195766 -0.295089 0.000000 -0.086158 -0.776916 0.000000 0.199020 -1.226586 0.000000 0.186991 -1.494175 0.000000 -0.000000 -1.578370 0.000000 -0.186991 -1.494175 0.000000 -0.199020 -1.226586 0.000000 0.086158 -0.776916 0.000000 0.195766 -0.295089 0.000000 0.233304 0.143952 0.000000 0.218646 0.480239 0.000000 0.162619 0.653353 0.000000 0.101608 0.736331 0.000000 0.025575 0.707330 0.000000 -0.031658 0.634785 0.000000 -0.104833 0.515720 0.000000 -0.137291 0.377118 0.000000 -0.162974 0.239620 0.000000 -0.135359 0.099555 0.000000 -0.082265 0.011117 0.000000 
-0.000000 -0.134144 0.000000 0.122738 -0.072182 0.000000 0.208886 0.046944 0.000000 0.262164 0.231532 0.000000 0.247141 0.402256 0.000000 0.224276 0.567891 0.000000 0.144833 0.700518 0.000000 0.087584 0.777730 0.000000 -0.004260 0.813170 0.000000 -0.097067 0.735251 0.000000 -0.204605 0.551673 0.000000 -0.156318 0.208032 0.000000 0.355883 -0.263052 0.000000 0.860882 -1.036651 0.000000 0.970556 -1.521632 0.000000 0.478909 -1.411603 0.000000 -0.000000 -1.325610 0.000000 -0.478909 -1.411603 0.000000 -0.970556 -1.521632 0.000000 -0.860882 -1.036651 0.000000 -0.355883 -0.263052 0.000000 0.156318 0.208032 0.000000 0.204605 0.551673 0.000000 0.097067 0.735251 0.000000 0.004260 0.813170 0.000000 -0.087584 0.777730 0.000000 -0.144833 0.700518 0.000000 -0.224276 0.567891 0.000000 -0.247141 0.402256 0.000000 -0.262164 0.231532 0.000000 -0.208886 0.046944 0.000000 -0.122738 -0.072182 0.000000 
-0.000000 -0.279812 0.000000 0.159545 -0.197769 0.000000 0.275866 -0.039871 0.000000 0.353245 0.201364 0.000000 0.346921 0.415006 0.000000 0.330996 0.618028 0.000000 0.238918 0.771478 0.000000 0.174138 0.856424 0.000000 0.060385 0.920981 0.000000 -0.049115 0.853698 0.000000 0.023670 0.539491 0.000000 0.552757 -0.416536 0.000000 1.367096 -1.312288 0.000000 1.146725 -1.391590 0.000000 0.453789 -0.844613 0.000000 -0.015519 -0.523619 0.000000 0.000000 -0.620553 0.000000 0.015519 -0.523619 0.000000 -0.453789 -0.844613 0.000000 -1.146725 -1.391590 0.000000 -1.367096 -1.312288 0.000000 -0.552757 -0.416536 0.000000 -0.023670 0.539491 0.000000 0.049115 0.853698 0.000000 -0.060385 0.920981 0.000000 -0.174138 0.856424 0.000000 -0.238918 0.771478 0.000000 -0.330996 0.618028 0.000000 -0.346921 0.415006 0.000000 -0.353245 0.201364 0.000000 -0.275866 -0.039871 0.000000 -0.159545 -0.197769 0.000000 
-0.000000 -0.453233 0.000000 0.187988 -0.348048 0.000000 0.328699 -0.146756 0.000000 0.428283 0.160477 0.000000 0.431543 0.424505 0.000000 0.427874 0.675894 0.000000 0.316193 0.857376 0.000000 0.259563 0.956263 0.000000 0.144460 1.036423 0.000000 0.094824 0.771966 0.000000 0.430803 -0.050200 0.000000 0.715629 -1.135394 0.000000 0.301284 -0.857020 0.000000 -0.759188 -0.123344 0.000000 -0.921708 -0.359387 0.000000 -0.477630 -0.957814 0.000000 0.000000 -1.356648 0.000000 0.477630 -0.957814 0.000000 0.921708 -0.359387 0.000000 0.759188 -0.123344 0.000000 -0.301284 -0.857020 0.000000 -0.715629 -1.135394 0.000000 -0.430803 -0.050200 0.000000 -0.094824 0.771966 0.000000 -0.144460 1.036423 0.000000 -0.259563 0.956263 0.000000 -0.316193 0.857376 0.000000 -0.427874 0.675894 0.000000 -0.431543 0.424505 0.000000 -0.428283 0.160477 0.000000 -0.328699 -0.146756 0.000000 -0.187988 -0.348048 0.000000 
0.000000 -0.655789 0.000000 0.199279 -0.526467 0.000000 0.352069 -0.280166 0.000000 0.468532 0.098520 0.000000 0.483440 0.415415 0.000000 0.496639 0.733378 0.000000 0.362978 0.939789 0.000000 0.316765 1.028157 0.000000 0.211762 1.085720 0.000000 -0.021697 0.567355 0.000000 0.446449 -0.081315 0.000000 0.233261 -0.287018 0.000000 -0.278817 0.162529 0.000000 0.072922 -0.168598 0.000000 0.575497 -1.126171 0.000000 0.535025 -1.445327 0.000000 0.000000 -1.575812 0.000000 -0.535025 -1.445327 0.000000 -0.575497 -1.126171 0.000000 -0.072922 -0.168598 0.000000 0.278817 0.162529 0.000000 -0.233261 -0.287018 0.000000 -0.446449 -0.081315 0.000000 0.021697 0.567355 0.000000 -0.211762 1.085720 0.000000 -0.316765 1.028157 0.000000 -0.362978 0.939789 0.000000 -0.496639 0.733378 0.000000 -0.483440 0.415415 0.000000 -0.468532 0.098520 0.000000 -0.352069 -0.280166 0.000000 -0.199279 -0.526467 0.000000 
0.000000 -0.851791 0.000000 0.186007 -0.700116 0.000000 0.336836 -0.416009 0.000000 0.462196 0.029106 0.000000 0.501132 0.396398 0.000000 0.545692 0.796355 0.000000 0.390645 1.037251 0.000000 0.457622 1.107480 0.000000 0.004558 1.374885 0.000000 -0.246083 0.537278 0.000000 0.366878 -0.305157 0.000000 0.401500 -0.410128 0.000000 0.737833 -0.696681 0.000000 1.257587 -0.977658 0.000000 1.196252 -0.821490 0.000000 0.703023 -0.382317 0.000000 -0.000000 -0.286599 0.000000 -0.703023 -0.382317 0.000000 -1.196252 -0.821490 0.000000 -1.257587 -0.977658 0.000000 -0.737833 -0.696681 0.000000 -0.401500 -0.410128 0.000000 -0.366878 -0.305157 0.000000 0.246083 0.537278 0.000000 -0.004558 1.374885 0.000000 -0.457622 1.107480 0.000000 -0.390645 1.037251 0.000000 -0.545692 0.796355 0.000000 -0.501132 0.396398 0.000000 -0.462196 0.029106 0.000000 -0.336836 -0.416009 0.000000 -0.186007 -0.700116 0.000000 
0.000000 -1.027802 0.000000 0.136804 -0.863303 0.000000 0.263434 -0.556355 0.000000 0.389032 -0.065777 0.000000 0.466932 0.331919 0.000000 0.555129 0.843866 0.000000 0.405837 1.027858 0.000000 0.753287 1.414244 0.000000 -0.333258 1.789425 0.000000 0.387743 0.205034 0.000000 0.864384 -0.728897 0.000000 0.521661 -0.657973 0.000000 0.643366 -0.693558 0.000000 0.404650 -0.627016 0.000000 0.164497 -0.571608 0.000000 0.060274 -0.249075 0.000000 -0.000000 -0.169765 0.000000 -0.060274 -0.249075 0.000000 -0.164497 -0.571608 0.000000 -0.404650 -0.627016 0.000000 -0.643366 -0.693558 0.000000 -0.521661 -0.657973 0.000000 -0.864384 -0.728897 0.000000 -0.387743 0.205034 0.000000 0.333258 1.789425 0.000000 -0.753287 1.414244 0.000000 -0.405837 1.027858 0.000000 -0.555129 0.843866 0.000000 -0.466932 0.331919 0.000000 -0.389032 -0.065777 0.000000 -0.263434 -0.556355 0.000000 -0.136804 -0.863303 0.000000 
0.000000 -1.125400 0.000000 0.044564 -0.963550 0.000000 0.120014 -0.668237 0.000000 0.214677 -0.174393 0.000000 0.366940 0.230301 0.000000 0.414635 0.857450 0.000000 0.550261 0.839093 0.000000 0.393811 1.846574 0.000000 -0.395719 1.740429 0.000000 0.962279 -0.660363 0.000000 0.688522 -0.439075 0.000000 0.261908 -0.189110 0.000000 0.194378 -0.579671 0.000000 0.096860 -0.498789 0.000000 0.007066 -0.477115 0.000000 -0.028357 -0.217820 0.000000 -0.000000 -0.166050 0.000000 0.028357 -0.217820 0.000000 -0.007066 -0.477115 0.000000 -0.096860 -0.498789 0.000000 -0.194378 -0.579671 0.000000 -0.261908 -0.189110 0.000000 -0.688522 -0.439075 0.000000 -0.962279 -0.660363 0.000000 0.395719 1.740429 0.000000 -0.393811 1.846574 0.000000 -0.550261 0.839093 0.000000 -0.414635 0.857450 0.000000 -0.366940 0.230301 0.000000 -0.214677 -0.174393 0.000000 -0.120014 -0.668237 0.000000 -0.044564 -0.963550 0.000000 
0.000000 -1.116930 0.000000 -0.099316 -0.983317 0.000000 -0.117875 -0.726468 0.000000 -0.097182 -0.312702 0.000000 0.128153 0.131960 0.000000 0.155714 0.660545 0.000000 0.581981 1.048683 0.000000 -0.449494 2.360224 0.000000 0.417929 1.220957 0.000000 1.072377 -0.879207 0.000000 0.342585 -0.028526 0.000000 0.404999 -0.163828 0.000000 0.217475 -0.528510 0.000000 0.153220 -0.439705 0.000000 0.029461 -0.446391 0.000000 -0.007763 -0.242008 0.000000 -0.000000 -0.226480 0.000000 0.007763 -0.242008 0.000000 -0.029461 -0.446391 0.000000 -0.153220 -0.439705 0.000000 -0.217475 -0.528510 0.000000 -0.404999 -0.163828 0.000000 -0.342585 -0.028526 0.000000 -1.072377 -0.879207 0.000000 -0.417929 1.220957 0.000000 0.449494 2.360224 0.000000 -0.581981 1.048683 0.000000 -0.155714 0.660545 0.000000 -0.128153 0.131960 0.000000 0.097182 -0.312702 0.000000 0.117875 -0.726468 0.000000 0.099316 -0.983317 0.000000 
0.000000 -0.926769 0.000000 -0.270150 -0.845675 0.000000 -0.442244 -0.670371 0.000000 -0.530081 -0.420421 0.000000 -0.415499 -0.022596 0.000000 -0.334708 0.403623 0.000000 -0.103243 1.444301 0.000000 -0.484314 2.010626 0.000000 1.144777 0.218559 0.000000 0.789736 -0.585018 0.000000 0.380907 0.228302 0.000000 0.604193 -0.064000 0.000000 0.335458 -0.327891 0.000000 0.291793 -0.310775 0.000000 0.109345 -0.316132 0.000000 0.048975 -0.188359 0.000000 -0.000000 -0.181576 0.000000 -0.048975 -0.188359 0.000000 -0.109345 -0.316132 0.000000 -0.291793 -0.310775 0.000000 -0.335458 -0.327891 0.000000 -0.604193 -0.064000 0.000000 -0.380907 0.228302 0.000000 -0.789736 -0.585018 0.000000 -1.144777 0.218559 0.000000 0.484314 2.010626 0.000000 0.103243 1.444301 0.000000 0.334708 0.403623 0.000000 0.415499 -0.022596 0.000000 0.530081 -0.420421 0.000000 0.442244 -0.670371 0.000000 0.270150 -0.845675 0.000000 
-0.000000 -0.576630 0.000000 -0.463384 -0.541073 0.000000 -0.845675 -0.466537 0.000000 -1.133755 -0.339448 0.000000 -1.266096 -0.063412 0.000000 -1.156351 0.348289 0.000000 -0.862473 1.198289 0.000000 0.287950 1.112203 0.000000 1.148153 -0.053094 0.000000 0.506509 -0.115337 0.000000 0.563134 0.157017 0.000000 0.734811 -0.118380 0.000000 0.499134 -0.216110 0.000000 0.406920 -0.213591 0.000000 0.188359 -0.203572 0.000000 0.090788 -0.132664 0.000000 0.000000 -0.128531 0.000000 -0.090788 -0.132664 0.000000 -0.188359 -0.203572 0.000000 -0.406920 -0.213591 0.000000 -0.499134 -0.216110 0.000000 -0.734811 -0.118380 0.000000 -0.563134 0.157017 0.000000 -0.506509 -0.115337 0.000000 -1.148153 -0.053094 0.000000 -0.287950 1.112203 0.000000 0.862473 1.198289 0.000000 1.156351 0.348289 0.000000 1.266096 -0.063412 0.000000 1.133755 -0.339448 0.000000 0.845675 -0.466537 0.000000 0.463384 -0.541073 0.000000 
-0.000000 0.000000 0.000000 -0.576630 0.000000 0.000000 -1.082147 0.000000 0.000000 -1.509704 -0.000000 0.000000 -1.761042 -0.000000 0.000000 -1.636529 -0.000000 0.000000 -1.064463 -0.000000 0.000000 0.760049 -0.000000 0.000000 1.159943 0.000000 0.000000 0.653862 0.000000 0.000000 0.929269 -0.000000 0.000000 0.967896 -0.000000 0.000000 0.692510 -0.000000 0.000000 0.535675 -0.000000 0.000000 0.265327 -0.000000 0.000000 0.128531 -0.000000 0.000000 -0.000000 -0.000000 0.000000 -0.128531 -0.000000 0.000000 -0.265327 -0.000000 0.000000 -0.535675 -0.000000 0.000000 -0.692510 -0.000000 0.000000 -0.967896 -0.000000 0.000000 -0.929269 -0.000000 0.000000 -0.653862 0.000000 0.000000 -1.159943 0.000000 0.000000 -0.760049 0.000000 0.000000 1.064463 0.000000 0.000000 1.636529 -0.000000 0.000000 1.761042 -0.000000 0.000000 1.509704 -0.000000 0.000000 1.082147 -0.000000 0.000000 0.576630 0.000000 0.000000 
-0.000000 0.576630 0.000000 -0.463384 0.541073 0.000000 -0.845675 0.466537 0.000000 -1.133755 0.339448 0.000000 -1.266096 0.063412 0.000000 -1.156351 -0.348289 0.000000 -0.862473 -1.198289 0.000000 0.287950 -1.112203 0.000000 1.148153 0.053094 0.000000 0.506509 0.115337 0.000000 0.563134 -0.157017 0.000000 0.734811 0.118380 0.000000 0.499134 0.216110 0.000000 0.406920 0.213591 0.000000 0.188359 0.203572 0.000000 0.090788 0.132664 0.000000 0.000000 0.128531 0.000000 -0.090788 0.132664 0.000000 -0.188359 0.203572 0.000000 -0.406920 0.213591 0.000000 -0.499134 0.216110 0.000000 -0.734811 0.118380 0.000000 -0.563134 -0.157017 0.000000 -0.506509 0.115337 0.000000 -1.148153 0.053094 0.000000 -0.287950 -1.112203 0.000000 0.862473 -1.198289 0.000000 1.156351 -0.348289 0.000000 1.266096 0.063412 0.000000 1.133755 0.339448 0.000000 0.845675 0.466537 0.000000 0.463384 0.541073 0.000000 
-0.000000 0.926769 0.000000 -0.270150 0.845675 0.000000 -0.442244 0.670371 0.000000 -0.530081 0.420421 0.000000 -0.415499 0.022596 0.000000 -0.334708 -0.403623 0.000000 -0.103243 -1.444301 0.000000 -0.484314 -2.010626 0.000000 1.144777 -0.218559 0.000000 0.789736 0.585018 0.000000 0.380907 -0.228302 0.000000 0.604193 0.064000 0.000000 0.335458 0.327891 0.000000 0.291793 0.310775 0.000000 0.109345 0.316132 0.000000 0.048975 0.188359 0.000000 0.000000 0.181576 0.000000 -0.048975 0.188359 0.000000 -0.109345 0.316132 0.000000 -0.291793 0.310775 0.000000 -0.335458 0.327891 0.000000 -0.604193 0.064000 0.000000 -0.380907 -0.228302 0.000000 -0.789736 0.585018 0.000000 -1.144777 -0.218559 0.000000 0.484314 -2.010626 0.000000 0.103243 -1.444301 0.000000 0.334708 -0.403623 0.000000 0.415499 0.022596 0.000000 0.530081 0.420421 0.000000 0.442244 0.670371 0.000000 0.270150 0.845675 0.000000 
-0.000000 1.116930 0.000000 -0.099316 0.983317 0.000000 -0.117875 0.726468 0.000000 -0.097182 0.312702 0.000000 0.128153 -0.131960 0.000000 0.155714 -0.660545 0.000000 0.581981 -1.048683 0.000000 -0.449494 -2.360224 0.000000 0.417929 -1.220957 0.000000 1.072377 0.879207 0.000000 0.342585 0.028526 0.000000 0.404999 0.163828 0.000000 0.217475 0.528510 0.000000 0.153220 0.439705 0.000000 0.029461 0.446391 0.000000 -0.007763 0.242008 0.000000 0.000000 0.226480 0.000000 0.007763 0.242008 0.000000 -0.029461 0.446391 0.000000 -0.153220 0.439705 0.000000 -0.217475 0.528510 0.000000 -0.404999 0.163828 0.000000 -0.342585 0.028526 0.000000 -1.072377 0.879207 0.000000 -0.417929 -1.220957 0.000000 0.449494 -2.360224 0.000000 -0.581981 -1.048683 0.000000 -0.155714 -0.660545 0.000000 -0.128153 -0.131960 0.000000 0.097182 0.312702 0.000000 0.117875 0.726468 0.000000 0.099316 0.983317 0.000000 
-0.000000 1.125400 0.000000 0.044564 0.963550 0.000000 0.120014 0.668237 0.000000 0.214677 0.174393 0.000000 0.366940 -0.230301 0.000000 0.414635 -0.857450 0.000000 0.550261 -0.839093 0.000000 0.393811 -1.846574 0.000000 -0.395719 -1.740429 0.000000 0.962279 0.660363 0.000000 0.688522 0.439075 0.000000 0.261908 0.189110 0.000000 0.194378 0.579671 0.000000 0.096860 0.498789 0.000000 0.007066 0.477115 0.000000 -0.028357 0.217820 0.000000 0.000000 0.166050 0.000000 0.028357 0.217820 0.000000 -0.007066 0.477115 0.000000 -0.096860 0.498789 0.000000 -0.194378 0.579671 0.000000 -0.261908 0.189110 0.000000 -0.688522 0.439075 0.000000 -0.962279 0.660363 0.000000 0.395719 -1.740429 0.000000 -0.393811 -1.846574 0.000000 -0.550261 -0.839093 0.000000 -0.414635 -0.857450 0.000000 -0.366940 -0.230301 0.000000 -0.214677 0.174393 0.000000 -0.120014 0.668237 0.000000 -0.044564 0.963550 0.000000 
-0.000000 1.027802 0.000000 0.136804 0.863303 0.000000 0.263434 0.556355 0.000000 0.389032 0.065777 0.000000 0.466932 -0.331919 0.000000 0.555129 -0.843866 0.000000 0.405837 -1.027858 0.000000 0.753287 -1.414244 0.000000 -0.333258 -1.789425 0.000000 0.387743 -0.205034 0.000000 0.864384 0.728897 0.000000 0.521661 0.657973 0.000000 0.643366 0.693558 0.000000 0.404650 0.627016 0.000000 0.164497 0.571608 0.000000 0.060274 0.249075 0.000000 -0.000000 0.169765 0.000000 -0.060274 0.249075 0.000000 -0.164497 0.571608 0.000000 -0.404650 0.627016 0.000000 -0.643366 0.693558 0.000000 -0.521661 0.657973 0.000000 -0.864384 0.728897 0.000000 -0.387743 -0.205034 0.000000 0.333258 -1.789425 0.000000 -0.753287 -1.414244 0.000000 -0.405837 -1.027858 0.000000 -0.555129 -0.843866 0.000000 -0.466932 -0.331919 0.000000 -0.389032 0.065777 0.000000 -0.263434 0.556355 0.000000 -0.136804 0.863303 0.000000 
-0.000000 0.851791 0.000000 0.186007 0.700116 0.000000 0.336836 0.416009 0.000000 0.462196 -0.029106 0.000000 0.501132 -0.396398 0.000000 0.545692 -0.796355 0.000000 0.390645 -1.037251 0.000000 0.457622 -1.107480 0.000000 0.004558 -1.374885 0.000000 -0.246083 -0.537278 0.000000 0.366878 0.305157 0.000000 0.401500 0.410128 0.000000 0.737833 0.696681 0.000000 1.257587 0.977658 0.000000 1.196252 0.821490 0.000000 0.703023 0.382317 0.000000 -0.000000 0.286599 0.000000 -0.703023 0.382317 0.000000 -1.196252 0.821490 0.000000 -1.257587 0.977658 0.000000 -0.737833 0.696681 0.000000 -0.401500 0.410128 0.000000 -0.366878 0.305157 0.000000 0.246083 -0.537278 0.000000 -0.004558 -1.374885 0.000000 -0.457622 -1.107480 0.000000 -0.390645 -1.037251 0.000000 -0.545692 -0.796355 0.000000 -0.501132 -0.396398 0.000000 -0.462196 -0.029106 0.000000 -0.336836 0.416009 0.000000 -0.186007 0.700116 0.000000 
0.000000 0.655789 0.000000 0.199279 0.526467 0.000000 0.352069 0.280166 0.000000 0.468532 -0.098520 0.000000 0.483440 -0.415415 0.000000 0.496639 -0.733378 0.000000 0.362978 -0.939789 0.000000 0.316765 -1.028157 0.000000 0.211762 -1.085720 0.000000 -0.021697 -0.567355 0.000000 0.446449 0.081315 0.000000 0.233261 0.287018 0.000000 -0.278817 -0.162529 0.000000 0.072922 0.168598 0.000000 0.575497 1.126171 0.000000 0.535025 1.445327 0.000000 -0.000000 1.575812 0.000000 -0.535025 1.445327 0.000000 -0.575497 1.126171 0.000000 -0.072922 0.168598 0.000000 0.278817 -0.162529 0.000000 -0.233261 0.287018 0.000000 -0.446449 0.081315 0.000000 0.021697 -0.567355 0.000000 -0.211762 -1.085720 0.000000 -0.316765 -1.028157 0.000000 -0.362978 -0.939789 0.000000 -0.496639 -0.733378 0.000000 -0.483440 -0.415415 0.000000 -0.468532 -0.098520 0.000000 -0.352069 0.280166 0.000000 -0.199279 0.526467 0.000000 
0.000000 0.453233 0.000000 0.187988 0.348048 0.000000 0.328699 0.146756 0.000000 0.428283 -0.160477 0.000000 0.431543 -0.424505 0.000000 0.427874 -0.675894 0.000000 0.316193 -0.857376 0.000000 0.259563 -0.956263 0.000000 0.144460 -1.036423 0.000000 0.094824 -0.771966 0.000000 0.430803 0.050200 0.000000 0.715629 1.135394 0.000000 0.301284 0.857020 0.000000 -0.759188 0.123344 0.000000 -0.921708 0.359387 0.000000 -0.477630 0.957814 0.000000 -0.000000 1.356648 0.000000 0.477630 0.957814 0.000000 0.921708 0.359387 0.000000 0.759188 0.123344 0.000000 -0.301284 0.857020 0.000000 -0.715629 1.135394 0.000000 -0.430803 0.050200 0.000000 -0.094824 -0.771966 0.000000 -0.144460 -1.036423 0.000000 -0.259563 -0.956263 0.000000 -0.316193 -0.857376 0.000000 -0.427874 -0.675894 0.000000 -0.431543 -0.424505 0.000000 -0.428283 -0.160477 0.000000 -0.328699 0.146756 0.000000 -0.187988 0.348048 0.000000 
0.000000 0.279812 0.000000 0.159545 0.197769 0.000000 0.275866 0.039871 0.000000 0.353245 -0.201364 0.000000 0.346921 -0.415006 0.000000 0.330996 -0.618028 0.000000 0.238918 -0.771478 0.000000 0.174138 -0.856424 0.000000 0.060385 -0.920981 0.000000 -0.049115 -0.853698 0.000000 0.023670 -0.539491 0.000000 0.552757 0.416536 0.000000 1.367096 1.312288 0.000000 1.146725 1.391590 0.000000 0.453789 0.844613 0.000000 -0.015519 0.523619 0.000000 -0.000000 0.620553 0.000000 0.015519 0.523619 0.000000 -0.453789 0.844613 0.000000 -1.146725 1.391590 0.000000 -1.367096 1.312288 0.000000 -0.552757 0.416536 0.000000 -0.023670 -0.539491 0.000000 0.049115 -0.853698 0.000000 -0.060385 -0.920981 0.000000 -0.174138 -0.856424 0.000000 -0.238918 -0.771478 0.000000 -0.330996 -0.618028 0.000000 -0.346921 -0.415006 0.000000 -0.353245 -0.201364 0.000000 -0.275866 0.039871 0.000000 -0.159545 0.197769 0.000000 
0.000000 0.134144 0.000000 0.122738 0.072182 0.000000 0.208886 -0.046944 0.000000 0.262164 -0.231532 0.000000 0.247141 -0.402256 0.000000 0.224276 -0.567891 0.000000 0.144833 -0.700518 0.000000 0.087584 -0.777730 0.000000 -0.004260 -0.813170 0.000000 -0.097067 -0.735251 0.000000 -0.204605 -0.551673 0.000000 -0.156318 -0.208032 0.000000 0.355883 0.263052 0.000000 0.860882 1.036651 0.000000 0.970556 1.521632 0.000000 0.478909 1.411603 0.000000 0.000000 1.325610 0.000000 -0.478909 1.411603 0.000000 -0.970556 1.521632 0.000000 -0.860882 1.036651 0.000000 -0.355883 0.263052 0.000000 0.156318 -0.208032 0.000000 0.204605 -0.551673 0.000000 0.097067 -0.735251 0.000000 0.004260 -0.813170 0.000000 -0.087584 -0.777730 0.000000 -0.144833 -0.700518 0.000000 -0.224276 -0.567891 0.000000 -0.247141 -0.402256 0.000000 -0.262164 -0.231532 0.000000 -0.208886 -0.046944 0.000000 -0.122738 0.072182 0.000000 
0.000000 0.034337 0.000000 0.082265 -0.011117 0.000000 0.135359 -0.099555 0.000000 0.162974 -0.239620 0.000000 0.137291 -0.377118 0.000000 0.104833 -0.515720 0.000000 0.031658 -0.634785 0.000000 -0.025575 -0.707330 0.000000 -0.101608 -0.736331 0.000000 -0.162619 -0.653353 0.000000 -0.218646 -0.480239 0.000000 -0.233304 -0.143952 0.000000 -0.195766 0.295089 0.000000 -0.086158 0.776916 0.000000 0.199020 1.226586 0.000000 0.186991 1.494175 0.000000 0.000000 1.578370 0.000000 -0.186991 1.494175 0.000000 -0.199020 1.226586 0.000000 0.086158 0.776916 0.000000 0.195766 0.295089 0.000000 0.233304 -0.143952 0.000000 0.218646 -0.480239 0.000000 0.162619 -0.653353 0.000000 0.101608 -0.736331 0.000000 0.025575 -0.707330 0.000000 -0.031658 -0.634785 0.000000 -0.104833 -0.515720 0.000000 -0.137291 -0.377118 0.000000 -0.162974 -0.239620 0.000000 -0.135359 -0.099555 0.000000 -0.082265 -0.011117 0.000000 
0.000000 -0.030385 0.000000 0.044925 -0.063177 0.000000 0.067107 -0.127654 0.000000 0.069721 -0.233464 0.000000 0.029451 -0.344114 0.000000 -0.018891 -0.462258 0.000000 -0.101895 -0.570110 0.000000 -0.177280 -0.644463 0.000000 -0.267397 -0.676126 0.000000 -0.343680 -0.618213 0.000000 -0.399392 -0.480987 0.000000 -0.421172 -0.230912 0.000000 -0.352702 0.115906 0.000000 -0.234298 0.641864 0.000000 -0.075147 1.248483 0.000000 -0.008536 1.610624 0.000000 0.000000 1.699592 0.000000 0.008536 1.610624 0.000000 0.075147 1.248483 0.000000 0.234298 0.641864 0.000000 0.352702 0.115906 0.000000 0.421172 -0.230912 0.000000 0.399392 -0.480987 0.000000 0.343680 -0.618213 0.000000 0.267397 -0.676126 0.000000 0.177280 -0.644463 0.000000 0.101895 -0.570110 0.000000 0.018891 -0.462258 0.000000 -0.029451 -0.344114 0.000000 -0.069721 -0.233464 0.000000 -0.067107 -0.127654 0.000000 -0.044925 -0.063177 0.000000 
0.000000 -0.055513 0.000000 0.012315 -0.078224 0.000000 0.006458 -0.124352 0.000000 -0.015460 -0.201963 0.000000 -0.074707 -0.288506 0.000000 -0.146106 -0.384374 0.000000 -0.252911 -0.476396 0.000000 -0.362377 -0.541828 0.000000 -0.490609 -0.569930 0.000000 -0.607018 -0.521358 0.000000 -0.705866 -0.402748 0.000000 -0.765314 -0.190642 0.000000 -0.763668 0.108215 0.000000 -0.695488 0.499361 0.000000 -0.482782 1.000824 0.000000 -0.217304 1.419028 0.000000 0.000000 1.561298 0.000000 0.217304 1.419028 0.000000 0.482782 1.000824 0.000000 0.695488 0.499361 0.000000 0.763668 0.108215 0.000000 0.765314 -0.190642 0.000000 0.705866 -0.402748 0.000000 0.607018 -0.521358 0.000000 0.490609 -0.569930 0.000000 0.362377 -0.541828 0.000000 0.252911 -0.476396 0.000000 0.146106 -0.384374 0.000000 0.074707 -0.288506 0.000000 0.015460 -0.201963 0.000000 -0.006458 -0.124352 0.000000 -0.012315 -0.078224 0.000000 
0.000000 -0.055016 0.000000 -0.011618 -0.069635 0.000000 -0.038810 -0.099879 0.000000 -0.081335 -0.152299 0.000000 -0.159552 -0.213468 0.000000 -0.256569 -0.284054 0.000000 -0.393302 -0.353840 0.000000 -0.544923 -0.406766 0.000000 -0.719120 -0.431485 0.000000 -0.886685 -0.402956 0.000000 -1.028819 -0.322691 0.000000 -1.121976 -0.173110 0.000000 -1.130199 0.046080 0.000000 -1.039658 0.360978 0.000000 -0.815163 0.770299 0.000000 -0.435537 1.127841 0.000000 -0.000000 1.264983 0.000000 0.435537 1.127841 0.000000 0.815163 0.770299 0.000000 1.039658 0.360978 0.000000 1.130199 0.046080 0.000000 1.121976 -0.173110 0.000000 1.028819 -0.322691 0.000000 0.886685 -0.402956 0.000000 0.719120 -0.431485 0.000000 0.544923 -0.406766 0.000000 0.393302 -0.353840 0.000000 0.256569 -0.284054 0.000000 0.159552 -0.213468 0.000000 0.081335 -0.152299 0.000000 0.038810 -0.099879 0.000000 0.011618 -0.069635 0.000000 
0.000000 -0.032276 0.000000 -0.027508 -0.039415 0.000000 -0.069635 -0.054635 0.000000 -0.127387 -0.081221 0.000000 -0.221934 -0.113271 0.000000 -0.340855 -0.150624 0.000000 -0.505988 -0.188042 0.000000 -0.694695 -0.216010 0.000000 -0.912754 -0.228168 0.000000 -1.126179 -0.211658 0.000000 -1.315710 -0.167457 0.000000 -1.448871 -0.089262 0.000000 -1.488820 0.025897 0.000000 -1.402791 0.184324 0.000000 -1.127841 0.396703 0.000000 -0.632492 0.603865 0.000000 0.000000 0.690224 0.000000 0.632492 0.603865 0.000000 1.127841 0.396703 0.000000 1.402791 0.184324 0.000000 1.488820 0.025897 0.000000 1.448871 -0.089262 0.000000 1.315710 -0.167457 0.000000 1.126179 -0.211658 0.000000 0.912754 -0.228168 0.000000 0.694695 -0.216010 0.000000 0.505988 -0.188042 0.000000 0.340855 -0.150624 0.000000 0.221934 -0.113271 0.000000 0.127387 -0.081221 0.000000 0.069635 -0.054635 0.000000 0.027508 -0.039415 0.000000 
