# vtk DataFile Version 2.0
Comment goes here
ASCII

DATASET STRUCTURED_POINTS
FIELD FieldData 1
TIME 1 1 double
0.38000000
DIMENSIONS    32   32   1

ORIGIN    0.000   0.000   0.000
SPACING   0.03125 0.03125   1.000

POINT_DATA   1024
VECTORS u double

0.000000 -0.000000 0.000000 0.117055 -0.000000 0.000000 0.230534 -0.000000 0.000000 0.335847 -0.000000 0.000000 0.429482 0.000000 0.000000 0.505618 -0.000000 0.000000 0.556245 0.000000 0.000000 0.575650 -0.000000 0.000000 0.543114 0.000000 0.000000 0.460420 0.000000 0.000000 0.291882 0.000000 0.000000 0.070877 -0.000000 0.000000 -0.209674 -0.000000 0.000000 -0.441824 -0.000000 0.000000 -0.561034 -0.000000 0.000000 -0.451549 -0.000000 0.000000 -0.000000 -0.000000 0.000000 0.451549 0.000000 0.000000 0.561034 0.000000 0.000000 0.441824 0.000000 0.000000 0.209674 0.000000 0.000000 -0.070877 0.000000 0.000000 -0.291882 -0.000000 0.000000 -0.460420 -0.000000 0.000000 -0.543114 -0.000000 0.000000 -0.575650 0.000000 0.000000 -0.556245 -0.000000 0.000000 -0.505618 0.000000 0.000000 -0.429482 -0.000000 0.000000 -0.335847 0.000000 0.000000 -0.230534 -0.000000 0.000000 -0.117055 -0.000000 0.000000 
0.000000 -0.117055 0.000000 0.119346 -0.115267 0.000000 0.235239 -0.109396 0.000000 0.342876 -0.099474 0.000000 0.439648 -0.084886 0.000000 0.518783 -0.063382 0.000000 0.574693 -0.035016 0.000000 0.599051 0.006566 0.000000 0.575652 0.057615 0.000000 0.502744 0.125616 0.000000 0.346858 0.194772 0.000000 0.138926 0.250778 0.000000 -0.141153 0.256350 0.000000 -0.371107 0.175680 0.000000 -0.519530 0.004863 0.000000 -0.448737 -0.280517 0.000000 -0.000000 -0.451549 0.000000 0.448737 -0.280517 0.000000 0.519530 0.004863 0.000000 0.371107 0.175680 0.000000 0.141153 0.256350 0.000000 -0.138926 0.250778 0.000000 -0.346858 0.194772 0.000000 -0.502744 0.125616 0.000000 -0.575652 0.057615 0.000000 -0.599051 0.006566 0.000000 -0.574693 -0.035016 0.000000 -0.518783 -0.063382 0.000000 -0.439648 -0.084886 0.000000 -0.342876 -0.099474 0.000000 -0.235239 -0.109396 0.000000 -0.119346 -0.115267 0.000000 
0.000000 -0.238693 0.000000 0.124454 -0.235239 0.000000 0.245669 -0.223530 0.000000 0.359132 -0.204409 0.000000 0.463480 -0.175907 0.000000 0.552526 -0.135045 0.000000 0.623123 -0.080268 0.000000 0.667317 -0.000960 0.000000 0.672568 0.096307 0.000000 0.638631 0.228794 0.000000 0.531731 0.363818 0.000000 0.373855 0.488011 0.000000 0.125266 0.510032 0.000000 -0.117275 0.378377 0.000000 -0.352769 0.077630 0.000000 -0.383064 -0.519530 0.000000 -0.000000 -0.897474 0.000000 0.383064 -0.519530 0.000000 0.352769 0.077630 0.000000 0.117275 0.378377 0.000000 -0.125266 0.510032 0.000000 -0.373855 0.488011 0.000000 -0.531731 0.363818 0.000000 -0.638631 0.228794 0.000000 -0.672568 0.096307 0.000000 -0.667317 -0.000960 0.000000 -0.623123 -0.080268 0.000000 -0.552526 -0.135045 0.000000 -0.463480 -0.175907 0.000000 -0.359132 -0.204409 0.000000 -0.245669 -0.223530 0.000000 -0.124454 -0.235239 0.000000 
0.000000 -0.365962 0.000000 0.133711 -0.360936 0.000000 0.264194 -0.344075 0.000000 0.387111 -0.317285 0.000000 0.503461 -0.278279 0.000000 0.606549 -0.223024 0.000000 0.699563 -0.149807 0.000000 0.768311 -0.042879 0.000000 0.813766 0.086301 0.000000 0.821693 0.266453 0.000000 0.773762 0.459547 0.000000 0.664874 0.657243 0.000000 0.444261 0.747481 0.000000 0.221604 0.653714 0.000000 -0.185014 0.270652 0.000000 -0.261040 -0.633285 0.000000 -0.000000 -1.217678 0.000000 0.261040 -0.633285 0.000000 0.185014 0.270652 0.000000 -0.221604 0.653714 0.000000 -0.444261 0.747481 0.000000 -0.664874 0.657243 0.000000 -0.773762 0.459547 0.000000 -0.821693 0.266453 0.000000 -0.813766 0.086301 0.000000 -0.768311 -0.042879 0.000000 -0.699563 -0.149807 0.000000 -0.606549 -0.223024 0.000000 -0.503461 -0.278279 0.000000 -0.387111 -0.317285 0.000000 -0.264194 -0.344075 0.000000 -0.133711 -0.360936 0.000000 
0.000000 -0.506115 0.000000 0.144392 -0.499433 0.000000 0.285040 -0.476930 0.000000 0.417667 -0.443676 0.000000 0.546419 -0.395345 0.000000 0.665424 -0.331146 0.000000 0.783693 -0.242030 0.000000 0.884064 -0.115163 0.000000 0.976082 0.042926 0.000000 1.041480 0.268798 0.000000 1.064627 0.520637 0.000000 1.046718 0.817512 0.000000 0.939606 0.953302 0.000000 0.622209 1.007653 0.000000 0.239634 0.560274 0.000000 0.293447 -0.704545 0.000000 -0.000000 -1.419554 0.000000 -0.293447 -0.704545 0.000000 -0.239634 0.560274 0.000000 -0.622209 1.007653 0.000000 -0.939606 0.953302 0.000000 -1.046718 0.817512 0.000000 -1.064627 0.520637 0.000000 -1.041480 0.268798 0.000000 -0.976082 0.042926 0.000000 -0.884064 -0.115163 0.000000 -0.783693 -0.242030 0.000000 -0.665424 -0.331146 0.000000 -0.546419 -0.395345 0.000000 -0.417667 -0.443676 0.000000 -0.285040 -0.476930 0.000000 -0.144392 -0.499433 0.000000 
0.000000 -0.654746 0.000000 0.158363 -0.645976 0.000000 0.310781 -0.617350 0.000000 0.454093 -0.578664 0.000000 0.594742 -0.526035 0.000000 0.730824 -0.460299 0.000000 0.878354 -0.368447 0.000000 1.012895 -0.235267 0.000000 1.174663 -0.071115 0.000000 1.284555 0.177908 0.000000 1.402958 0.454309 0.000000 1.343146 0.782264 0.000000 1.056738 1.171990 0.000000 1.049489 1.353686 0.000000 1.453723 0.599414 0.000000 1.344186 -0.393651 0.000000 -0.000000 -0.630785 0.000000 -1.344186 -0.393651 0.000000 -1.453723 0.599414 0.000000 -1.049489 1.353686 0.000000 -1.056738 1.171990 0.000000 -1.343146 0.782264 0.000000 -1.402958 0.454309 0.000000 -1.284555 0.177908 0.000000 -1.174663 -0.071115 0.000000 -1.012895 -0.235267 0.000000 -0.878354 -0.368447 0.000000 -0.730824 -0.460299 0.000000 -0.594742 -0.526035 0.000000 -0.454093 -0.578664 0.000000 -0.310781 -0.617350 0.000000 -0.158363 -0.645976 0.000000 
0.000000 -0.822841 0.000000 0.171696 -0.810214 0.000000 0.333574 -0.772660 0.000000 0.481844 -0.727637 0.000000 0.628580 -0.672076 0.000000 0.775334 -0.614758 0.000000 0.951298 -0.524101 0.000000 1.127371 -0.411472 0.000000 1.375241 -0.228734 0.000000 1.519742 0.040503 0.000000 1.538220 0.462045 0.000000 1.537108 1.163732 0.000000 1.824139 1.246959 0.000000 2.385567 0.610667 0.000000 2.435016 0.265578 0.000000 1.358851 0.749179 0.000000 -0.000000 1.268818 0.000000 -1.358851 0.749179 0.000000 -2.435016 0.265578 0.000000 -2.385567 0.610667 0.000000 -1.824139 1.246959 0.000000 -1.537108 1.163732 0.000000 -1.538220 0.462045 0.000000 -1.519742 0.040503 0.000000 -1.375241 -0.228734 0.000000 -1.127371 -0.411472 0.000000 -0.951298 -0.524101 0.000000 -0.775334 -0.614758 0.000000 -0.628580 -0.672076 0.000000 -0.481844 -0.727637 0.000000 -0.333574 -0.772660 0.000000 -0.171696 -0.810214 0.000000 
0.000000 -0.998138 0.000000 0.186180 -0.979549 0.000000 0.355000 -0.927497 0.000000 0.504949 -0.873670 0.000000 0.648636 -0.819526 0.000000 0.805972 -0.783018 0.000000 1.013640 -0.720484 0.000000 1.276333 -0.659210 0.000000 1.600562 -0.463486 0.000000 1.675369 0.014928 0.000000 1.727495 0.436942 0.000000 1.948006 0.496345 0.000000 2.258580 0.323531 0.000000 1.787842 0.742809 0.000000 1.088934 1.626131 0.000000 0.179193 2.041365 0.000000 -0.000000 2.086916 0.000000 -0.179193 2.041365 0.000000 -1.088934 1.626131 0.000000 -1.787842 0.742809 0.000000 -2.258580 0.323531 0.000000 -1.948006 0.496345 0.000000 -1.727495 0.436942 0.000000 -1.675369 0.014928 0.000000 -1.600562 -0.463486 0.000000 -1.276333 -0.659210 0.000000 -1.013640 -0.720484 0.000000 -0.805972 -0.783018 0.000000 -0.648636 -0.819526 0.000000 -0.504949 -0.873670 0.000000 -0.355000 -0.927497 0.000000 -0.186180 -0.979549 0.000000 
0.000000 -1.195200 0.000000 0.193839 -1.165213 0.000000 0.361123 -1.091429 0.000000 0.499034 -1.021273 0.000000 0.627033 -0.973099 0.000000 0.781624 -0.979762 0.000000 1.035937 -0.994462 0.000000 1.390472 -0.998395 0.000000 1.560717 -0.627771 0.000000 1.351104 -0.086430 0.000000 1.267587 0.189409 0.000000 0.935607 0.632647 0.000000 0.297668 1.407123 0.000000 -0.517565 1.780313 0.000000 -0.408484 1.874226 0.000000 -0.210198 1.838113 0.000000 0.000000 1.627205 0.000000 0.210198 1.838113 0.000000 0.408484 1.874226 0.000000 0.517565 1.780313 0.000000 -0.297668 1.407123 0.000000 -0.935607 0.632647 0.000000 -1.267587 0.189409 0.000000 -1.351104 -0.086430 0.000000 -1.560717 -0.627771 0.000000 -1.390472 -0.998395 0.000000 -1.035937 -0.994462 0.000000 -0.781624 -0.979762 0.000000 -0.627033 -0.973099 0.000000 -0.499034 -1.021273 0.000000 -0.361123 -1.091429 0.000000 -0.193839 -1.165213 0.000000 
0.000000 -1.385815 0.000000 0.191372 -1.340673 0.000000 0.344571 -1.232693 0.000000 0.460104 -1.139580 0.000000 0.552216 -1.102116 0.000000 0.693329 -1.191921 0.000000 0.974072 -1.329332 0.000000 1.142345 -1.183991 0.000000 0.781564 -0.424117 0.000000 0.324213 0.308059 0.000000 -0.028680 0.852438 0.000000 -0.629156 1.466265 0.000000 -0.750406 1.776704 0.000000 -0.299707 1.448961 0.000000 -0.014934 1.318764 0.000000 0.187532 1.632881 0.000000 0.000000 1.666521 0.000000 -0.187532 1.632881 0.000000 0.014934 1.318764 0.000000 0.299707 1.448961 0.000000 0.750406 1.776704 0.000000 0.629156 1.466265 0.000000 0.028680 0.852438 0.000000 -0.324213 0.308059 0.000000 -0.781564 -0.424117 0.000000 -1.142345 -1.183991 0.000000 -0.974072 -1.329332 0.000000 -0.693329 -1.191921 0.000000 -0.552216 -1.102116 0.000000 -0.460104 -1.139580 0.000000 -0.344571 -1.232693 0.000000 -0.191372 -1.340673 0.000000 
-0.000000 -1.577943 0.000000 0.164182 -1.509784 0.000000 0.277469 -1.360161 0.000000 0.345327 -1.228918 0.000000 0.369540 -1.206324 0.000000 0.441416 -1.401618 0.000000 0.619513 -1.443477 0.000000 0.023330 -0.805886 0.000000 -0.626272 0.190361 0.000000 -0.835910 0.723815 0.000000 -1.127367 1.142779 0.000000 -1.135821 1.354372 0.000000 -0.665464 1.077674 0.000000 -0.085673 1.044842 0.000000 -0.093584 1.386987 0.000000 0.028014 1.823179 0.000000 -0.000000 2.002269 0.000000 -0.028014 1.823179 0.000000 0.093584 1.386987 0.000000 0.085673 1.044842 0.000000 0.665464 1.077674 0.000000 1.135821 1.354372 0.000000 1.127367 1.142779 0.000000 0.835910 0.723815 0.000000 0.626272 0.190361 0.000000 -0.023330 -0.805886 0.000000 -0.619513 -1.443477 0.000000 -0.441416 -1.401618 0.000000 -0.369540 -1.206324 0.000000 -0.345327 -1.228918 0.000000 -0.277469 -1.360161 0.000000 -0.164182 -1.509784 0.000000 
-0.000000 -1.714180 0.000000 0.103985 -1.618142 0.000000 0.144966 -1.413837 0.000000 0.144503 -1.231651 0.000000 0.050985 -1.198205 0.000000 0.051698 -1.441894 0.000000 -0.214498 -0.911246 0.000000 -1.206138 0.061794 0.000000 -1.255878 0.435122 0.000000 -1.237375 0.809153 0.000000 -1.770597 1.152349 0.000000 -1.531905 1.004362 0.000000 -0.990304 0.726556 0.000000 -0.762998 0.877081 0.000000 -0.561129 1.205077 0.000000 -0.283266 1.539297 0.000000 0.000000 1.722549 0.000000 0.283266 1.539297 0.000000 0.561129 1.205077 0.000000 0.762998 0.877081 0.000000 0.990304 0.726556 0.000000 1.531905 1.004362 0.000000 1.770597 1.152349 0.000000 1.237375 0.809153 0.000000 1.255878 0.435122 0.000000 1.206138 0.061794 0.000000 0.214498 -0.911246 0.000000 -0.051698 -1.441894 0.000000 -0.050985 -1.198205 0.000000 -0.144503 -1.231651 0.000000 -0.144966 -1.413837 0.000000 -0.103985 -1.618142 0.000000 
0.000000 -1.785913 0.000000 -0.004942 -1.654750 0.000000 -0.083393 -1.400680 0.000000 -0.172355 -1.134938 0.000000 -0.432008 -1.113519 0.000000 -0.502790 -1.136135 0.000000 -1.349384 -0.185641 0.000000 -1.691751 0.235494 0.000000 -1.266568 0.221598 0.000000 -1.689996 1.238534 0.000000 -2.067212 1.437309 0.000000 -1.681155 0.574079 0.000000 -1.191486 0.308767 0.000000 -1.042888 0.615666 0.000000 -0.701381 0.907255 0.000000 -0.386976 1.262050 0.000000 0.000000 1.435736 0.000000 0.386976 1.262050 0.000000 0.701381 0.907255 0.000000 1.042888 0.615666 0.000000 1.191486 0.308767 0.000000 1.681155 0.574079 0.000000 2.067212 1.437309 0.000000 1.689996 1.238534 0.000000 1.266568 0.221598 0.000000 1.691751 0.235494 0.000000 1.349384 -0.185641 0.000000 0.502790 -1.136135 0.000000 0.432008 -1.113519 0.000000 0.172355 -1.134938 0.000000 0.083393 -1.400680 0.000000 0.004942 -1.654750 0.000000 
0.000000 -1.704296 0.000000 -0.184668 -1.534749 0.000000 -0.410035 -1.246425 0.000000 -0.646177 -0.883036 0.000000 -0.982075 -0.867770 0.000000 -1.259840 -0.524518 0.000000 -1.987435 0.277715 0.000000 -1.617513 -0.021022 0.000000 -1.536959 0.433367 0.000000 -2.033650 1.609797 0.000000 -1.807638 1.143509 0.000000 -1.445601 0.128635 0.000000 -1.217549 0.088288 0.000000 -1.070845 0.386976 0.000000 -0.769827 0.549165 0.000000 -0.440990 0.837916 0.000000 0.000000 0.948597 0.000000 0.440990 0.837916 0.000000 0.769827 0.549165 0.000000 1.070845 0.386976 0.000000 1.217549 0.088288 0.000000 1.445601 0.128635 0.000000 1.807638 1.143509 0.000000 2.033650 1.609797 0.000000 1.536959 0.433367 0.000000 1.617513 -0.021022 0.000000 1.987435 0.277715 0.000000 1.259840 -0.524518 0.000000 0.982075 -0.867770 0.000000 0.646177 -0.883036 0.000000 0.410035 -1.246425 0.000000 0.184668 -1.534749 0.000000 
0.000000 -1.416577 0.000000 -0.435854 -1.244715 0.000000 -0.830697 -0.939171 0.000000 -1.206762 -0.562898 0.000000 -1.477180 -0.499857 0.000000 -1.876740 -0.130775 0.000000 -2.024917 0.172032 0.000000 -1.699604 -0.214982 0.000000 -1.884096 0.637735 0.000000 -1.703667 1.509213 0.000000 -1.182660 0.849259 0.000000 -1.003743 -0.016010 0.000000 -0.997349 -0.065989 0.000000 -0.823405 0.167944 0.000000 -0.640923 0.277400 0.000000 -0.363205 0.492224 0.000000 -0.000000 0.553756 0.000000 0.363205 0.492224 0.000000 0.640923 0.277400 0.000000 0.823405 0.167944 0.000000 0.997349 -0.065989 0.000000 1.003743 -0.016010 0.000000 1.182660 0.849259 0.000000 1.703667 1.509213 0.000000 1.884096 0.637735 0.000000 1.699604 -0.214982 0.000000 2.024917 0.172032 0.000000 1.876740 -0.130775 0.000000 1.477180 -0.499857 0.000000 1.206762 -0.562898 0.000000 0.830697 -0.939171 0.000000 0.435854 -1.244715 0.000000 
0.000000 -0.832588 0.000000 -0.708288 -0.704052 0.000000 -1.244715 -0.475516 0.000000 -1.647459 -0.236552 0.000000 -1.807613 -0.197793 0.000000 -2.147316 0.023219 0.000000 -1.938388 0.100579 0.000000 -1.975284 -0.161843 0.000000 -2.153370 0.437430 0.000000 -1.337549 0.908361 0.000000 -0.644158 0.443585 0.000000 -0.488289 -0.056675 0.000000 -0.660167 -0.092050 0.000000 -0.554278 0.030550 0.000000 -0.492224 0.088965 0.000000 -0.276878 0.196992 0.000000 0.000000 0.222187 0.000000 0.276878 0.196992 0.000000 0.492224 0.088965 0.000000 0.554278 0.030550 0.000000 0.660167 -0.092050 0.000000 0.488289 -0.056675 0.000000 0.644158 0.443585 0.000000 1.337549 0.908361 0.000000 2.153370 0.437430 0.000000 1.975284 -0.161843 0.000000 1.938388 0.100579 0.000000 2.147316 0.023219 0.000000 1.807613 -0.197793 0.000000 1.647459 -0.236552 0.000000 1.244715 -0.475516 0.000000 0.708288 -0.704052 0.000000 
-0.000000 0.000000 0.000000 -0.832588 -0.000000 0.000000 -1.408104 -0.000000 0.000000 -1.783620 -0.000000 0.000000 -1.881209 -0.000000 0.000000 -2.179206 0.000000 0.000000 -1.834771 0.000000 0.000000 -1.978048 -0.000000 0.000000 -2.158457 -0.000000 0.000000 -1.103187 -0.000000 0.000000 -0.341734 0.000000 0.000000 -0.216017 0.000000 0.000000 -0.455085 0.000000 0.000000 -0.400118 -0.000000 0.000000 -0.393985 0.000000 0.000000 -0.222187 -0.000000 0.000000 -0.000000 -0.000000 0.000000 0.222187 -0.000000 0.000000 0.393985 -0.000000 0.000000 0.400118 -0.000000 0.000000 0.455085 -0.000000 0.000000 0.216017 -0.000000 0.000000 0.341734 -0.000000 0.000000 1.103187 -0.000000 0.000000 2.158457 0.000000 0.000000 1.978048 0.000000 0.000000 1.834771 0.000000 0.000000 2.179206 -0.000000 0.000000 1.881209 -0.000000 0.000000 1.783620 0.000000 0.000000 1.408104 0.000000 0.000000 0.832588 0.000000 0.000000 
-0.000000 0.832588 0.000000 -0.708288 0.704052 0.000000 -1.244715 0.475516 0.000000 -1.647459 0.236552 0.000000 -1.807613 0.197793 0.000000 -2.147316 -0.023219 0.000000 -1.938388 -0.100579 0.000000 -1.975284 0.161843 0.000000 -2.153370 -0.437430 0.000000 -1.337549 -0.908361 0.000000 -0.644158 -0.443585 0.000000 -0.488289 0.056675 0.000000 -0.660167 0.092050 0.000000 -0.554278 -0.030550 0.000000 -0.492224 -0.088965 0.000000 -0.276878 -0.196992 0.000000 -0.000000 -0.222187 0.000000 0.276878 -0.196992 0.000000 0.492224 -0.088965 0.000000 0.554278 -0.030550 0.000000 0.660167 0.092050 0.000000 0.488289 0.056675 0.000000 0.644158 -0.443585 0.000000 1.337549 -0.908361 0.000000 2.153370 -0.437430 0.000000 1.975284 0.161843 0.000000 1.938388 -0.100579 0.000000 2.147316 -0.023219 0.000000 1.807613 0.197793 0.000000 1.647459 0.236552 0.000000 1.244715 0.475516 0.000000 0.708288 0.704052 0.000000 
-0.000000 1.416577 0.000000 -0.435854 1.244715 0.000000 -0.830697 0.939171 0.000000 -1.206762 0.562898 0.000000 -1.477180 0.499857 0.000000 -1.876740 0.130775 0.000000 -2.024917 -0.172032 0.000000 -1.699604 0.214982 0.000000 -1.884096 -0.637735 0.000000 -1.703667 -1.509213 0.000000 -1.182660 -0.849259 0.000000 -1.003743 0.016010 0.000000 -0.997349 0.065989 0.000000 -0.823405 -0.167944 0.000000 -0.640923 -0.277400 0.000000 -0.363205 -0.492224 0.000000 0.000000 -0.553756 0.000000 0.363205 -0.492224 0.000000 0.640923 -0.277400 0.000000 0.823405 -0.167944 0.000000 0.997349 0.065989 0.000000 1.003743 0.016010 0.000000 1.182660 -0.849259 0.000000 1.703667 -1.509213 0.000000 1.884096 -0.637735 0.000000 1.699604 0.214982 0.000000 2.024917 -0.172032 0.000000 1.876740 0.130775 0.000000 1.477180 0.499857 0.000000 1.206762 0.562898 0.000000 0.830697 0.939171 0.000000 0.435854 1.244715 0.000000 
-0.000000 1.704296 0.000000 -0.184668 1.534749 0.000000 -0.410035 1.246425 0.000000 -0.646177 0.883036 0.000000 -0.982075 0.867770 0.000000 -1.259840 0.524518 0.000000 -1.987435 -0.277715 0.000000 -1.617513 0.021022 0.000000 -1.536959 -0.433367 0.000000 -2.033650 -1.609797 0.000000 -1.807638 -1.143509 0.000000 -1.445601 -0.128635 0.000000 -1.217549 -0.088288 0.000000 -1.070845 -0.386976 0.000000 -0.769827 -0.549165 0.000000 -0.440990 -0.837916 0.000000 0.000000 -0.948597 0.000000 0.440990 -0.837916 0.000000 0.769827 -0.549165 0.000000 1.070845 -0.386976 0.000000 1.217549 -0.088288 0.000000 1.445601 -0.128635 0.000000 1.807638 -1.143509 0.000000 2.033650 -1.609797 0.000000 1.536959 -0.433367 0.000000 1.617513 0.021022 0.000000 1.987435 -0.277715 0.000000 1.259840 0.524518 0.000000 0.982075 0.867770 0.000000 0.646177 0.883036 0.000000 0.410035 1.246425 0.000000 0.184668 1.534749 0.000000 
-0.000000 1.785913 0.000000 -0.004942 1.654750 0.000000 -0.083393 1.400680 0.000000 -0.172355 1.134938 0.000000 -0.432008 1.113519 0.000000 -0.502790 1.136135 0.000000 -1.349384 0.185641 0.000000 -1.691751 -0.235494 0.000000 -1.266568 -0.221598 0.000000 -1.689996 -1.238534 0.000000 -2.067212 -1.437309 0.000000 -1.681155 -0.574079 0.000000 -1.191486 -0.308767 0.000000 -1.042888 -0.615666 0.000000 -0.701381 -0.907255 0.000000 -0.386976 -1.262050 0.000000 0.000000 -1.435736 0.000000 0.386976 -1.262050 0.000000 0.701381 -0.907255 0.000000 1.042888 -0.615666 0.000000 1.191486 -0.308767 0.000000 1.681155 -0.574079 0.000000 2.067212 -1.437309 0.000000 1.689996 -1.238534 0.000000 1.266568 -0.221598 0.000000 1.691751 -0.235494 0.000000 1.349384 0.185641 0.000000 0.502790 1.136135 0.000000 0.432008 1.113519 0.000000 0.172355 1.134938 0.000000 0.083393 1.400680 0.000000 0.004942 1.654750 0.000000 
-0.000000 1.714180 0.000000 0.103985 1.618142 0.000000 0.144966 1.413837 0.000000 0.144503 1.231651 0.000000 0.050985 1.198205 0.000000 0.051698 1.441894 0.000000 -0.214498 0.911246 0.000000 -1.206138 -0.061794 0.000000 -1.255878 -0.435122 0.000000 -1.237375 -0.809153 0.000000 -1.770597 -1.152349 0.000000 -1.531905 -1.004362 0.000000 -0.990304 -0.726556 0.000000 -0.762998 -0.877081 0.000000 -0.561129 -1.205077 0.000000 -0.283266 -1.539297 0.000000 -0.000000 -1.722549 0.000000 0.283266 -1.539297 0.000000 0.561129 -1.205077 0.000000 0.762998 -0.877081 0.000000 0.990304 -0.726556 0.000000 1.531905 -1.004362 0.000000 1.770597 -1.152349 0.000000 1.237375 -0.809153 0.000000 1.255878 -0.435122 0.000000 1.206138 -0.061794 0.000000 0.214498 0.911246 0.000000 -0.051698 1.441894 0.000000 -0.050985 1.198205 0.000000 -0.144503 1.231651 0.000000 -0.144966 1.413837 0.000000 -0.103985 1.618142 0.000000 
-0.000000 1.577943 0.000000 0.164182 1.509784 0.000000 0.277469 1.360161 0.000000 0.345327 1.228918 0.000000 0.369540 1.206324 0.000000 0.441416 1.401618 0.000000 0.619513 1.443477 0.000000 0.023330 0.805886 0.000000 -0.626272 -0.190361 0.000000 -0.835910 -0.723815 0.000000 -1.127367 -1.142779 0.000000 -1.135821 -1.354372 0.000000 -0.665464 -1.077674 0.000000 -0.085673 -1.044842 0.000000 -0.093584 -1.386987 0.000000 0.028014 -1.823179 0.000000 -0.000000 -2.002269 0.000000 -0.028014 -1.823179 0.000000 0.093584 -1.386987 0.000000 0.085673 -1.044842 0.000000 0.665464 -1.077674 0.000000 1.135821 -1.354372 0.000000 1.127367 -1.142779 0.000000 0.835910 -0.723815 0.000000 0.626272 -0.190361 0.000000 -0.023330 0.805886 0.000000 -0.619513 1.443477 0.000000 -0.441416 1.401618 0.000000 -0.369540 1.206324 0.000000 -0.345327 1.228918 0.000000 -0.277469 1.360161 0.000000 -0.164182 1.509784 0.000000 
-0.000000 1.385815 0.000000 0.191372 1.340673 0.000000 0.344571 1.232693 0.000000 0.460104 1.139580 0.000000 0.552216 1.102116 0.000000 0.693329 1.191921 0.000000 0.974072 1.329332 0.000000 1.142345 1.183991 0.000000 0.781564 0.424117 0.000000 0.324213 -0.308059 0.000000 -0.028680 -0.852438 0.000000 -0.629156 -1.466265 0.000000 -0.750406 -1.776704 0.000000 -0.299707 -1.448961 0.000000 -0.014934 -1.318764 0.000000 0.187532 -1.632881 0.000000 -0.000000 -1.666521 0.000000 -0.187532 -1.632881 0.000000 0.014934 -1.318764 0.000000 0.299707 -1.448961 0.000000 0.750406 -1.776704 0.000000 0.629156 -1.466265 0.000000 0.028680 -0.852438 0.000000 -0.324213 -0.308059 0.000000 -0.781564 0.424117 0.000000 -1.142345 1.183991 0.000000 -0.974072 1.329332 0.000000 -0.693329 1.191921 0.000000 -0.552216 1.102116 0.000000 -0.460104 1.139580 0.000000 -0.344571 1.232693 0.000000 -0.191372 1.340673 0.000000 
0.000000 1.195200 0.000000 0.193839 1.165213 0.000000 0.361123 1.091429 0.000000 0.499034 1.021273 0.000000 0.627033 0.973099 0.000000 0.781624 0.979762 0.000000 1.035937 0.994462 0.000000 1.390472 0.998395 0.000000 1.560717 0.627771 0.000000 1.351104 0.086430 0.000000 1.267587 -0.189409 0.000000 0.935607 -0.632647 0.000000 0.297668 -1.407123 0.000000 -0.517565 -1.780313 0.000000 -0.408484 -1.874226 0.000000 -0.210198 -1.838113 0.000000 0.000000 -1.627205 0.000000 0.210198 -1.838113 0.000000 0.408484 -1.874226 0.000000 0.517565 -1.780313 0.000000 -0.297668 -1.407123 0.000000 -0.935607 -0.632647 0.000000 -1.267587 -0.189409 0.000000 -1.351104 0.086430 0.000000 -1.560717 0.627771 0.000000 -1.390472 0.998395 0.000000 -1.035937 0.994462 0.000000 -0.781624 0.979762 0.000000 -0.627033 0.973099 0.000000 -0.499034 1.021273 0.000000 -0.361123 1.091429 0.000000 -0.193839 1.165213 0.000000 
-0.000000 0.998138 0.000000 0.186180 0.979549 0.000000 0.355000 0.927497 0.000000 0.504949 0.873670 0.000000 0.648636 0.819526 0.000000 0.805972 0.783018 0.000000 1.013640 0.720484 0.000000 1.276333 0.659210 0.000000 1.600562 0.463486 0.000000 1.675369 -0.014928 0.000000 1.727495 -0.436942 0.000000 1.948006 -0.496345 0.000000 2.258580 -0.323531 0.000000 1.787842 -0.742809 0.000000 1.088934 -1.626131 0.000000 0.179193 -2.041365 0.000000 0.000000 -2.086916 0.000000 -0.179193 -2.041365 0.000000 -1.088934 -1.626131 0.000000 -1.787842 -0.742809 0.000000 -2.258580 -0.323531 0.000000 -1.948006 -0.496345 0.000000 -1.727495 -0.436942 0.000000 -1.675369 -0.014928 0.000000 -1.600562 0.463486 0.000000 -1.276333 0.659210 0.000000 -1.013640 0.720484 0.000000 -0.805972 0.783018 0.000000 -0.648636 0.819526 0.000000 -0.504949 0.873670 0.000000 -0.355000 0.927497 0.000000 -0.186180 0.979549 0.000000 
0.000000 0.822841 0.000000 0.171696 0.810214 0.000000 0.333574 0.772660 0.000000 0.481844 0.727637 0.000000 0.628580 0.672076 0.000000 0.775334 0.614758 0.000000 0.951298 0.524101 0.000000 1.127371 0.411472 0.000000 1.375241 0.228734 0.000000 1.519742 -0.040503 0.000000 1.538220 -0.462045 0.000000 1.537108 -1.163732 0.000000 1.824139 -1.246959 0.000000 2.385567 -0.610667 0.000000 2.435016 -0.265578 0.000000 1.358851 -0.749179 0.000000 0.000000 -1.268818 0.000000 -1.358851 -0.749179 0.000000 -2.435016 -0.265578 0.000000 -2.385567 -0.610667 0.000000 -1.824139 -1.246959 0.000000 -1.537108 -1.163732 0.000000 -1.538220 -0.462045 0.000000 -1.519742 -0.040503 0.000000 -1.375241 0.228734 0.000000 -1.127371 0.411472 0.000000 -0.951298 0.524101 0.000000 -0.775334 0.614758 0.000000 -0.628580 0.672076 0.000000 -0.481844 0.727637 0.000000 -0.333574 0.772660 0.000000 -0.171696 0.810214 0.000000 
-0.000000 0.654746 0.000000 0.158363 0.645976 0.000000 0.310781 0.617350 0.000000 0.454093 0.578664 0.000000 0.594742 0.526035 0.000000 0.730824 0.460299 0.000000 0.878354 0.368447 0.000000 1.012895 0.235267 0.000000 1.174663 0.071115 0.000000 1.284555 -0.177908 0.000000 1.402958 -0.454309 0.000000 1.343146 -0.782264 0.000000 1.056738 -1.171990 0.000000 1.049489 -1.353686 0.000000 1.453723 -0.599414 0.000000 1.344186 0.393651 0.000000 0.000000 0.630785 0.000000 -1.344186 0.393651 0.000000 -1.453723 -0.599414 0.000000 -1.049489 -1.353686 0.000000 -1.056738 -1.171990 0.000000 -1.343146 -0.782264 0.000000 -1.402958 -0.454309 0.000000 -1.284555 -0.177908 0.000000 -1.174663 0.071115 0.000000 -1.012895 0.235267 0.000000 -0.878354 0.368447 0.000000 -0.730824 0.460299 0.000000 -0.594742 0.526035 0.000000 -0.454093 0.578664 0.000000 -0.310781 0.617350 0.000000 -0.158363 0.645976 0.000000 
-0.000000 0.506115 0.000000 0.144392 0.499433 0.000000 0.285040 0.476930 0.000000 0.417667 0.443676 0.000000 0.546419 0.395345 0.000000 0.665424 0.331146 0.000000 0.783693 0.242030 0.000000 0.884064 0.115163 0.000000 0.976082 -0.042926 0.000000 1.041480 -0.268798 0.000000 1.064627 -0.520637 0.000000 1.046718 -0.817512 0.000000 0.939606 -0.953302 0.000000 0.622209 -1.007653 0.000000 0.239634 -0.560274 0.000000 0.293447 0.704545 0.000000 0.000000 1.419554 0.000000 -0.293447 0.704545 0.000000 -0.239634 -0.560274 0.000000 -0.622209 -1.007653 0.000000 -0.939606 -0.953302 0.000000 -1.046718 -0.817512 0.000000 -1.064627 -0.520637 0.000000 -1.041480 -0.268798 0.000000 -0.976082 -0.042926 0.000000 -0.884064 0.115163 0.000000 -0.783693 0.242030 0.000000 -0.665424 0.331146 0.000000 -0.546419 0.395345 0.000000 -0.417667 0.443676 0.000000 -0.285040 0.476930 0.000000 -0.144392 0.499433 0.000000 
-0.000000 0.365962 0.000000 0.133711 0.360936 0.000000 0.264194 0.344075 0.000000 0.387111 0.317285 0.000000 0.503461 0.278279 0.000000 0.606549 0.223024 0.000000 0.699563 0.149807 0.000000 0.768311 0.042879 0.000000 0.813766 -0.086301 0.000000 0.821693 -0.266453 0.000000 0.773762 -0.459547 0.000000 0.664874 -0.657243 0.000000 0.444261 -0.747481 0.000000 0.221604 -0.653714 0.000000 -0.185014 -0.270652 0.000000 -0.261040 0.633285 0.000000 -0.000000 1.217678 0.000000 0.261040 0.633285 0.000000 0.185014 -0.270652 0.000000 -0.221604 -0.653714 0.000000 -0.444261 -0.747481 0.000000 -0.664874 -0.657243 0.000000 -0.773762 -0.459547 0.000000 -0.821693 -0.266453 0.000000 -0.813766 -0.086301 0.000000 -0.768311 0.042879 0.000000 -0.699563 0.149807 0.000000 -0.606549 0.223024 0.000000 -0.503461 0.278279 0.000000 -0.387111 0.317285 0.000000 -0.264194 0.344075 0.000000 -0.133711 0.360936 0.000000 
0.000000 0.238693 0.000000 0.124454 0.235239 0.000000 0.245669 0.223530 0.000000 0.359132 0.204409 0.000000 0.463480 0.175907 0.000000 0.552526 0.135045 0.000000 0.623123 0.080268 0.000000 0.667317 0.000960 0.000000 0.672568 -0.096307 0.000000 0.638631 -0.228794 0.000000 0.531731 -0.363818 0.000000 0.373855 -0.488011 0.000000 0.125266 -0.510032 0.000000 -0.117275 -0.378377 0.000000 -0.352769 -0.077630 0.000000 -0.383064 0.519530 0.000000 -0.000000 0.897474 0.000000 0.383064 0.519530 0.000000 0.352769 -0.077630 0.000000 0.117275 -0.378377 0.000000 -0.125266 -0.510032 0.000000 -0.373855 -0.488011 0.000000 -0.531731 -0.363818 0.000000 -0.638631 -0.228794 0.000000 -0.672568 -0.096307 0.000000 -0.667317 0.000960 0.000000 -0.623123 0.080268 0.000000 -0.552526 0.135045 0.000000 -0.463480 0.175907 0.000000 -0.359132 0.204409 0.000000 -0.245669 0.223530 0.000000 -0.124454 0.235239 0.000000 
0.000000 0.117055 0.000000 0.119346 0.115267 0.000000 0.235239 0.109396 0.000000 0.342876 0.099474 0.000000 0.439648 0.084886 0.000000 0.518783 0.063382 0.000000 0.574693 0.035016 0.000000 0.599051 -0.006566 0.000000 0.575652 -0.057615 0.000000 0.502744 -0.125616 0.000000 0.346858 -0.194772 0.000000 0.138926 -0.250778 0.000000 -0.141153 -0.256350 0.000000 -0.371107 -0.175680 0.000000 -0.519530 -0.004863 0.000000 -0.448737 0.280517 0.000000 -0.000000 0.451549 0.000000 0.448737 0.280517 0.000000 0.519530 -0.004863 0.000000 0.371107 -0.175680 0.000000 0.141153 -0.256350 0.000000 -0.138926 -0.250778 0.000000 -0.346858 -0.194772 0.000000 -0.502744 -0.125616 0.000000 -0.575652 -0.057615 0.000000 -0.599051 -0.006566 0.000000 -0.574693 0.035016 0.000000 -0.518783 0.063382 0.000000 -0.439648 0.084886 0.000000 -0.342876 0.099474 0.000000 -0.235239 0.109396 0.000000 -0.119346 0.115267 0.000000 
