# vtk DataFile Version 2.0
Comment goes here
ASCII

DATASET STRUCTURED_POINTS
FIELD FieldData 1
TIME 1 1 double
0.44000000
DIMENSIONS    32   32   1

ORIGIN    0.000   0.000   0.000
SPACING   0.03125 0.03125   1.000

POINT_DATA   1024
VECTORS u double

-0.000000 -0.000000 0.000000 -0.087012 0.000000 0.000000 -0.178945 -0.000000 0.000000 -0.275951 -0.000000 0.000000 -0.384038 -0.000000 0.000000 -0.500028 -0.000000 0.000000 -0.627313 -0.000000 0.000000 -0.764616 0.000000 0.000000 -0.910865 0.000000 0.000000 -1.068591 0.000000 0.000000 -1.222539 0.000000 0.000000 -1.365859 -0.000000 0.000000 -1.443598 -0.000000 0.000000 -1.431112 -0.000000 0.000000 -1.234151 -0.000000 0.000000 -0.786805 -0.000000 0.000000 -0.000000 -0.000000 0.000000 0.786805 0.000000 0.000000 1.234151 0.000000 0.000000 1.431112 0.000000 0.000000 1.443598 0.000000 0.000000 1.365859 0.000000 0.000000 1.222539 0.000000 0.000000 1.068591 -0.000000 0.000000 0.910865 0.000000 0.000000 0.764616 0.000000 0.000000 0.627313 0.000000 0.000000 0.500028 0.000000 0.000000 0.384038 0.000000 0.000000 0.275951 0.000000 0.000000 0.178945 -0.000000 0.000000 0.087012 0.000000 0.000000 
-0.000000 0.087012 0.000000 -0.084640 0.089472 0.000000 -0.174866 0.094470 0.000000 -0.269446 0.102547 0.000000 -0.376304 0.112039 0.000000 -0.489170 0.121638 0.000000 -0.613330 0.132294 0.000000 -0.743685 0.141776 0.000000 -0.879752 0.151987 0.000000 -1.020960 0.155837 0.000000 -1.155172 0.148634 0.000000 -1.277359 0.110529 0.000000 -1.344852 0.032627 0.000000 -1.331726 -0.104723 0.000000 -1.147054 -0.322154 0.000000 -0.718768 -0.617076 0.000000 -0.000000 -0.786805 0.000000 0.718768 -0.617076 0.000000 1.147054 -0.322154 0.000000 1.331726 -0.104723 0.000000 1.344852 0.032627 0.000000 1.277359 0.110529 0.000000 1.155172 0.148634 0.000000 1.020960 0.155837 0.000000 0.879752 0.151987 0.000000 0.743685 0.141776 0.000000 0.613330 0.132294 0.000000 0.489170 0.121638 0.000000 0.376304 0.112039 0.000000 0.269446 0.102547 0.000000 0.174866 0.094470 0.000000 0.084640 0.089472 0.000000 
0.000000 0.169280 0.000000 -0.080063 0.174866 0.000000 -0.166949 0.184806 0.000000 -0.260198 0.201438 0.000000 -0.367520 0.219724 0.000000 -0.482612 0.237026 0.000000 -0.608198 0.254516 0.000000 -0.737479 0.266422 0.000000 -0.864965 0.277275 0.000000 -0.985387 0.275420 0.000000 -1.084726 0.256398 0.000000 -1.161385 0.189680 0.000000 -1.171953 0.054367 0.000000 -1.117689 -0.197798 0.000000 -0.924555 -0.612958 0.000000 -0.530589 -1.147054 0.000000 0.000000 -1.437537 0.000000 0.530589 -1.147054 0.000000 0.924555 -0.612958 0.000000 1.117689 -0.197798 0.000000 1.171953 0.054367 0.000000 1.161385 0.189680 0.000000 1.084726 0.256398 0.000000 0.985387 0.275420 0.000000 0.864965 0.277275 0.000000 0.737479 0.266422 0.000000 0.608198 0.254516 0.000000 0.482612 0.237026 0.000000 0.367520 0.219724 0.000000 0.260198 0.201438 0.000000 0.166949 0.184806 0.000000 0.080063 0.174866 0.000000 
-0.000000 0.247137 0.000000 -0.070517 0.256422 0.000000 -0.151153 0.274605 0.000000 -0.239160 0.303118 0.000000 -0.347208 0.334452 0.000000 -0.462066 0.362316 0.000000 -0.589810 0.387162 0.000000 -0.715058 0.398543 0.000000 -0.828859 0.399895 0.000000 -0.915446 0.375597 0.000000 -0.954998 0.324633 0.000000 -0.949866 0.197756 0.000000 -0.886575 -0.011070 0.000000 -0.791058 -0.352121 0.000000 -0.582573 -0.909254 0.000000 -0.260511 -1.541630 0.000000 0.000000 -1.847983 0.000000 0.260511 -1.541630 0.000000 0.582573 -0.909254 0.000000 0.791058 -0.352121 0.000000 0.886575 -0.011070 0.000000 0.949866 0.197756 0.000000 0.954998 0.324633 0.000000 0.915446 0.375597 0.000000 0.828859 0.399895 0.000000 0.715058 0.398543 0.000000 0.589810 0.387162 0.000000 0.462066 0.362316 0.000000 0.347208 0.334452 0.000000 0.239160 0.303118 0.000000 0.151153 0.274605 0.000000 0.070517 0.256422 0.000000 
0.000000 0.310314 0.000000 -0.055789 0.326019 0.000000 -0.126369 0.353449 0.000000 -0.209723 0.397493 0.000000 -0.320866 0.442630 0.000000 -0.445082 0.479628 0.000000 -0.586516 0.507508 0.000000 -0.728365 0.505471 0.000000 -0.856240 0.477663 0.000000 -0.944451 0.401559 0.000000 -0.975434 0.290818 0.000000 -0.932180 0.121257 0.000000 -0.766813 -0.104440 0.000000 -0.573372 -0.501799 0.000000 -0.256660 -1.143505 0.000000 -0.024294 -1.729628 0.000000 0.000000 -1.958559 0.000000 0.024294 -1.729628 0.000000 0.256660 -1.143505 0.000000 0.573372 -0.501799 0.000000 0.766813 -0.104440 0.000000 0.932180 0.121257 0.000000 0.975434 0.290818 0.000000 0.944451 0.401559 0.000000 0.856240 0.477663 0.000000 0.728365 0.505471 0.000000 0.586516 0.507508 0.000000 0.445082 0.479628 0.000000 0.320866 0.442630 0.000000 0.209723 0.397493 0.000000 0.126369 0.353449 0.000000 0.055789 0.326019 0.000000 
0.000000 0.358715 0.000000 -0.034437 0.382791 0.000000 -0.092308 0.428539 0.000000 -0.167908 0.497615 0.000000 -0.287676 0.569811 0.000000 -0.424267 0.627966 0.000000 -0.592671 0.670445 0.000000 -0.766638 0.668267 0.000000 -0.930446 0.615980 0.000000 -1.045025 0.494791 0.000000 -1.054712 0.312362 0.000000 -0.940652 -0.010865 0.000000 -0.716556 -0.369878 0.000000 -0.475206 -0.862273 0.000000 -0.064514 -1.458332 0.000000 0.048896 -1.798291 0.000000 0.000000 -1.896571 0.000000 -0.048896 -1.798291 0.000000 0.064514 -1.458332 0.000000 0.475206 -0.862273 0.000000 0.716556 -0.369878 0.000000 0.940652 -0.010865 0.000000 1.054712 0.312362 0.000000 1.045025 0.494791 0.000000 0.930446 0.615980 0.000000 0.766638 0.668267 0.000000 0.592671 0.670445 0.000000 0.424267 0.627966 0.000000 0.287676 0.569811 0.000000 0.167908 0.497615 0.000000 0.092308 0.428539 0.000000 0.034437 0.382791 0.000000 
0.000000 0.379187 0.000000 -0.001386 0.418327 0.000000 -0.037153 0.486920 0.000000 -0.101478 0.592861 0.000000 -0.227995 0.698989 0.000000 -0.386406 0.784624 0.000000 -0.588807 0.849879 0.000000 -0.820172 0.843246 0.000000 -1.058961 0.756049 0.000000 -1.272579 0.525824 0.000000 -1.440062 0.186445 0.000000 -1.347933 -0.216899 0.000000 -0.908921 -0.569886 0.000000 -0.420654 -1.153842 0.000000 0.042185 -1.667607 0.000000 0.030526 -1.794141 0.000000 0.000000 -1.860767 0.000000 -0.030526 -1.794141 0.000000 -0.042185 -1.667607 0.000000 0.420654 -1.153842 0.000000 0.908921 -0.569886 0.000000 1.347933 -0.216899 0.000000 1.440062 0.186445 0.000000 1.272579 0.525824 0.000000 1.058961 0.756049 0.000000 0.820172 0.843246 0.000000 0.588807 0.849879 0.000000 0.386406 0.784624 0.000000 0.227995 0.698989 0.000000 0.101478 0.592861 0.000000 0.037153 0.486920 0.000000 0.001386 0.418327 0.000000 
0.000000 0.361487 0.000000 0.040289 0.419943 0.000000 0.030665 0.528631 0.000000 -0.015970 0.688457 0.000000 -0.156488 0.854738 0.000000 -0.334257 0.988778 0.000000 -0.596093 1.104211 0.000000 -0.939902 1.138420 0.000000 -1.378346 1.068387 0.000000 -1.701667 0.875892 0.000000 -1.496428 0.387716 0.000000 -0.782686 -0.542006 0.000000 -0.138300 -1.297156 0.000000 0.196377 -1.813379 0.000000 0.282873 -1.909511 0.000000 0.085343 -1.756106 0.000000 -0.000000 -1.835520 0.000000 -0.085343 -1.756106 0.000000 -0.282873 -1.909511 0.000000 -0.196377 -1.813379 0.000000 0.138300 -1.297156 0.000000 0.782686 -0.542006 0.000000 1.496428 0.387716 0.000000 1.701667 0.875892 0.000000 1.378346 1.068387 0.000000 0.939902 1.138420 0.000000 0.596093 1.104211 0.000000 0.334257 0.988778 0.000000 0.156488 0.854738 0.000000 0.015970 0.688457 0.000000 -0.030665 0.528631 0.000000 -0.040289 0.419943 0.000000 
0.000000 0.298609 0.000000 0.097593 0.387662 0.000000 0.129547 0.543179 0.000000 0.115913 0.780014 0.000000 -0.023124 1.017276 0.000000 -0.222758 1.224228 0.000000 -0.533239 1.455525 0.000000 -1.008563 1.625499 0.000000 -1.391219 1.517814 0.000000 -1.070472 0.643907 0.000000 -0.245099 -0.732536 0.000000 0.404667 -1.575027 0.000000 0.492827 -1.548949 0.000000 0.313846 -1.575015 0.000000 0.102448 -1.556572 0.000000 0.041977 -1.511268 0.000000 -0.000000 -1.690082 0.000000 -0.041977 -1.511268 0.000000 -0.102448 -1.556572 0.000000 -0.313846 -1.575015 0.000000 -0.492827 -1.548949 0.000000 -0.404667 -1.575027 0.000000 0.245099 -0.732536 0.000000 1.070472 0.643907 0.000000 1.391219 1.517814 0.000000 1.008563 1.625499 0.000000 0.533239 1.455525 0.000000 0.222758 1.224228 0.000000 0.023124 1.017276 0.000000 -0.115913 0.780014 0.000000 -0.129547 0.543179 0.000000 -0.097593 0.387662 0.000000 
0.000000 0.166302 0.000000 0.154258 0.290397 0.000000 0.231839 0.510311 0.000000 0.265804 0.841127 0.000000 0.132080 1.193410 0.000000 -0.040695 1.498893 0.000000 -0.390369 1.890016 0.000000 -0.819011 1.996401 0.000000 -0.801961 1.130296 0.000000 0.227098 -0.270228 0.000000 0.754953 -1.087423 0.000000 0.681383 -1.279932 0.000000 0.669713 -1.206335 0.000000 0.757709 -1.423000 0.000000 0.624046 -1.637642 0.000000 0.452065 -1.653658 0.000000 -0.000000 -1.751566 0.000000 -0.452065 -1.653658 0.000000 -0.624046 -1.637642 0.000000 -0.757709 -1.423000 0.000000 -0.669713 -1.206335 0.000000 -0.681383 -1.279932 0.000000 -0.754953 -1.087423 0.000000 -0.227098 -0.270228 0.000000 0.801961 1.130296 0.000000 0.819011 1.996401 0.000000 0.390369 1.890016 0.000000 0.040695 1.498893 0.000000 -0.132080 1.193410 0.000000 -0.265804 0.841127 0.000000 -0.231839 0.510311 0.000000 -0.154258 0.290397 0.000000 
0.000000 -0.009907 0.000000 0.211677 0.155823 0.000000 0.343254 0.431633 0.000000 0.466747 0.879773 0.000000 0.386842 1.323774 0.000000 0.334633 1.746677 0.000000 0.141994 2.233842 0.000000 -0.590357 2.037091 0.000000 0.228144 0.471705 0.000000 1.070388 -0.913007 0.000000 1.281781 -1.186821 0.000000 1.611995 -1.489786 0.000000 1.814589 -1.625274 0.000000 1.833958 -1.529349 0.000000 1.409679 -1.250929 0.000000 0.802444 -0.887222 0.000000 -0.000000 -0.785951 0.000000 -0.802444 -0.887222 0.000000 -1.409679 -1.250929 0.000000 -1.833958 -1.529349 0.000000 -1.814589 -1.625274 0.000000 -1.611995 -1.489786 0.000000 -1.281781 -1.186821 0.000000 -1.070388 -0.913007 0.000000 -0.228144 0.471705 0.000000 0.590357 2.037091 0.000000 -0.141994 2.233842 0.000000 -0.334633 1.746677 0.000000 -0.386842 1.323774 0.000000 -0.466747 0.879773 0.000000 -0.343254 0.431633 0.000000 -0.211677 0.155823 0.000000 
0.000000 -0.257051 0.000000 0.230382 -0.052857 0.000000 0.407545 0.255241 0.000000 0.612460 0.797539 0.000000 0.589177 1.325524 0.000000 0.757652 1.743741 0.000000 0.330316 2.815005 0.000000 -0.270307 1.910251 0.000000 1.482085 -0.530449 0.000000 1.740022 -1.323865 0.000000 1.762097 -1.629029 0.000000 1.514420 -1.812741 0.000000 1.088062 -1.428298 0.000000 0.762961 -1.018090 0.000000 0.452926 -0.606128 0.000000 0.232304 -0.243979 0.000000 -0.000000 -0.146678 0.000000 -0.232304 -0.243979 0.000000 -0.452926 -0.606128 0.000000 -0.762961 -1.018090 0.000000 -1.088062 -1.428298 0.000000 -1.514420 -1.812741 0.000000 -1.762097 -1.629029 0.000000 -1.740022 -1.323865 0.000000 -1.482085 -0.530449 0.000000 0.270307 1.910251 0.000000 -0.330316 2.815005 0.000000 -0.757652 1.743741 0.000000 -0.589177 1.325524 0.000000 -0.612460 0.797539 0.000000 -0.407545 0.255241 0.000000 -0.230382 -0.052857 0.000000 
0.000000 -0.470672 0.000000 0.201110 -0.251723 0.000000 0.376573 0.049556 0.000000 0.677101 0.698141 0.000000 0.684923 1.178582 0.000000 1.280200 2.005538 0.000000 -0.232939 3.261800 0.000000 0.980158 0.885321 0.000000 2.269240 -1.538624 0.000000 1.640808 -1.193018 0.000000 1.209511 -0.961219 0.000000 0.507911 -0.815752 0.000000 0.192221 -0.873816 0.000000 0.027115 -0.894213 0.000000 -0.041689 -0.720271 0.000000 -0.024102 -0.434296 0.000000 -0.000000 -0.321343 0.000000 0.024102 -0.434296 0.000000 0.041689 -0.720271 0.000000 -0.027115 -0.894213 0.000000 -0.192221 -0.873816 0.000000 -0.507911 -0.815752 0.000000 -1.209511 -0.961219 0.000000 -1.640808 -1.193018 0.000000 -2.269240 -1.538624 0.000000 -0.980158 0.885321 0.000000 0.232939 3.261800 0.000000 -1.280200 2.005538 0.000000 -0.684923 1.178582 0.000000 -0.677101 0.698141 0.000000 -0.376573 0.049556 0.000000 -0.201110 -0.251723 0.000000 
0.000000 -0.659271 0.000000 0.083991 -0.429429 0.000000 0.248031 -0.220750 0.000000 0.464164 0.489189 0.000000 0.904005 0.722425 0.000000 1.034682 2.661603 0.000000 0.014936 3.115047 0.000000 2.397316 -0.591928 0.000000 1.995440 -1.191099 0.000000 1.158658 -0.264136 0.000000 0.775550 -0.496133 0.000000 0.492330 -0.795452 0.000000 0.417377 -0.947501 0.000000 0.265367 -0.784180 0.000000 0.113106 -0.554912 0.000000 0.028141 -0.285668 0.000000 -0.000000 -0.194883 0.000000 -0.028141 -0.285668 0.000000 -0.113106 -0.554912 0.000000 -0.265367 -0.784180 0.000000 -0.417377 -0.947501 0.000000 -0.492330 -0.795452 0.000000 -0.775550 -0.496133 0.000000 -1.158658 -0.264136 0.000000 -1.995440 -1.191099 0.000000 -2.397316 -0.591928 0.000000 -0.014936 3.115047 0.000000 -1.034682 2.661603 0.000000 -0.904005 0.722425 0.000000 -0.464164 0.489189 0.000000 -0.248031 -0.220750 0.000000 -0.083991 -0.429429 0.000000 
0.000000 -0.638654 0.000000 -0.109518 -0.499754 0.000000 -0.027058 -0.330617 0.000000 -0.038070 0.042168 0.000000 0.659267 0.608064 0.000000 0.037784 2.894607 0.000000 1.407019 1.899166 0.000000 2.384811 -1.095183 0.000000 1.317554 -0.299966 0.000000 1.171392 0.026872 0.000000 1.040695 -0.294891 0.000000 0.843666 -0.457579 0.000000 0.536680 -0.646853 0.000000 0.306138 -0.589942 0.000000 0.112726 -0.483046 0.000000 0.027459 -0.321189 0.000000 0.000000 -0.265061 0.000000 -0.027459 -0.321189 0.000000 -0.112726 -0.483046 0.000000 -0.306138 -0.589942 0.000000 -0.536680 -0.646853 0.000000 -0.843666 -0.457579 0.000000 -1.040695 -0.294891 0.000000 -1.171392 0.026872 0.000000 -1.317554 -0.299966 0.000000 -2.384811 -1.095183 0.000000 -1.407019 1.899166 0.000000 -0.037784 2.894607 0.000000 -0.659267 0.608064 0.000000 0.038070 0.042168 0.000000 0.027058 -0.330617 0.000000 0.109518 -0.499754 0.000000 
0.000000 -0.440235 0.000000 -0.319327 -0.402372 0.000000 -0.499754 -0.292197 0.000000 -0.649944 -0.197136 0.000000 -0.457586 0.646571 0.000000 -0.041880 1.913851 0.000000 2.437021 0.768019 0.000000 1.857286 -0.502463 0.000000 1.341838 0.022320 0.000000 1.557320 0.012723 0.000000 1.368710 -0.168407 0.000000 1.262429 -0.291436 0.000000 0.911131 -0.409973 0.000000 0.615576 -0.360225 0.000000 0.321189 -0.276232 0.000000 0.132531 -0.172942 0.000000 0.000000 -0.139965 0.000000 -0.132531 -0.172942 0.000000 -0.321189 -0.276232 0.000000 -0.615576 -0.360225 0.000000 -0.911131 -0.409973 0.000000 -1.262429 -0.291436 0.000000 -1.368710 -0.168407 0.000000 -1.557320 0.012723 0.000000 -1.341838 0.022320 0.000000 -1.857286 -0.502463 0.000000 -2.437021 0.768019 0.000000 0.041880 1.913851 0.000000 0.457586 0.646571 0.000000 0.649944 -0.197136 0.000000 0.499754 -0.292197 0.000000 0.319327 -0.402372 0.000000 
-0.000000 -0.000000 0.000000 -0.440235 -0.000000 0.000000 -0.804743 -0.000000 0.000000 -1.024630 0.000000 0.000000 -1.199014 0.000000 0.000000 0.268512 0.000000 0.000000 2.628687 0.000000 0.000000 1.804550 -0.000000 0.000000 1.623762 -0.000000 0.000000 1.849190 0.000000 0.000000 1.649207 0.000000 0.000000 1.512376 0.000000 0.000000 1.066335 0.000000 0.000000 0.692429 -0.000000 0.000000 0.345884 0.000000 0.000000 0.139965 -0.000000 0.000000 0.000000 -0.000000 0.000000 -0.139965 -0.000000 0.000000 -0.345884 -0.000000 0.000000 -0.692429 -0.000000 0.000000 -1.066335 -0.000000 0.000000 -1.512376 -0.000000 0.000000 -1.649207 -0.000000 0.000000 -1.849190 0.000000 0.000000 -1.623762 0.000000 0.000000 -1.804550 0.000000 0.000000 -2.628687 -0.000000 0.000000 -0.268512 -0.000000 0.000000 1.199014 -0.000000 0.000000 1.024630 0.000000 0.000000 0.804743 0.000000 0.000000 0.440235 -0.000000 0.000000 
-0.000000 0.440235 0.000000 -0.319327 0.402372 0.000000 -0.499754 0.292197 0.000000 -0.649944 0.197136 0.000000 -0.457586 -0.646571 0.000000 -0.041880 -1.913851 0.000000 2.437021 -0.768019 0.000000 1.857286 0.502463 0.000000 1.341838 -0.022320 0.000000 1.557320 -0.012723 0.000000 1.368710 0.168407 0.000000 1.262429 0.291436 0.000000 0.911131 0.409973 0.000000 0.615576 0.360225 0.000000 0.321189 0.276232 0.000000 0.132531 0.172942 0.000000 0.000000 0.139965 0.000000 -0.132531 0.172942 0.000000 -0.321189 0.276232 0.000000 -0.615576 0.360225 0.000000 -0.911131 0.409973 0.000000 -1.262429 0.291436 0.000000 -1.368710 0.168407 0.000000 -1.557320 -0.012723 0.000000 -1.341838 -0.022320 0.000000 -1.857286 0.502463 0.000000 -2.437021 -0.768019 0.000000 0.041880 -1.913851 0.000000 0.457586 -0.646571 0.000000 0.649944 0.197136 0.000000 0.499754 0.292197 0.000000 0.319327 0.402372 0.000000 
-0.000000 0.638654 0.000000 -0.109518 0.499754 0.000000 -0.027058 0.330617 0.000000 -0.038070 -0.042168 0.000000 0.659267 -0.608064 0.000000 0.037784 -2.894607 0.000000 1.407019 -1.899166 0.000000 2.384811 1.095183 0.000000 1.317554 0.299966 0.000000 1.171392 -0.026872 0.000000 1.040695 0.294891 0.000000 0.843666 0.457579 0.000000 0.536680 0.646853 0.000000 0.306138 0.589942 0.000000 0.112726 0.483046 0.000000 0.027459 0.321189 0.000000 0.000000 0.265061 0.000000 -0.027459 0.321189 0.000000 -0.112726 0.483046 0.000000 -0.306138 0.589942 0.000000 -0.536680 0.646853 0.000000 -0.843666 0.457579 0.000000 -1.040695 0.294891 0.000000 -1.171392 -0.026872 0.000000 -1.317554 0.299966 0.000000 -2.384811 1.095183 0.000000 -1.407019 -1.899166 0.000000 -0.037784 -2.894607 0.000000 -0.659267 -0.608064 0.000000 0.038070 -0.042168 0.000000 0.027058 0.330617 0.000000 0.109518 0.499754 0.000000 
-0.000000 0.659271 0.000000 0.083991 0.429429 0.000000 0.248031 0.220750 0.000000 0.464164 -0.489189 0.000000 0.904005 -0.722425 0.000000 1.034682 -2.661603 0.000000 0.014936 -3.115047 0.000000 2.397316 0.591928 0.000000 1.995440 1.191099 0.000000 1.158658 0.264136 0.000000 0.775550 0.496133 0.000000 0.492330 0.795452 0.000000 0.417377 0.947501 0.000000 0.265367 0.784180 0.000000 0.113106 0.554912 0.000000 0.028141 0.285668 0.000000 0.000000 0.194883 0.000000 -0.028141 0.285668 0.000000 -0.113106 0.554912 0.000000 -0.265367 0.784180 0.000000 -0.417377 0.947501 0.000000 -0.492330 0.795452 0.000000 -0.775550 0.496133 0.000000 -1.158658 0.264136 0.000000 -1.995440 1.191099 0.000000 -2.397316 0.591928 0.000000 -0.014936 -3.115047 0.000000 -1.034682 -2.661603 0.000000 -0.904005 -0.722425 0.000000 -0.464164 -0.489189 0.000000 -0.248031 0.220750 0.000000 -0.083991 0.429429 0.000000 
0.000000 0.470672 0.000000 0.201110 0.251723 0.000000 0.376573 -0.049556 0.000000 0.677101 -0.698141 0.000000 0.684923 -1.178582 0.000000 1.280200 -2.005538 0.000000 -0.232939 -3.261800 0.000000 0.980158 -0.885321 0.000000 2.269240 1.538624 0.000000 1.640808 1.193018 0.000000 1.209511 0.961219 0.000000 0.507911 0.815752 0.000000 0.192221 0.873816 0.000000 0.027115 0.894213 0.000000 -0.041689 0.720271 0.000000 -0.024102 0.434296 0.000000 0.000000 0.321343 0.000000 0.024102 0.434296 0.000000 0.041689 0.720271 0.000000 -0.027115 0.894213 0.000000 -0.192221 0.873816 0.000000 -0.507911 0.815752 0.000000 -1.209511 0.961219 0.000000 -1.640808 1.193018 0.000000 -2.269240 1.538624 0.000000 -0.980158 -0.885321 0.000000 0.232939 -3.261800 0.000000 -1.280200 -2.005538 0.000000 -0.684923 -1.178582 0.000000 -0.677101 -0.698141 0.000000 -0.376573 -0.049556 0.000000 -0.201110 0.251723 0.000000 
0.000000 0.257051 0.000000 0.230382 0.052857 0.000000 0.407545 -0.255241 0.000000 0.612460 -0.797539 0.000000 0.589177 -1.325524 0.000000 0.757652 -1.743741 0.000000 0.330316 -2.815005 0.000000 -0.270307 -1.910251 0.000000 1.482085 0.530449 0.000000 1.740022 1.323865 0.000000 1.762097 1.629029 0.000000 1.514420 1.812741 0.000000 1.088062 1.428298 0.000000 0.762961 1.018090 0.000000 0.452926 0.606128 0.000000 0.232304 0.243979 0.000000 0.000000 0.146678 0.000000 -0.232304 0.243979 0.000000 -0.452926 0.606128 0.000000 -0.762961 1.018090 0.000000 -1.088062 1.428298 0.000000 -1.514420 1.812741 0.000000 -1.762097 1.629029 0.000000 -1.740022 1.323865 0.000000 -1.482085 0.530449 0.000000 0.270307 -1.910251 0.000000 -0.330316 -2.815005 0.000000 -0.757652 -1.743741 0.000000 -0.589177 -1.325524 0.000000 -0.612460 -0.797539 0.000000 -0.407545 -0.255241 0.000000 -0.230382 0.052857 0.000000 
0.000000 0.009907 0.000000 0.211677 -0.155823 0.000000 0.343254 -0.431633 0.000000 0.466747 -0.879773 0.000000 0.386842 -1.323774 0.000000 0.334633 -1.746677 0.000000 0.141994 -2.233842 0.000000 -0.590357 -2.037091 0.000000 0.228144 -0.471705 0.000000 1.070388 0.913007 0.000000 1.281781 1.186821 0.000000 1.611995 1.489786 0.000000 1.814589 1.625274 0.000000 1.833958 1.529349 0.000000 1.409679 1.250929 0.000000 0.802444 0.887222 0.000000 -0.000000 0.785951 0.000000 -0.802444 0.887222 0.000000 -1.409679 1.250929 0.000000 -1.833958 1.529349 0.000000 -1.814589 1.625274 0.000000 -1.611995 1.489786 0.000000 -1.281781 1.186821 0.000000 -1.070388 0.913007 0.000000 -0.228144 -0.471705 0.000000 0.590357 -2.037091 0.000000 -0.141994 -2.233842 0.000000 -0.334633 -1.746677 0.000000 -0.386842 -1.323774 0.000000 -0.466747 -0.879773 0.000000 -0.343254 -0.431633 0.000000 -0.211677 -0.155823 0.000000 
0.000000 -0.166302 0.000000 0.154258 -0.290397 0.000000 0.231839 -0.510311 0.000000 0.265804 -0.841127 0.000000 0.132080 -1.193410 0.000000 -0.040695 -1.498893 0.000000 -0.390369 -1.890016 0.000000 -0.819011 -1.996401 0.000000 -0.801961 -1.130296 0.000000 0.227098 0.270228 0.000000 0.754953 1.087423 0.000000 0.681383 1.279932 0.000000 0.669713 1.206335 0.000000 0.757709 1.423000 0.000000 0.624046 1.637642 0.000000 0.452065 1.653658 0.000000 -0.000000 1.751566 0.000000 -0.452065 1.653658 0.000000 -0.624046 1.637642 0.000000 -0.757709 1.423000 0.000000 -0.669713 1.206335 0.000000 -0.681383 1.279932 0.000000 -0.754953 1.087423 0.000000 -0.227098 0.270228 0.000000 0.801961 -1.130296 0.000000 0.819011 -1.996401 0.000000 0.390369 -1.890016 0.000000 0.040695 -1.498893 0.000000 -0.132080 -1.193410 0.000000 -0.265804 -0.841127 0.000000 -0.231839 -0.510311 0.000000 -0.154258 -0.290397 0.000000 
0.000000 -0.298609 0.000000 0.097593 -0.387662 0.000000 0.129547 -0.543179 0.000000 0.115913 -0.780014 0.000000 -0.023124 -1.017276 0.000000 -0.222758 -1.224228 0.000000 -0.533239 -1.455525 0.000000 -1.008563 -1.625499 0.000000 -1.391219 -1.517814 0.000000 -1.070472 -0.643907 0.000000 -0.245099 0.732536 0.000000 0.404667 1.575027 0.000000 0.492827 1.548949 0.000000 0.313846 1.575015 0.000000 0.102448 1.556572 0.000000 0.041977 1.511268 0.000000 -0.000000 1.690082 0.000000 -0.041977 1.511268 0.000000 -0.102448 1.556572 0.000000 -0.313846 1.575015 0.000000 -0.492827 1.548949 0.000000 -0.404667 1.575027 0.000000 0.245099 0.732536 0.000000 1.070472 -0.643907 0.000000 1.391219 -1.517814 0.000000 1.008563 -1.625499 0.000000 0.533239 -1.455525 0.000000 0.222758 -1.224228 0.000000 0.023124 -1.017276 0.000000 -0.115913 -0.780014 0.000000 -0.129547 -0.543179 0.000000 -0.097593 -0.387662 0.000000 
-0.000000 -0.361487 0.000000 0.040289 -0.419943 0.000000 0.030665 -0.528631 0.000000 -0.015970 -0.688457 0.000000 -0.156488 -0.854738 0.000000 -0.334257 -0.988778 0.000000 -0.596093 -1.104211 0.000000 -0.939902 -1.138420 0.000000 -1.378346 -1.068387 0.000000 -1.701667 -0.875892 0.000000 -1.496428 -0.387716 0.000000 -0.782686 0.542006 0.000000 -0.138300 1.297156 0.000000 0.196377 1.813379 0.000000 0.282873 1.909511 0.000000 0.085343 1.756106 0.000000 0.000000 1.835520 0.000000 -0.085343 1.756106 0.000000 -0.282873 1.909511 0.000000 -0.196377 1.813379 0.000000 0.138300 1.297156 0.000000 0.782686 0.542006 0.000000 1.496428 -0.387716 0.000000 1.701667 -0.875892 0.000000 1.378346 -1.068387 0.000000 0.939902 -1.138420 0.000000 0.596093 -1.104211 0.000000 0.334257 -0.988778 0.000000 0.156488 -0.854738 0.000000 0.015970 -0.688457 0.000000 -0.030665 -0.528631 0.000000 -0.040289 -0.419943 0.000000 
-0.000000 -0.379187 0.000000 -0.001386 -0.418327 0.000000 -0.037153 -0.486920 0.000000 -0.101478 -0.592861 0.000000 -0.227995 -0.698989 0.000000 -0.386406 -0.784624 0.000000 -0.588807 -0.849879 0.000000 -0.820172 -0.843246 0.000000 -1.058961 -0.756049 0.000000 -1.272579 -0.525824 0.000000 -1.440062 -0.186445 0.000000 -1.347933 0.216899 0.000000 -0.908921 0.569886 0.000000 -0.420654 1.153842 0.000000 0.042185 1.667607 0.000000 0.030526 1.794141 0.000000 0.000000 1.860767 0.000000 -0.030526 1.794141 0.000000 -0.042185 1.667607 0.000000 0.420654 1.153842 0.000000 0.908921 0.569886 0.000000 1.347933 0.216899 0.000000 1.440062 -0.186445 0.000000 1.272579 -0.525824 0.000000 1.058961 -0.756049 0.000000 0.820172 -0.843246 0.000000 0.588807 -0.849879 0.000000 0.386406 -0.784624 0.000000 0.227995 -0.698989 0.000000 0.101478 -0.592861 0.000000 0.037153 -0.486920 0.000000 0.001386 -0.418327 0.000000 
-0.000000 -0.358715 0.000000 -0.034437 -0.382791 0.000000 -0.092308 -0.428539 0.000000 -0.167908 -0.497615 0.000000 -0.287676 -0.569811 0.000000 -0.424267 -0.627966 0.000000 -0.592671 -0.670445 0.000000 -0.766638 -0.668267 0.000000 -0.930446 -0.615980 0.000000 -1.045025 -0.494791 0.000000 -1.054712 -0.312362 0.000000 -0.940652 0.010865 0.000000 -0.716556 0.369878 0.000000 -0.475206 0.862273 0.000000 -0.064514 1.458332 0.000000 0.048896 1.798291 0.000000 0.000000 1.896571 0.000000 -0.048896 1.798291 0.000000 0.064514 1.458332 0.000000 0.475206 0.862273 0.000000 0.716556 0.369878 0.000000 0.940652 0.010865 0.000000 1.054712 -0.312362 0.000000 1.045025 -0.494791 0.000000 0.930446 -0.615980 0.000000 0.766638 -0.668267 0.000000 0.592671 -0.670445 0.000000 0.424267 -0.627966 0.000000 0.287676 -0.569811 0.000000 0.167908 -0.497615 0.000000 0.092308 -0.428539 0.000000 0.034437 -0.382791 0.000000 
-0.000000 -0.310314 0.000000 -0.055789 -0.326019 0.000000 -0.126369 -0.353449 0.000000 -0.209723 -0.397493 0.000000 -0.320866 -0.442630 0.000000 -0.445082 -0.479628 0.000000 -0.586516 -0.507508 0.000000 -0.728365 -0.505471 0.000000 -0.856240 -0.477663 0.000000 -0.944451 -0.401559 0.000000 -0.975434 -0.290818 0.000000 -0.932180 -0.121257 0.000000 -0.766813 0.104440 0.000000 -0.573372 0.501799 0.000000 -0.256660 1.143505 0.000000 -0.024294 1.729628 0.000000 0.000000 1.958559 0.000000 0.024294 1.729628 0.000000 0.256660 1.143505 0.000000 0.573372 0.501799 0.000000 0.766813 0.104440 0.000000 0.932180 -0.121257 0.000000 0.975434 -0.290818 0.000000 0.944451 -0.401559 0.000000 0.856240 -0.477663 0.000000 0.728365 -0.505471 0.000000 0.586516 -0.507508 0.000000 0.445082 -0.479628 0.000000 0.320866 -0.442630 0.000000 0.209723 -0.397493 0.000000 0.126369 -0.353449 0.000000 0.055789 -0.326019 0.000000 
-0.000000 -0.247137 0.000000 -0.070517 -0.256422 0.000000 -0.151153 -0.274605 0.000000 -0.239160 -0.303118 0.000000 -0.347208 -0.334452 0.000000 -0.462066 -0.362316 0.000000 -0.589810 -0.387162 0.000000 -0.715058 -0.398543 0.000000 -0.828859 -0.399895 0.000000 -0.915446 -0.375597 0.000000 -0.954998 -0.324633 0.000000 -0.949866 -0.197756 0.000000 -0.886575 0.011070 0.000000 -0.791058 0.352121 0.000000 -0.582573 0.909254 0.000000 -0.260511 1.541630 0.000000 0.000000 1.847983 0.000000 0.260511 1.541630 0.000000 0.582573 0.909254 0.000000 0.791058 0.352121 0.000000 0.886575 0.011070 0.000000 0.949866 -0.197756 0.000000 0.954998 -0.324633 0.000000 0.915446 -0.375597 0.000000 0.828859 -0.399895 0.000000 0.715058 -0.398543 0.000000 0.589810 -0.387162 0.000000 0.462066 -0.362316 0.000000 0.347208 -0.334452 0.000000 0.239160 -0.303118 0.000000 0.151153 -0.274605 0.000000 0.070517 -0.256422 0.000000 
-0.000000 -0.169280 0.000000 -0.080063 -0.174866 0.000000 -0.166949 -0.184806 0.000000 -0.260198 -0.201438 0.000000 -0.367520 -0.219724 0.000000 -0.482612 -0.237026 0.000000 -0.608198 -0.254516 0.000000 -0.737479 -0.266422 0.000000 -0.864965 -0.277275 0.000000 -0.985387 -0.275420 0.000000 -1.084726 -0.256398 0.000000 -1.161385 -0.189680 0.000000 -1.171953 -0.054367 0.000000 -1.117689 0.197798 0.000000 -0.924555 0.612958 0.000000 -0.530589 1.147054 0.000000 0.000000 1.437537 0.000000 0.530589 1.147054 0.000000 0.924555 0.612958 0.000000 1.117689 0.197798 0.000000 1.171953 -0.054367 0.000000 1.161385 -0.189680 0.000000 1.084726 -0.256398 0.000000 0.985387 -0.275420 0.000000 0.864965 -0.277275 0.000000 0.737479 -0.266422 0.000000 0.608198 -0.254516 0.000000 0.482612 -0.237026 0.000000 0.367520 -0.219724 0.000000 0.260198 -0.201438 0.000000 0.166949 -0.184806 0.000000 0.080063 -0.174866 0.000000 
-0.000000 -0.087012 0.000000 -0.084640 -0.089472 0.000000 -0.174866 -0.094470 0.000000 -0.269446 -0.102547 0.000000 -0.376304 -0.112039 0.000000 -0.489170 -0.121638 0.000000 -0.613330 -0.132294 0.000000 -0.743685 -0.141776 0.000000 -0.879752 -0.151987 0.000000 -1.020960 -0.155837 0.000000 -1.155172 -0.148634 0.000000 -1.277359 -0.110529 0.000000 -1.344852 -0.032627 0.000000 -1.331726 0.104723 0.000000 -1.147054 0.322154 0.000000 -0.718768 0.617076 0.000000 0.000000 0.786805 0.000000 0.718768 0.617076 0.000000 1.147054 0.322154 0.000000 1.331726 0.104723 0.000000 1.344852 -0.032627 0.000000 1.277359 -0.110529 0.000000 1.155172 -0.148634 0.000000 1.020960 -0.155837 0.000000 0.879752 -0.151987 0.000000 0.743685 -0.141776 0.000000 0.613330 -0.132294 0.000000 0.489170 -0.121638 0.000000 0.376304 -0.112039 0.000000 0.269446 -0.102547 0.000000 0.174866 -0.094470 0.000000 0.084640 -0.089472 0.000000 
