# vtk DataFile Version 2.0
Comment goes here
ASCII

DATASET STRUCTURED_POINTS
FIELD FieldData 1
TIME 1 1 double
0.82000000
DIMENSIONS    32   32   1

ORIGIN    0.000   0.000   0.000
SPACING   0.03125 0.03125   1.000

POINT_DATA   1024
VECTORS u double

0.000000 -0.000000 0.000000 0.045333 -0.000000 0.000000 0.078667 -0.000000 0.000000 0.090109 -0.000000 0.000000 0.070814 -0.000000 0.000000 0.012445 -0.000000 0.000000 -0.085405 -0.000000 0.000000 -0.229440 -0.000000 0.000000 -0.398698 -0.000000 0.000000 -0.597350 -0.000000 0.000000 -0.780008 -0.000000 0.000000 -0.954797 0.000000 0.000000 -1.045717 0.000000 0.000000 -1.046411 0.000000 0.000000 -0.866386 0.000000 0.000000 -0.499752 0.000000 0.000000 0.000000 0.000000 0.000000 0.499752 -0.000000 0.000000 0.866386 -0.000000 0.000000 1.046411 -0.000000 0.000000 1.045717 -0.000000 0.000000 0.954797 0.000000 0.000000 0.780008 0.000000 0.000000 0.597350 0.000000 0.000000 0.398698 0.000000 0.000000 0.229440 0.000000 0.000000 0.085405 0.000000 0.000000 -0.012445 0.000000 0.000000 -0.070814 0.000000 0.000000 -0.090109 0.000000 0.000000 -0.078667 0.000000 0.000000 -0.045333 0.000000 0.000000 
-0.000000 -0.045333 0.000000 0.048956 -0.039333 0.000000 0.085533 -0.022388 0.000000 0.100865 0.003926 0.000000 0.085691 0.038832 0.000000 0.034090 0.078109 0.000000 -0.055295 0.120943 0.000000 -0.188009 0.156647 0.000000 -0.344797 0.183955 0.000000 -0.531470 0.190655 0.000000 -0.700596 0.178724 0.000000 -0.868909 0.132854 0.000000 -0.949884 0.045807 0.000000 -0.961365 -0.089666 0.000000 -0.781426 -0.273329 0.000000 -0.443610 -0.433193 0.000000 0.000000 -0.499752 0.000000 0.443610 -0.433193 0.000000 0.781426 -0.273329 0.000000 0.961365 -0.089666 0.000000 0.949884 0.045807 0.000000 0.868909 0.132854 0.000000 0.700596 0.178724 0.000000 0.531470 0.190655 0.000000 0.344797 0.183955 0.000000 0.188009 0.156647 0.000000 0.055295 0.120943 0.000000 -0.034090 0.078109 0.000000 -0.085691 0.038832 0.000000 -0.100865 0.003926 0.000000 -0.085533 -0.022388 0.000000 -0.048956 -0.039333 0.000000 
-0.000000 -0.097913 0.000000 0.066542 -0.085533 0.000000 0.120439 -0.051908 0.000000 0.154481 -0.000158 0.000000 0.161248 0.066774 0.000000 0.139324 0.140986 0.000000 0.088846 0.222099 0.000000 0.006569 0.289502 0.000000 -0.092258 0.343461 0.000000 -0.215134 0.355799 0.000000 -0.324686 0.337439 0.000000 -0.445506 0.249288 0.000000 -0.513160 0.092456 0.000000 -0.561630 -0.168458 0.000000 -0.504361 -0.517755 0.000000 -0.315086 -0.781426 0.000000 0.000000 -0.887220 0.000000 0.315086 -0.781426 0.000000 0.504361 -0.517755 0.000000 0.561630 -0.168458 0.000000 0.513160 0.092456 0.000000 0.445506 0.249288 0.000000 0.324686 0.337439 0.000000 0.215134 0.355799 0.000000 0.092258 0.343461 0.000000 -0.006569 0.289502 0.000000 -0.088846 0.222099 0.000000 -0.139324 0.140986 0.000000 -0.161248 0.066774 0.000000 -0.154481 -0.000158 0.000000 -0.120439 -0.051908 0.000000 -0.066542 -0.085533 0.000000 
-0.000000 -0.178417 0.000000 0.089686 -0.159772 0.000000 0.164583 -0.110327 0.000000 0.220318 -0.036883 0.000000 0.248857 0.053989 0.000000 0.257826 0.150511 0.000000 0.245714 0.253697 0.000000 0.216514 0.337750 0.000000 0.176393 0.405658 0.000000 0.116412 0.423084 0.000000 0.058701 0.409096 0.000000 -0.038296 0.321328 0.000000 -0.107654 0.161931 0.000000 -0.220199 -0.098464 0.000000 -0.196121 -0.519873 0.000000 -0.113918 -0.937554 0.000000 0.000000 -1.129925 0.000000 0.113918 -0.937554 0.000000 0.196121 -0.519873 0.000000 0.220199 -0.098464 0.000000 0.107654 0.161931 0.000000 0.038296 0.321328 0.000000 -0.058701 0.409096 0.000000 -0.116412 0.423084 0.000000 -0.176393 0.405658 0.000000 -0.216514 0.337750 0.000000 -0.245714 0.253697 0.000000 -0.257826 0.150511 0.000000 -0.248857 0.053989 0.000000 -0.220318 -0.036883 0.000000 -0.164583 -0.110327 0.000000 -0.089686 -0.159772 0.000000 
-0.000000 -0.277285 0.000000 0.121209 -0.250116 0.000000 0.224251 -0.182540 0.000000 0.306263 -0.084432 0.000000 0.359593 0.029266 0.000000 0.400428 0.144129 0.000000 0.429316 0.263412 0.000000 0.457690 0.358824 0.000000 0.488999 0.443563 0.000000 0.514202 0.473491 0.000000 0.544576 0.492148 0.000000 0.525387 0.415643 0.000000 0.543793 0.274359 0.000000 0.428765 -0.079992 0.000000 0.201347 -0.624036 0.000000 0.012881 -0.977547 0.000000 0.000000 -1.115056 0.000000 -0.012881 -0.977547 0.000000 -0.201347 -0.624036 0.000000 -0.428765 -0.079992 0.000000 -0.543793 0.274359 0.000000 -0.525387 0.415643 0.000000 -0.544576 0.492148 0.000000 -0.514202 0.473491 0.000000 -0.488999 0.443563 0.000000 -0.457690 0.358824 0.000000 -0.429316 0.263412 0.000000 -0.400428 0.144129 0.000000 -0.359593 0.029266 0.000000 -0.306263 -0.084432 0.000000 -0.224251 -0.182540 0.000000 -0.121209 -0.250116 0.000000 
-0.000000 -0.420835 0.000000 0.154354 -0.384023 0.000000 0.284803 -0.295380 0.000000 0.390934 -0.172226 0.000000 0.460754 -0.040176 0.000000 0.523982 0.080789 0.000000 0.577198 0.196435 0.000000 0.648197 0.278067 0.000000 0.729027 0.349145 0.000000 0.824644 0.367506 0.000000 0.900773 0.397911 0.000000 0.903718 0.322111 0.000000 0.899439 0.258553 0.000000 0.783866 0.243981 0.000000 0.956533 -0.103989 0.000000 0.814649 -0.736206 0.000000 0.000000 -1.104162 0.000000 -0.814649 -0.736206 0.000000 -0.956533 -0.103989 0.000000 -0.783866 0.243981 0.000000 -0.899439 0.258553 0.000000 -0.903718 0.322111 0.000000 -0.900773 0.397911 0.000000 -0.824644 0.367506 0.000000 -0.729027 0.349145 0.000000 -0.648197 0.278067 0.000000 -0.577198 0.196435 0.000000 -0.523982 0.080789 0.000000 -0.460754 -0.040176 0.000000 -0.390934 -0.172226 0.000000 -0.284803 -0.295380 0.000000 -0.154354 -0.384023 0.000000 
-0.000000 -0.585994 0.000000 0.185579 -0.534919 0.000000 0.341149 -0.419119 0.000000 0.466818 -0.260383 0.000000 0.546530 -0.103782 0.000000 0.620348 0.027684 0.000000 0.685135 0.139196 0.000000 0.780634 0.206994 0.000000 0.903306 0.267116 0.000000 1.073553 0.301745 0.000000 1.222539 0.413073 0.000000 1.406616 0.416977 0.000000 1.946847 0.394211 0.000000 2.605057 -0.137086 0.000000 2.614497 -0.654819 0.000000 1.471246 -0.021014 0.000000 0.000000 0.514241 0.000000 -1.471246 -0.021014 0.000000 -2.614497 -0.654819 0.000000 -2.605057 -0.137086 0.000000 -1.946847 0.394211 0.000000 -1.406616 0.416977 0.000000 -1.222539 0.413073 0.000000 -1.073553 0.301745 0.000000 -0.903306 0.267116 0.000000 -0.780634 0.206994 0.000000 -0.685135 0.139196 0.000000 -0.620348 0.027684 0.000000 -0.546530 -0.103782 0.000000 -0.466818 -0.260383 0.000000 -0.341149 -0.419119 0.000000 -0.185579 -0.534919 0.000000 
-0.000000 -0.791992 0.000000 0.208928 -0.725172 0.000000 0.381695 -0.576620 0.000000 0.521557 -0.377607 0.000000 0.602369 -0.193706 0.000000 0.680491 -0.057815 0.000000 0.745534 0.036149 0.000000 0.859259 0.059896 0.000000 1.029074 0.056226 0.000000 1.314249 0.048273 0.000000 1.580080 0.064848 0.000000 2.247572 -0.402197 0.000000 2.688771 -0.939888 0.000000 2.164220 -0.423669 0.000000 0.816271 1.029823 0.000000 -0.051802 1.878290 0.000000 0.000000 1.838329 0.000000 0.051802 1.878290 0.000000 -0.816271 1.029823 0.000000 -2.164220 -0.423669 0.000000 -2.688771 -0.939888 0.000000 -2.247572 -0.402197 0.000000 -1.580080 0.064848 0.000000 -1.314249 0.048273 0.000000 -1.029074 0.056226 0.000000 -0.859259 0.059896 0.000000 -0.745534 0.036149 0.000000 -0.680491 -0.057815 0.000000 -0.602369 -0.193706 0.000000 -0.521557 -0.377607 0.000000 -0.381695 -0.576620 0.000000 -0.208928 -0.725172 0.000000 
-0.000000 -1.003850 0.000000 0.214762 -0.916614 0.000000 0.389983 -0.731748 0.000000 0.530678 -0.481057 0.000000 0.599957 -0.262716 0.000000 0.666036 -0.115482 0.000000 0.709678 -0.039572 0.000000 0.801642 -0.076545 0.000000 1.008479 -0.187874 0.000000 1.243424 -0.249261 0.000000 1.257287 -0.520250 0.000000 1.162500 -0.691714 0.000000 0.140044 0.477563 0.000000 -1.316703 1.735415 0.000000 -1.408917 1.561203 0.000000 -0.660422 0.795257 0.000000 0.000000 0.410637 0.000000 0.660422 0.795257 0.000000 1.408917 1.561203 0.000000 1.316703 1.735415 0.000000 -0.140044 0.477563 0.000000 -1.162500 -0.691714 0.000000 -1.257287 -0.520250 0.000000 -1.243424 -0.249261 0.000000 -1.008479 -0.187874 0.000000 -0.801642 -0.076545 0.000000 -0.709678 -0.039572 0.000000 -0.666036 -0.115482 0.000000 -0.599957 -0.262716 0.000000 -0.530678 -0.481057 0.000000 -0.389983 -0.731748 0.000000 -0.214762 -0.916614 0.000000 
0.000000 -1.221516 0.000000 0.199614 -1.115154 0.000000 0.360359 -0.892536 0.000000 0.492554 -0.587581 0.000000 0.539845 -0.329065 0.000000 0.590406 -0.167536 0.000000 0.594367 -0.099457 0.000000 0.639408 -0.238905 0.000000 0.859803 -0.385555 0.000000 0.543096 -0.200535 0.000000 0.208391 0.145772 0.000000 -0.362773 0.715046 0.000000 -1.038553 1.539314 0.000000 -0.827552 1.125293 0.000000 -0.011623 0.373542 0.000000 0.204961 0.469373 0.000000 -0.000000 0.517485 0.000000 -0.204961 0.469373 0.000000 0.011623 0.373542 0.000000 0.827552 1.125293 0.000000 1.038553 1.539314 0.000000 0.362773 0.715046 0.000000 -0.208391 0.145772 0.000000 -0.543096 -0.200535 0.000000 -0.859803 -0.385555 0.000000 -0.639408 -0.238905 0.000000 -0.594367 -0.099457 0.000000 -0.590406 -0.167536 0.000000 -0.539845 -0.329065 0.000000 -0.492554 -0.587581 0.000000 -0.360359 -0.892536 0.000000 -0.199614 -1.115154 0.000000 
0.000000 -1.403079 0.000000 0.154256 -1.276972 0.000000 0.277876 -1.024688 0.000000 0.384623 -0.660544 0.000000 0.397911 -0.360567 0.000000 0.429388 -0.170003 0.000000 0.351447 -0.088574 0.000000 0.370411 -0.341981 0.000000 0.268986 -0.091562 0.000000 -0.600919 0.402151 0.000000 -0.359451 0.385619 0.000000 -0.509867 0.555230 0.000000 -0.592587 0.942343 0.000000 0.164758 0.708484 0.000000 0.203040 0.528690 0.000000 0.138868 0.783634 0.000000 -0.000000 0.820559 0.000000 -0.138868 0.783634 0.000000 -0.203040 0.528690 0.000000 -0.164758 0.708484 0.000000 0.592587 0.942343 0.000000 0.509867 0.555230 0.000000 0.359451 0.385619 0.000000 0.600919 0.402151 0.000000 -0.268986 -0.091562 0.000000 -0.370411 -0.341981 0.000000 -0.351447 -0.088574 0.000000 -0.429388 -0.170003 0.000000 -0.397911 -0.360567 0.000000 -0.384623 -0.660544 0.000000 -0.277876 -1.024688 0.000000 -0.154256 -1.276972 0.000000 
0.000000 -1.530027 0.000000 0.080437 -1.393031 0.000000 0.146606 -1.122902 0.000000 0.218676 -0.707616 0.000000 0.195558 -0.373830 0.000000 0.227537 -0.121072 0.000000 0.020860 -0.040479 0.000000 0.161279 -0.156444 0.000000 -0.645235 0.585774 0.000000 -0.900265 0.427902 0.000000 -0.132018 0.054719 0.000000 -0.750272 0.948182 0.000000 -0.665438 0.864689 0.000000 -0.257641 0.329666 0.000000 -0.211791 0.399432 0.000000 -0.088043 0.672413 0.000000 -0.000000 0.795221 0.000000 0.088043 0.672413 0.000000 0.211791 0.399432 0.000000 0.257641 0.329666 0.000000 0.665438 0.864689 0.000000 0.750272 0.948182 0.000000 0.132018 0.054719 0.000000 0.900265 0.427902 0.000000 0.645235 0.585774 0.000000 -0.161279 -0.156444 0.000000 -0.020860 -0.040479 0.000000 -0.227537 -0.121072 0.000000 -0.195558 -0.373830 0.000000 -0.218676 -0.707616 0.000000 -0.146606 -1.122902 0.000000 -0.080437 -1.393031 0.000000 
0.000000 -1.563952 0.000000 -0.028377 -1.423578 0.000000 -0.045025 -1.162928 0.000000 -0.035454 -0.709497 0.000000 -0.079326 -0.369428 0.000000 -0.069034 0.004696 0.000000 -0.324479 -0.022316 0.000000 -0.206484 0.324114 0.000000 -1.348267 0.969982 0.000000 -0.509967 -0.111066 0.000000 -0.345125 0.235626 0.000000 -1.134310 1.088651 0.000000 -0.384494 0.449712 0.000000 -0.427091 0.254838 0.000000 -0.299039 0.359091 0.000000 -0.205958 0.571843 0.000000 -0.000000 0.644474 0.000000 0.205958 0.571843 0.000000 0.299039 0.359091 0.000000 0.427091 0.254838 0.000000 0.384494 0.449712 0.000000 1.134310 1.088651 0.000000 0.345125 0.235626 0.000000 0.509967 -0.111066 0.000000 1.348267 0.969982 0.000000 0.206484 0.324114 0.000000 0.324479 -0.022316 0.000000 0.069034 0.004696 0.000000 0.079326 -0.369428 0.000000 0.035454 -0.709497 0.000000 0.045025 -1.162928 0.000000 0.028377 -1.423578 0.000000 
0.000000 -1.473273 0.000000 -0.175202 -1.348005 0.000000 -0.303177 -1.115825 0.000000 -0.390485 -0.673315 0.000000 -0.429335 -0.340250 0.000000 -0.489187 0.124081 0.000000 -0.631980 0.096971 0.000000 -0.825144 0.867343 0.000000 -1.258109 0.889257 0.000000 -0.371383 -0.575240 0.000000 -0.775990 0.679063 0.000000 -0.951004 0.987551 0.000000 -0.432159 0.157470 0.000000 -0.495076 0.244211 0.000000 -0.340910 0.178298 0.000000 -0.215478 0.373374 0.000000 -0.000000 0.383305 0.000000 0.215478 0.373374 0.000000 0.340910 0.178298 0.000000 0.495076 0.244211 0.000000 0.432159 0.157470 0.000000 0.951004 0.987551 0.000000 0.775990 0.679063 0.000000 0.371383 -0.575240 0.000000 1.258109 0.889257 0.000000 0.825144 0.867343 0.000000 0.631980 0.096971 0.000000 0.489187 0.124081 0.000000 0.429335 -0.340250 0.000000 0.390485 -0.673315 0.000000 0.303177 -1.115825 0.000000 0.175202 -1.348005 0.000000 
-0.000000 -1.213547 0.000000 -0.368061 -1.120401 0.000000 -0.664959 -0.947646 0.000000 -0.916158 -0.583339 0.000000 -1.017252 -0.270726 0.000000 -1.180497 0.207341 0.000000 -1.135867 0.313641 0.000000 -1.403667 0.950242 0.000000 -0.761436 0.516221 0.000000 -0.656650 -0.593184 0.000000 -1.082674 0.815248 0.000000 -0.524770 0.744820 0.000000 -0.470289 -0.006217 0.000000 -0.331143 0.163588 0.000000 -0.284422 0.079493 0.000000 -0.155601 0.230933 0.000000 -0.000000 0.213519 0.000000 0.155601 0.230933 0.000000 0.284422 0.079493 0.000000 0.331143 0.163588 0.000000 0.470289 -0.006217 0.000000 0.524770 0.744820 0.000000 1.082674 0.815248 0.000000 0.656650 -0.593184 0.000000 0.761436 0.516221 0.000000 1.403667 0.950242 0.000000 1.135867 0.313641 0.000000 1.180497 0.207341 0.000000 1.017252 -0.270726 0.000000 0.916158 -0.583339 0.000000 0.664959 -0.947646 0.000000 0.368061 -1.120401 0.000000 
-0.000000 -0.737152 0.000000 -0.606773 -0.683046 0.000000 -1.120401 -0.567728 0.000000 -1.554419 -0.321023 0.000000 -1.703740 -0.075911 0.000000 -1.825145 0.242696 0.000000 -1.496398 0.320141 0.000000 -1.511504 0.492913 0.000000 -0.546157 0.142239 0.000000 -0.995284 -0.254001 0.000000 -1.139341 0.547183 0.000000 -0.180036 0.375166 0.000000 -0.394521 -0.036156 0.000000 -0.186253 0.058344 0.000000 -0.230933 0.002756 0.000000 -0.106759 0.088952 0.000000 0.000000 0.072103 0.000000 0.106759 0.088952 0.000000 0.230933 0.002756 0.000000 0.186253 0.058344 0.000000 0.394521 -0.036156 0.000000 0.180036 0.375166 0.000000 1.139341 0.547183 0.000000 0.995284 -0.254001 0.000000 0.546157 0.142239 0.000000 1.511504 0.492913 0.000000 1.496398 0.320141 0.000000 1.825145 0.242696 0.000000 1.703740 -0.075911 0.000000 1.554419 -0.321023 0.000000 1.120401 -0.567728 0.000000 0.606773 -0.683046 0.000000 
-0.000000 0.000000 0.000000 -0.737152 0.000000 0.000000 -1.366092 -0.000000 0.000000 -1.872608 -0.000000 0.000000 -2.008137 -0.000000 0.000000 -2.024430 -0.000000 0.000000 -1.522745 -0.000000 0.000000 -1.384148 0.000000 0.000000 -0.536920 0.000000 0.000000 -1.099669 -0.000000 0.000000 -1.044923 -0.000000 0.000000 -0.005303 -0.000000 0.000000 -0.294591 -0.000000 0.000000 -0.077616 -0.000000 0.000000 -0.177904 -0.000000 0.000000 -0.072103 -0.000000 0.000000 -0.000000 -0.000000 0.000000 0.072103 0.000000 0.000000 0.177904 -0.000000 0.000000 0.077616 0.000000 0.000000 0.294591 -0.000000 0.000000 0.005303 0.000000 0.000000 1.044923 -0.000000 0.000000 1.099669 0.000000 0.000000 0.536920 0.000000 0.000000 1.384148 0.000000 0.000000 1.522745 0.000000 0.000000 2.024430 0.000000 0.000000 2.008137 -0.000000 0.000000 1.872608 -0.000000 0.000000 1.366092 -0.000000 0.000000 0.737152 -0.000000 0.000000 
-0.000000 0.737152 0.000000 -0.606773 0.683046 0.000000 -1.120401 0.567728 0.000000 -1.554419 0.321023 0.000000 -1.703740 0.075911 0.000000 -1.825145 -0.242696 0.000000 -1.496398 -0.320141 0.000000 -1.511504 -0.492913 0.000000 -0.546157 -0.142239 0.000000 -0.995284 0.254001 0.000000 -1.139341 -0.547183 0.000000 -0.180036 -0.375166 0.000000 -0.394521 0.036156 0.000000 -0.186253 -0.058344 0.000000 -0.230933 -0.002756 0.000000 -0.106759 -0.088952 0.000000 0.000000 -0.072103 0.000000 0.106759 -0.088952 0.000000 0.230933 -0.002756 0.000000 0.186253 -0.058344 0.000000 0.394521 0.036156 0.000000 0.180036 -0.375166 0.000000 1.139341 -0.547183 0.000000 0.995284 0.254001 0.000000 0.546157 -0.142239 0.000000 1.511504 -0.492913 0.000000 1.496398 -0.320141 0.000000 1.825145 -0.242696 0.000000 1.703740 0.075911 0.000000 1.554419 0.321023 0.000000 1.120401 0.567728 0.000000 0.606773 0.683046 0.000000 
-0.000000 1.213547 0.000000 -0.368061 1.120401 0.000000 -0.664959 0.947646 0.000000 -0.916158 0.583339 0.000000 -1.017252 0.270726 0.000000 -1.180497 -0.207341 0.000000 -1.135867 -0.313641 0.000000 -1.403667 -0.950242 0.000000 -0.761436 -0.516221 0.000000 -0.656650 0.593184 0.000000 -1.082674 -0.815248 0.000000 -0.524770 -0.744820 0.000000 -0.470289 0.006217 0.000000 -0.331143 -0.163588 0.000000 -0.284422 -0.079493 0.000000 -0.155601 -0.230933 0.000000 0.000000 -0.213519 0.000000 0.155601 -0.230933 0.000000 0.284422 -0.079493 0.000000 0.331143 -0.163588 0.000000 0.470289 0.006217 0.000000 0.524770 -0.744820 0.000000 1.082674 -0.815248 0.000000 0.656650 0.593184 0.000000 0.761436 -0.516221 0.000000 1.403667 -0.950242 0.000000 1.135867 -0.313641 0.000000 1.180497 -0.207341 0.000000 1.017252 0.270726 0.000000 0.916158 0.583339 0.000000 0.664959 0.947646 0.000000 0.368061 1.120401 0.000000 
-0.000000 1.473273 0.000000 -0.175202 1.348005 0.000000 -0.303177 1.115825 0.000000 -0.390485 0.673315 0.000000 -0.429335 0.340250 0.000000 -0.489187 -0.124081 0.000000 -0.631980 -0.096971 0.000000 -0.825144 -0.867343 0.000000 -1.258109 -0.889257 0.000000 -0.371383 0.575240 0.000000 -0.775990 -0.679063 0.000000 -0.951004 -0.987551 0.000000 -0.432159 -0.157470 0.000000 -0.495076 -0.244211 0.000000 -0.340910 -0.178298 0.000000 -0.215478 -0.373374 0.000000 0.000000 -0.383305 0.000000 0.215478 -0.373374 0.000000 0.340910 -0.178298 0.000000 0.495076 -0.244211 0.000000 0.432159 -0.157470 0.000000 0.951004 -0.987551 0.000000 0.775990 -0.679063 0.000000 0.371383 0.575240 0.000000 1.258109 -0.889257 0.000000 0.825144 -0.867343 0.000000 0.631980 -0.096971 0.000000 0.489187 -0.124081 0.000000 0.429335 0.340250 0.000000 0.390485 0.673315 0.000000 0.303177 1.115825 0.000000 0.175202 1.348005 0.000000 
-0.000000 1.563952 0.000000 -0.028377 1.423578 0.000000 -0.045025 1.162928 0.000000 -0.035454 0.709497 0.000000 -0.079326 0.369428 0.000000 -0.069034 -0.004696 0.000000 -0.324479 0.022316 0.000000 -0.206484 -0.324114 0.000000 -1.348267 -0.969982 0.000000 -0.509967 0.111066 0.000000 -0.345125 -0.235626 0.000000 -1.134310 -1.088651 0.000000 -0.384494 -0.449712 0.000000 -0.427091 -0.254838 0.000000 -0.299039 -0.359091 0.000000 -0.205958 -0.571843 0.000000 0.000000 -0.644474 0.000000 0.205958 -0.571843 0.000000 0.299039 -0.359091 0.000000 0.427091 -0.254838 0.000000 0.384494 -0.449712 0.000000 1.134310 -1.088651 0.000000 0.345125 -0.235626 0.000000 0.509967 0.111066 0.000000 1.348267 -0.969982 0.000000 0.206484 -0.324114 0.000000 0.324479 0.022316 0.000000 0.069034 -0.004696 0.000000 0.079326 0.369428 0.000000 0.035454 0.709497 0.000000 0.045025 1.162928 0.000000 0.028377 1.423578 0.000000 
-0.000000 1.530027 0.000000 0.080437 1.393031 0.000000 0.146606 1.122902 0.000000 0.218676 0.707616 0.000000 0.195558 0.373830 0.000000 0.227537 0.121072 0.000000 0.020860 0.040479 0.000000 0.161279 0.156444 0.000000 -0.645235 -0.585774 0.000000 -0.900265 -0.427902 0.000000 -0.132018 -0.054719 0.000000 -0.750272 -0.948182 0.000000 -0.665438 -0.864689 0.000000 -0.257641 -0.329666 0.000000 -0.211791 -0.399432 0.000000 -0.088043 -0.672413 0.000000 0.000000 -0.795221 0.000000 0.088043 -0.672413 0.000000 0.211791 -0.399432 0.000000 0.257641 -0.329666 0.000000 0.665438 -0.864689 0.000000 0.750272 -0.948182 0.000000 0.132018 -0.054719 0.000000 0.900265 -0.427902 0.000000 0.645235 -0.585774 0.000000 -0.161279 0.156444 0.000000 -0.020860 0.040479 0.000000 -0.227537 0.121072 0.000000 -0.195558 0.373830 0.000000 -0.218676 0.707616 0.000000 -0.146606 1.122902 0.000000 -0.080437 1.393031 0.000000 
-0.000000 1.403079 0.000000 0.154256 1.276972 0.000000 0.277876 1.024688 0.000000 0.384623 0.660544 0.000000 0.397911 0.360567 0.000000 0.429388 0.170003 0.000000 0.351447 0.088574 0.000000 0.370411 0.341981 0.000000 0.268986 0.091562 0.000000 -0.600919 -0.402151 0.000000 -0.359451 -0.385619 0.000000 -0.509867 -0.555230 0.000000 -0.592587 -0.942343 0.000000 0.164758 -0.708484 0.000000 0.203040 -0.528690 0.000000 0.138868 -0.783634 0.000000 -0.000000 -0.820559 0.000000 -0.138868 -0.783634 0.000000 -0.203040 -0.528690 0.000000 -0.164758 -0.708484 0.000000 0.592587 -0.942343 0.000000 0.509867 -0.555230 0.000000 0.359451 -0.385619 0.000000 0.600919 -0.402151 0.000000 -0.268986 0.091562 0.000000 -0.370411 0.341981 0.000000 -0.351447 0.088574 0.000000 -0.429388 0.170003 0.000000 -0.397911 0.360567 0.000000 -0.384623 0.660544 0.000000 -0.277876 1.024688 0.000000 -0.154256 1.276972 0.000000 
0.000000 1.221516 0.000000 0.199614 1.115154 0.000000 0.360359 0.892536 0.000000 0.492554 0.587581 0.000000 0.539845 0.329065 0.000000 0.590406 0.167536 0.000000 0.594367 0.099457 0.000000 0.639408 0.238905 0.000000 0.859803 0.385555 0.000000 0.543096 0.200535 0.000000 0.208391 -0.145772 0.000000 -0.362773 -0.715046 0.000000 -1.038553 -1.539314 0.000000 -0.827552 -1.125293 0.000000 -0.011623 -0.373542 0.000000 0.204961 -0.469373 0.000000 -0.000000 -0.517485 0.000000 -0.204961 -0.469373 0.000000 0.011623 -0.373542 0.000000 0.827552 -1.125293 0.000000 1.038553 -1.539314 0.000000 0.362773 -0.715046 0.000000 -0.208391 -0.145772 0.000000 -0.543096 0.200535 0.000000 -0.859803 0.385555 0.000000 -0.639408 0.238905 0.000000 -0.594367 0.099457 0.000000 -0.590406 0.167536 0.000000 -0.539845 0.329065 0.000000 -0.492554 0.587581 0.000000 -0.360359 0.892536 0.000000 -0.199614 1.115154 0.000000 
0.000000 1.003850 0.000000 0.214762 0.916614 0.000000 0.389983 0.731748 0.000000 0.530678 0.481057 0.000000 0.599957 0.262716 0.000000 0.666036 0.115482 0.000000 0.709678 0.039572 0.000000 0.801642 0.076545 0.000000 1.008479 0.187874 0.000000 1.243424 0.249261 0.000000 1.257287 0.520250 0.000000 1.162500 0.691714 0.000000 0.140044 -0.477563 0.000000 -1.316703 -1.735415 0.000000 -1.408917 -1.561203 0.000000 -0.660422 -0.795257 0.000000 0.000000 -0.410637 0.000000 0.660422 -0.795257 0.000000 1.408917 -1.561203 0.000000 1.316703 -1.735415 0.000000 -0.140044 -0.477563 0.000000 -1.162500 0.691714 0.000000 -1.257287 0.520250 0.000000 -1.243424 0.249261 0.000000 -1.008479 0.187874 0.000000 -0.801642 0.076545 0.000000 -0.709678 0.039572 0.000000 -0.666036 0.115482 0.000000 -0.599957 0.262716 0.000000 -0.530678 0.481057 0.000000 -0.389983 0.731748 0.000000 -0.214762 0.916614 0.000000 
0.000000 0.791992 0.000000 0.208928 0.725172 0.000000 0.381695 0.576620 0.000000 0.521557 0.377607 0.000000 0.602369 0.193706 0.000000 0.680491 0.057815 0.000000 0.745534 -0.036149 0.000000 0.859259 -0.059896 0.000000 1.029074 -0.056226 0.000000 1.314249 -0.048273 0.000000 1.580080 -0.064848 0.000000 2.247572 0.402197 0.000000 2.688771 0.939888 0.000000 2.164220 0.423669 0.000000 0.816271 -1.029823 0.000000 -0.051802 -1.878290 0.000000 0.000000 -1.838329 0.000000 0.051802 -1.878290 0.000000 -0.816271 -1.029823 0.000000 -2.164220 0.423669 0.000000 -2.688771 0.939888 0.000000 -2.247572 0.402197 0.000000 -1.580080 -0.064848 0.000000 -1.314249 -0.048273 0.000000 -1.029074 -0.056226 0.000000 -0.859259 -0.059896 0.000000 -0.745534 -0.036149 0.000000 -0.680491 0.057815 0.000000 -0.602369 0.193706 0.000000 -0.521557 0.377607 0.000000 -0.381695 0.576620 0.000000 -0.208928 0.725172 0.000000 
0.000000 0.585994 0.000000 0.185579 0.534919 0.000000 0.341149 0.419119 0.000000 0.466818 0.260383 0.000000 0.546530 0.103782 0.000000 0.620348 -0.027684 0.000000 0.685135 -0.139196 0.000000 0.780634 -0.206994 0.000000 0.903306 -0.267116 0.000000 1.073553 -0.301745 0.000000 1.222539 -0.413073 0.000000 1.406616 -0.416977 0.000000 1.946847 -0.394211 0.000000 2.605057 0.137086 0.000000 2.614497 0.654819 0.000000 1.471246 0.021014 0.000000 -0.000000 -0.514241 0.000000 -1.471246 0.021014 0.000000 -2.614497 0.654819 0.000000 -2.605057 0.137086 0.000000 -1.946847 -0.394211 0.000000 -1.406616 -0.416977 0.000000 -1.222539 -0.413073 0.000000 -1.073553 -0.301745 0.000000 -0.903306 -0.267116 0.000000 -0.780634 -0.206994 0.000000 -0.685135 -0.139196 0.000000 -0.620348 -0.027684 0.000000 -0.546530 0.103782 0.000000 -0.466818 0.260383 0.000000 -0.341149 0.419119 0.000000 -0.185579 0.534919 0.000000 
0.000000 0.420835 0.000000 0.154354 0.384023 0.000000 0.284803 0.295380 0.000000 0.390934 0.172226 0.000000 0.460754 0.040176 0.000000 0.523982 -0.080789 0.000000 0.577198 -0.196435 0.000000 0.648197 -0.278067 0.000000 0.729027 -0.349145 0.000000 0.824644 -0.367506 0.000000 0.900773 -0.397911 0.000000 0.903718 -0.322111 0.000000 0.899439 -0.258553 0.000000 0.783866 -0.243981 0.000000 0.956533 0.103989 0.000000 0.814649 0.736206 0.000000 -0.000000 1.104162 0.000000 -0.814649 0.736206 0.000000 -0.956533 0.103989 0.000000 -0.783866 -0.243981 0.000000 -0.899439 -0.258553 0.000000 -0.903718 -0.322111 0.000000 -0.900773 -0.397911 0.000000 -0.824644 -0.367506 0.000000 -0.729027 -0.349145 0.000000 -0.648197 -0.278067 0.000000 -0.577198 -0.196435 0.000000 -0.523982 -0.080789 0.000000 -0.460754 0.040176 0.000000 -0.390934 0.172226 0.000000 -0.284803 0.295380 0.000000 -0.154354 0.384023 0.000000 
0.000000 0.277285 0.000000 0.121209 0.250116 0.000000 0.224251 0.182540 0.000000 0.306263 0.084432 0.000000 0.359593 -0.029266 0.000000 0.400428 -0.144129 0.000000 0.429316 -0.263412 0.000000 0.457690 -0.358824 0.000000 0.488999 -0.443563 0.000000 0.514202 -0.473491 0.000000 0.544576 -0.492148 0.000000 0.525387 -0.415643 0.000000 0.543793 -0.274359 0.000000 0.428765 0.079992 0.000000 0.201347 0.624036 0.000000 0.012881 0.977547 0.000000 -0.000000 1.115056 0.000000 -0.012881 0.977547 0.000000 -0.201347 0.624036 0.000000 -0.428765 0.079992 0.000000 -0.543793 -0.274359 0.000000 -0.525387 -0.415643 0.000000 -0.544576 -0.492148 0.000000 -0.514202 -0.473491 0.000000 -0.488999 -0.443563 0.000000 -0.457690 -0.358824 0.000000 -0.429316 -0.263412 0.000000 -0.400428 -0.144129 0.000000 -0.359593 -0.029266 0.000000 -0.306263 0.084432 0.000000 -0.224251 0.182540 0.000000 -0.121209 0.250116 0.000000 
0.000000 0.178417 0.000000 0.089686 0.159772 0.000000 0.164583 0.110327 0.000000 0.220318 0.036883 0.000000 0.248857 -0.053989 0.000000 0.257826 -0.150511 0.000000 0.245714 -0.253697 0.000000 0.216514 -0.337750 0.000000 0.176393 -0.405658 0.000000 0.116412 -0.423084 0.000000 0.058701 -0.409096 0.000000 -0.038296 -0.321328 0.000000 -0.107654 -0.161931 0.000000 -0.220199 0.098464 0.000000 -0.196121 0.519873 0.000000 -0.113918 0.937554 0.000000 0.000000 1.129925 0.000000 0.113918 0.937554 0.000000 0.196121 0.519873 0.000000 0.220199 0.098464 0.000000 0.107654 -0.161931 0.000000 0.038296 -0.321328 0.000000 -0.058701 -0.409096 0.000000 -0.116412 -0.423084 0.000000 -0.176393 -0.405658 0.000000 -0.216514 -0.337750 0.000000 -0.245714 -0.253697 0.000000 -0.257826 -0.150511 0.000000 -0.248857 -0.053989 0.000000 -0.220318 0.036883 0.000000 -0.164583 0.110327 0.000000 -0.089686 0.159772 0.000000 
0.000000 0.097913 0.000000 0.066542 0.085533 0.000000 0.120439 0.051908 0.000000 0.154481 0.000158 0.000000 0.161248 -0.066774 0.000000 0.139324 -0.140986 0.000000 0.088846 -0.222099 0.000000 0.006569 -0.289502 0.000000 -0.092258 -0.343461 0.000000 -0.215134 -0.355799 0.000000 -0.324686 -0.337439 0.000000 -0.445506 -0.249288 0.000000 -0.513160 -0.092456 0.000000 -0.561630 0.168458 0.000000 -0.504361 0.517755 0.000000 -0.315086 0.781426 0.000000 -0.000000 0.887220 0.000000 0.315086 0.781426 0.000000 0.504361 0.517755 0.000000 0.561630 0.168458 0.000000 0.513160 -0.092456 0.000000 0.445506 -0.249288 0.000000 0.324686 -0.337439 0.000000 0.215134 -0.355799 0.000000 0.092258 -0.343461 0.000000 -0.006569 -0.289502 0.000000 -0.088846 -0.222099 0.000000 -0.139324 -0.140986 0.000000 -0.161248 -0.066774 0.000000 -0.154481 0.000158 0.000000 -0.120439 0.051908 0.000000 -0.066542 0.085533 0.000000 
0.000000 0.045333 0.000000 0.048956 0.039333 0.000000 0.085533 0.022388 0.000000 0.100865 -0.003926 0.000000 0.085691 -0.038832 0.000000 0.034090 -0.078109 0.000000 -0.055295 -0.120943 0.000000 -0.188009 -0.156647 0.000000 -0.344797 -0.183955 0.000000 -0.531470 -0.190655 0.000000 -0.700596 -0.178724 0.000000 -0.868909 -0.132854 0.000000 -0.949884 -0.045807 0.000000 -0.961365 0.089666 0.000000 -0.781426 0.273329 0.000000 -0.443610 0.433193 0.000000 0.000000 0.499752 0.000000 0.443610 0.433193 0.000000 0.781426 0.273329 0.000000 0.961365 0.089666 0.000000 0.949884 -0.045807 0.000000 0.868909 -0.132854 0.000000 0.700596 -0.178724 0.000000 0.531470 -0.190655 0.000000 0.344797 -0.183955 0.000000 0.188009 -0.156647 0.000000 0.055295 -0.120943 0.000000 -0.034090 -0.078109 0.000000 -0.085691 -0.038832 0.000000 -0.100865 -0.003926 0.000000 -0.085533 0.022388 0.000000 -0.048956 0.039333 0.000000 
