# vtk DataFile Version 2.0
Comment goes here
ASCII

DATASET STRUCTURED_POINTS
FIELD FieldData 1
TIME 1 1 double
1.34000000
DIMENSIONS    32   32   1

ORIGIN    0.000   0.000   0.000
SPACING   0.03125 0.03125   1.000

POINT_DATA   1024
VECTORS u double

-0.000000 -0.000000 0.000000 0.005719 -0.000000 0.000000 -0.005504 -0.000000 0.000000 -0.046172 -0.000000 0.000000 -0.124607 -0.000000 0.000000 -0.243333 -0.000000 0.000000 -0.394024 -0.000000 0.000000 -0.573814 -0.000000 0.000000 -0.752303 -0.000000 0.000000 -0.930897 0.000000 0.000000 -1.057371 0.000000 0.000000 -1.147774 0.000000 0.000000 -1.133434 0.000000 0.000000 -1.042232 0.000000 0.000000 -0.807551 0.000000 0.000000 -0.450617 0.000000 0.000000 0.000000 0.000000 0.000000 0.450617 -0.000000 0.000000 0.807551 -0.000000 0.000000 1.042232 -0.000000 0.000000 1.133434 -0.000000 0.000000 1.147774 -0.000000 0.000000 1.057371 -0.000000 0.000000 0.930897 -0.000000 0.000000 0.752303 -0.000000 0.000000 0.573814 0.000000 0.000000 0.394024 0.000000 0.000000 0.243333 0.000000 0.000000 0.124607 0.000000 0.000000 0.046172 0.000000 0.000000 0.005504 -0.000000 0.000000 -0.005719 -0.000000 0.000000 
-0.000000 -0.005719 0.000000 0.011427 0.002752 0.000000 0.005971 0.025946 0.000000 -0.029552 0.059551 0.000000 -0.102233 0.098580 0.000000 -0.215509 0.134708 0.000000 -0.360020 0.165241 0.000000 -0.533382 0.179140 0.000000 -0.706444 0.178542 0.000000 -0.878354 0.152534 0.000000 -1.002385 0.108438 0.000000 -1.088472 0.038031 0.000000 -1.077941 -0.052771 0.000000 -0.993227 -0.162941 0.000000 -0.772946 -0.295807 0.000000 -0.433029 -0.403776 0.000000 0.000000 -0.450617 0.000000 0.433029 -0.403776 0.000000 0.772946 -0.295807 0.000000 0.993227 -0.162941 0.000000 1.077941 -0.052771 0.000000 1.088472 0.038031 0.000000 1.002385 0.108438 0.000000 0.878354 0.152534 0.000000 0.706444 0.178542 0.000000 0.533382 0.179140 0.000000 0.360020 0.165241 0.000000 0.215509 0.134708 0.000000 0.102233 0.098580 0.000000 0.029552 0.059551 0.000000 -0.005971 0.025946 0.000000 -0.011427 0.002752 0.000000 
-0.000000 -0.022853 0.000000 0.033960 -0.005971 0.000000 0.050034 0.040979 0.000000 0.037478 0.108204 0.000000 -0.013303 0.185957 0.000000 -0.100542 0.257787 0.000000 -0.218874 0.317873 0.000000 -0.362386 0.346424 0.000000 -0.505367 0.344973 0.000000 -0.649943 0.295940 0.000000 -0.747604 0.210117 0.000000 -0.825100 0.075556 0.000000 -0.815613 -0.095245 0.000000 -0.773603 -0.304995 0.000000 -0.617421 -0.560197 0.000000 -0.354018 -0.772946 0.000000 -0.000000 -0.866059 0.000000 0.354018 -0.772946 0.000000 0.617421 -0.560197 0.000000 0.773603 -0.304995 0.000000 0.815613 -0.095245 0.000000 0.825100 0.075556 0.000000 0.747604 0.210117 0.000000 0.649943 0.295940 0.000000 0.505367 0.344973 0.000000 0.362386 0.346424 0.000000 0.218874 0.317873 0.000000 0.100542 0.257787 0.000000 0.013303 0.185957 0.000000 -0.037478 0.108204 0.000000 -0.050034 0.040979 0.000000 -0.033960 -0.005971 0.000000 
-0.000000 -0.073639 0.000000 0.062955 -0.047282 0.000000 0.106944 0.022427 0.000000 0.121327 0.122888 0.000000 0.096860 0.236600 0.000000 0.036879 0.340280 0.000000 -0.053291 0.427084 0.000000 -0.167445 0.465633 0.000000 -0.283284 0.466099 0.000000 -0.401997 0.394771 0.000000 -0.483637 0.283595 0.000000 -0.550550 0.106041 0.000000 -0.549153 -0.104268 0.000000 -0.545767 -0.361133 0.000000 -0.451105 -0.715392 0.000000 -0.265908 -1.021197 0.000000 -0.000000 -1.158653 0.000000 0.265908 -1.021197 0.000000 0.451105 -0.715392 0.000000 0.545767 -0.361133 0.000000 0.549153 -0.104268 0.000000 0.550550 0.106041 0.000000 0.483637 0.283595 0.000000 0.401997 0.394771 0.000000 0.283284 0.466099 0.000000 0.167445 0.465633 0.000000 0.053291 0.427084 0.000000 -0.036879 0.340280 0.000000 -0.096860 0.236600 0.000000 -0.121327 0.122888 0.000000 -0.106944 0.022427 0.000000 -0.062955 -0.047282 0.000000 
-0.000000 -0.148764 0.000000 0.098511 -0.112915 0.000000 0.175208 -0.017393 0.000000 0.223618 0.118288 0.000000 0.227997 0.270405 0.000000 0.202728 0.407937 0.000000 0.142971 0.522196 0.000000 0.066655 0.576417 0.000000 -0.015239 0.579525 0.000000 -0.100038 0.496294 0.000000 -0.146309 0.358671 0.000000 -0.194827 0.141072 0.000000 -0.163902 -0.100029 0.000000 -0.215557 -0.403043 0.000000 -0.209463 -0.840056 0.000000 -0.128262 -1.224051 0.000000 -0.000000 -1.397875 0.000000 0.128262 -1.224051 0.000000 0.209463 -0.840056 0.000000 0.215557 -0.403043 0.000000 0.163902 -0.100029 0.000000 0.194827 0.141072 0.000000 0.146309 0.358671 0.000000 0.100038 0.496294 0.000000 0.015239 0.579525 0.000000 -0.066655 0.576417 0.000000 -0.142971 0.522196 0.000000 -0.202728 0.407937 0.000000 -0.227997 0.270405 0.000000 -0.223618 0.118288 0.000000 -0.175208 -0.017393 0.000000 -0.098511 -0.112915 0.000000 
-0.000000 -0.270661 0.000000 0.130665 -0.222490 0.000000 0.237201 -0.102679 0.000000 0.313665 0.070099 0.000000 0.342830 0.257491 0.000000 0.341253 0.425306 0.000000 0.303769 0.563157 0.000000 0.247058 0.623842 0.000000 0.180710 0.632793 0.000000 0.105292 0.525841 0.000000 0.051956 0.378384 0.000000 0.009168 0.123634 0.000000 0.045066 -0.083538 0.000000 -0.024743 -0.315572 0.000000 -0.010920 -0.802687 0.000000 0.017067 -1.230660 0.000000 -0.000000 -1.415178 0.000000 -0.017067 -1.230660 0.000000 0.010920 -0.802687 0.000000 0.024743 -0.315572 0.000000 -0.045066 -0.083538 0.000000 -0.009168 0.123634 0.000000 -0.051956 0.378384 0.000000 -0.105292 0.525841 0.000000 -0.180710 0.632793 0.000000 -0.247058 0.623842 0.000000 -0.303769 0.563157 0.000000 -0.341253 0.425306 0.000000 -0.342830 0.257491 0.000000 -0.313665 0.070099 0.000000 -0.237201 -0.102679 0.000000 -0.130665 -0.222490 0.000000 
-0.000000 -0.410095 0.000000 0.156305 -0.350116 0.000000 0.284381 -0.200392 0.000000 0.385275 0.012660 0.000000 0.429404 0.242816 0.000000 0.451882 0.446998 0.000000 0.424396 0.616391 0.000000 0.390967 0.699476 0.000000 0.330444 0.721291 0.000000 0.272662 0.625047 0.000000 0.236653 0.454794 0.000000 0.238109 0.147963 0.000000 0.428008 -0.066117 0.000000 0.335064 -0.347057 0.000000 0.298065 -0.881866 0.000000 0.248222 -1.234971 0.000000 0.000000 -1.363741 0.000000 -0.248222 -1.234971 0.000000 -0.298065 -0.881866 0.000000 -0.335064 -0.347057 0.000000 -0.428008 -0.066117 0.000000 -0.238109 0.147963 0.000000 -0.236653 0.454794 0.000000 -0.272662 0.625047 0.000000 -0.330444 0.721291 0.000000 -0.390967 0.699476 0.000000 -0.424396 0.616391 0.000000 -0.451882 0.446998 0.000000 -0.429404 0.242816 0.000000 -0.385275 0.012660 0.000000 -0.284381 -0.200392 0.000000 -0.156305 -0.350116 0.000000 
-0.000000 -0.583270 0.000000 0.169833 -0.506871 0.000000 0.309495 -0.331650 0.000000 0.422755 -0.074924 0.000000 0.476447 0.190883 0.000000 0.509785 0.430313 0.000000 0.492570 0.624072 0.000000 0.459846 0.717794 0.000000 0.401787 0.751098 0.000000 0.316536 0.619632 0.000000 0.216773 0.412936 0.000000 0.234273 -0.067721 0.000000 0.341977 -0.180493 0.000000 0.313719 -0.185628 0.000000 0.589555 -0.715844 0.000000 0.514610 -0.932596 0.000000 0.000000 -0.918735 0.000000 -0.514610 -0.932596 0.000000 -0.589555 -0.715844 0.000000 -0.313719 -0.185628 0.000000 -0.341977 -0.180493 0.000000 -0.234273 -0.067721 0.000000 -0.216773 0.412936 0.000000 -0.316536 0.619632 0.000000 -0.401787 0.751098 0.000000 -0.459846 0.717794 0.000000 -0.492570 0.624072 0.000000 -0.509785 0.430313 0.000000 -0.476447 0.190883 0.000000 -0.422755 -0.074924 0.000000 -0.309495 -0.331650 0.000000 -0.169833 -0.506871 0.000000 
0.000000 -0.749760 0.000000 0.166239 -0.659611 0.000000 0.300437 -0.453314 0.000000 0.415232 -0.154292 0.000000 0.461677 0.155786 0.000000 0.506028 0.430875 0.000000 0.475991 0.666330 0.000000 0.454773 0.790259 0.000000 0.352538 0.864601 0.000000 0.232239 0.810062 0.000000 0.013258 0.537057 0.000000 0.277989 0.022759 0.000000 0.561780 -0.145563 0.000000 0.920565 -0.594635 0.000000 0.880340 -1.082757 0.000000 0.358520 -0.645416 0.000000 0.000000 -0.334521 0.000000 -0.358520 -0.645416 0.000000 -0.880340 -1.082757 0.000000 -0.920565 -0.594635 0.000000 -0.561780 -0.145563 0.000000 -0.277989 0.022759 0.000000 -0.013258 0.537057 0.000000 -0.232239 0.810062 0.000000 -0.352538 0.864601 0.000000 -0.454773 0.790259 0.000000 -0.475991 0.666330 0.000000 -0.506028 0.430875 0.000000 -0.461677 0.155786 0.000000 -0.415232 -0.154292 0.000000 -0.300437 -0.453314 0.000000 -0.166239 -0.659611 0.000000 
0.000000 -0.915748 0.000000 0.146334 -0.807308 0.000000 0.262966 -0.580642 0.000000 0.368997 -0.236163 0.000000 0.406959 0.100087 0.000000 0.458277 0.415999 0.000000 0.436761 0.675327 0.000000 0.419598 0.841247 0.000000 0.373910 0.973632 0.000000 0.166579 0.958912 0.000000 0.111855 0.367186 0.000000 0.599244 -0.616243 0.000000 0.660704 -0.823069 0.000000 0.520280 -0.504188 0.000000 0.033127 -0.153799 0.000000 -0.192498 -0.052256 0.000000 0.000000 -0.201695 0.000000 0.192498 -0.052256 0.000000 -0.033127 -0.153799 0.000000 -0.520280 -0.504188 0.000000 -0.660704 -0.823069 0.000000 -0.599244 -0.616243 0.000000 -0.111855 0.367186 0.000000 -0.166579 0.958912 0.000000 -0.373910 0.973632 0.000000 -0.419598 0.841247 0.000000 -0.436761 0.675327 0.000000 -0.458277 0.415999 0.000000 -0.406959 0.100087 0.000000 -0.368997 -0.236163 0.000000 -0.262966 -0.580642 0.000000 -0.146334 -0.807308 0.000000 
0.000000 -1.042428 0.000000 0.103470 -0.922577 0.000000 0.185050 -0.675977 0.000000 0.268147 -0.298284 0.000000 0.288394 0.066506 0.000000 0.350793 0.401073 0.000000 0.318473 0.705009 0.000000 0.347286 0.853110 0.000000 0.235708 1.117621 0.000000 -0.239641 1.072117 0.000000 0.348917 0.104392 0.000000 0.250931 -0.526090 0.000000 -0.240112 -0.066599 0.000000 -0.495884 0.032943 0.000000 -0.283900 -0.369979 0.000000 0.093113 -0.612290 0.000000 -0.000000 -0.719518 0.000000 -0.093113 -0.612290 0.000000 0.283900 -0.369979 0.000000 0.495884 0.032943 0.000000 0.240112 -0.066599 0.000000 -0.250931 -0.526090 0.000000 -0.348917 0.104392 0.000000 0.239641 1.072117 0.000000 -0.235708 1.117621 0.000000 -0.347286 0.853110 0.000000 -0.318473 0.705009 0.000000 -0.350793 0.401073 0.000000 -0.288394 0.066506 0.000000 -0.268147 -0.298284 0.000000 -0.185050 -0.675977 0.000000 -0.103470 -0.922577 0.000000 
0.000000 -1.122688 0.000000 0.043985 -0.992358 0.000000 0.077206 -0.745320 0.000000 0.135603 -0.339507 0.000000 0.137496 0.017442 0.000000 0.226676 0.385920 0.000000 0.162267 0.678834 0.000000 0.275434 0.924012 0.000000 0.009753 1.560558 0.000000 -0.415728 0.845703 0.000000 0.405423 -0.123385 0.000000 0.028093 -0.027214 0.000000 0.360458 -0.076254 0.000000 0.688269 -0.460400 0.000000 0.784214 -0.742796 0.000000 0.552919 -0.336156 0.000000 -0.000000 -0.015469 0.000000 -0.552919 -0.336156 0.000000 -0.784214 -0.742796 0.000000 -0.688269 -0.460400 0.000000 -0.360458 -0.076254 0.000000 -0.028093 -0.027214 0.000000 -0.405423 -0.123385 0.000000 0.415728 0.845703 0.000000 -0.009753 1.560558 0.000000 -0.275434 0.924012 0.000000 -0.162267 0.678834 0.000000 -0.226676 0.385920 0.000000 -0.137496 0.017442 0.000000 -0.135603 -0.339507 0.000000 -0.077206 -0.745320 0.000000 -0.043985 -0.992358 0.000000 
0.000000 -1.130398 0.000000 -0.044181 -0.999784 0.000000 -0.075376 -0.767594 0.000000 -0.067459 -0.358574 0.000000 -0.066455 -0.024567 0.000000 0.037480 0.376302 0.000000 -0.033764 0.656251 0.000000 0.187743 1.005624 0.000000 -0.629805 1.808783 0.000000 -0.445204 0.676447 0.000000 0.609542 -0.339429 0.000000 0.225767 -0.481125 0.000000 0.583885 -0.726775 0.000000 0.413938 -0.390814 0.000000 0.285060 -0.234629 0.000000 0.029782 0.171924 0.000000 -0.000000 0.386320 0.000000 -0.029782 0.171924 0.000000 -0.285060 -0.234629 0.000000 -0.413938 -0.390814 0.000000 -0.583885 -0.726775 0.000000 -0.225767 -0.481125 0.000000 -0.609542 -0.339429 0.000000 0.445204 0.676447 0.000000 0.629805 1.808783 0.000000 -0.187743 1.005624 0.000000 0.033764 0.656251 0.000000 -0.037480 0.376302 0.000000 0.066455 -0.024567 0.000000 0.067459 -0.358574 0.000000 0.075376 -0.767594 0.000000 0.044181 -0.999784 0.000000 
0.000000 -1.034325 0.000000 -0.152533 -0.916982 0.000000 -0.269309 -0.722042 0.000000 -0.319024 -0.348428 0.000000 -0.324444 -0.087498 0.000000 -0.187663 0.353229 0.000000 -0.223740 0.528571 0.000000 0.185712 1.520052 0.000000 -0.747123 2.193505 0.000000 0.551568 -0.393644 0.000000 1.214585 -0.794356 0.000000 0.372156 -0.001557 0.000000 0.142932 -0.264424 0.000000 -0.097465 -0.161574 0.000000 -0.129340 -0.358640 0.000000 -0.153443 -0.051096 0.000000 0.000000 0.044094 0.000000 0.153443 -0.051096 0.000000 0.129340 -0.358640 0.000000 0.097465 -0.161574 0.000000 -0.142932 -0.264424 0.000000 -0.372156 -0.001557 0.000000 -1.214585 -0.794356 0.000000 -0.551568 -0.393644 0.000000 0.747123 2.193505 0.000000 -0.185712 1.520052 0.000000 0.223740 0.528571 0.000000 0.187663 0.353229 0.000000 0.324444 -0.087498 0.000000 0.319024 -0.348428 0.000000 0.269309 -0.722042 0.000000 0.152533 -0.916982 0.000000 
0.000000 -0.825333 0.000000 -0.288774 -0.730474 0.000000 -0.511717 -0.601103 0.000000 -0.684751 -0.303440 0.000000 -0.703614 -0.155928 0.000000 -0.721818 0.275598 0.000000 -0.553270 0.282875 0.000000 -0.470430 1.529007 0.000000 0.025642 1.442927 0.000000 1.171818 -1.285262 0.000000 0.326418 -0.160017 0.000000 0.117025 0.590528 0.000000 0.027239 -0.257153 0.000000 0.119166 -0.118543 0.000000 -0.003188 -0.178651 0.000000 -0.049940 0.042585 0.000000 -0.000000 0.079434 0.000000 0.049940 0.042585 0.000000 0.003188 -0.178651 0.000000 -0.119166 -0.118543 0.000000 -0.027239 -0.257153 0.000000 -0.117025 0.590528 0.000000 -0.326418 -0.160017 0.000000 -1.171818 -1.285262 0.000000 -0.025642 1.442927 0.000000 0.470430 1.529007 0.000000 0.553270 0.282875 0.000000 0.721818 0.275598 0.000000 0.703614 -0.155928 0.000000 0.684751 -0.303440 0.000000 0.511717 -0.601103 0.000000 0.288774 -0.730474 0.000000 
0.000000 -0.456777 0.000000 -0.412667 -0.405265 0.000000 -0.730474 -0.326065 0.000000 -1.013769 -0.156531 0.000000 -1.033914 -0.050432 0.000000 -1.169698 0.202885 0.000000 -0.758316 0.277183 0.000000 -0.886822 0.941141 0.000000 0.770691 0.551258 0.000000 0.556104 -0.694420 0.000000 -0.514570 0.260436 0.000000 0.396087 0.297621 0.000000 0.075958 -0.266566 0.000000 0.138934 -0.131147 0.000000 -0.042585 -0.189534 0.000000 -0.039717 -0.054284 0.000000 0.000000 -0.055785 0.000000 0.039717 -0.054284 0.000000 0.042585 -0.189534 0.000000 -0.138934 -0.131147 0.000000 -0.075958 -0.266566 0.000000 -0.396087 0.297621 0.000000 0.514570 0.260436 0.000000 -0.556104 -0.694420 0.000000 -0.770691 0.551258 0.000000 0.886822 0.941141 0.000000 0.758316 0.277183 0.000000 1.169698 0.202885 0.000000 1.033914 -0.050432 0.000000 1.013769 -0.156531 0.000000 0.730474 -0.326065 0.000000 0.412667 -0.405265 0.000000 
0.000000 0.000000 0.000000 -0.456777 0.000000 0.000000 -0.810529 0.000000 0.000000 -1.108906 -0.000000 0.000000 -1.123592 -0.000000 0.000000 -1.209770 -0.000000 0.000000 -0.717823 -0.000000 0.000000 -0.655403 0.000000 0.000000 1.164459 -0.000000 0.000000 0.447112 -0.000000 0.000000 -0.224381 0.000000 0.000000 0.967985 0.000000 0.000000 0.370862 0.000000 0.000000 0.434853 0.000000 0.000000 0.108567 0.000000 0.000000 0.055785 0.000000 0.000000 -0.000000 -0.000000 0.000000 -0.055785 -0.000000 0.000000 -0.108567 -0.000000 0.000000 -0.434853 -0.000000 0.000000 -0.370862 -0.000000 0.000000 -0.967985 -0.000000 0.000000 0.224381 0.000000 0.000000 -0.447112 0.000000 0.000000 -1.164459 -0.000000 0.000000 0.655403 -0.000000 0.000000 0.717823 -0.000000 0.000000 1.209770 -0.000000 0.000000 1.123592 -0.000000 0.000000 1.108906 0.000000 0.000000 0.810529 0.000000 0.000000 0.456777 0.000000 0.000000 
-0.000000 0.456777 0.000000 -0.412667 0.405265 0.000000 -0.730474 0.326065 0.000000 -1.013769 0.156531 0.000000 -1.033914 0.050432 0.000000 -1.169698 -0.202885 0.000000 -0.758316 -0.277183 0.000000 -0.886822 -0.941141 0.000000 0.770691 -0.551258 0.000000 0.556104 0.694420 0.000000 -0.514570 -0.260436 0.000000 0.396087 -0.297621 0.000000 0.075958 0.266566 0.000000 0.138934 0.131147 0.000000 -0.042585 0.189534 0.000000 -0.039717 0.054284 0.000000 -0.000000 0.055785 0.000000 0.039717 0.054284 0.000000 0.042585 0.189534 0.000000 -0.138934 0.131147 0.000000 -0.075958 0.266566 0.000000 -0.396087 -0.297621 0.000000 0.514570 -0.260436 0.000000 -0.556104 0.694420 0.000000 -0.770691 -0.551258 0.000000 0.886822 -0.941141 0.000000 0.758316 -0.277183 0.000000 1.169698 -0.202885 0.000000 1.033914 0.050432 0.000000 1.013769 0.156531 0.000000 0.730474 0.326065 0.000000 0.412667 0.405265 0.000000 
-0.000000 0.825333 0.000000 -0.288774 0.730474 0.000000 -0.511717 0.601103 0.000000 -0.684751 0.303440 0.000000 -0.703614 0.155928 0.000000 -0.721818 -0.275598 0.000000 -0.553270 -0.282875 0.000000 -0.470430 -1.529007 0.000000 0.025642 -1.442927 0.000000 1.171818 1.285262 0.000000 0.326418 0.160017 0.000000 0.117025 -0.590528 0.000000 0.027239 0.257153 0.000000 0.119166 0.118543 0.000000 -0.003188 0.178651 0.000000 -0.049940 -0.042585 0.000000 -0.000000 -0.079434 0.000000 0.049940 -0.042585 0.000000 0.003188 0.178651 0.000000 -0.119166 0.118543 0.000000 -0.027239 0.257153 0.000000 -0.117025 -0.590528 0.000000 -0.326418 0.160017 0.000000 -1.171818 1.285262 0.000000 -0.025642 -1.442927 0.000000 0.470430 -1.529007 0.000000 0.553270 -0.282875 0.000000 0.721818 -0.275598 0.000000 0.703614 0.155928 0.000000 0.684751 0.303440 0.000000 0.511717 0.601103 0.000000 0.288774 0.730474 0.000000 
-0.000000 1.034325 0.000000 -0.152533 0.916982 0.000000 -0.269309 0.722042 0.000000 -0.319024 0.348428 0.000000 -0.324444 0.087498 0.000000 -0.187663 -0.353229 0.000000 -0.223740 -0.528571 0.000000 0.185712 -1.520052 0.000000 -0.747123 -2.193505 0.000000 0.551568 0.393644 0.000000 1.214585 0.794356 0.000000 0.372156 0.001557 0.000000 0.142932 0.264424 0.000000 -0.097465 0.161574 0.000000 -0.129340 0.358640 0.000000 -0.153443 0.051096 0.000000 -0.000000 -0.044094 0.000000 0.153443 0.051096 0.000000 0.129340 0.358640 0.000000 0.097465 0.161574 0.000000 -0.142932 0.264424 0.000000 -0.372156 0.001557 0.000000 -1.214585 0.794356 0.000000 -0.551568 0.393644 0.000000 0.747123 -2.193505 0.000000 -0.185712 -1.520052 0.000000 0.223740 -0.528571 0.000000 0.187663 -0.353229 0.000000 0.324444 0.087498 0.000000 0.319024 0.348428 0.000000 0.269309 0.722042 0.000000 0.152533 0.916982 0.000000 
-0.000000 1.130398 0.000000 -0.044181 0.999784 0.000000 -0.075376 0.767594 0.000000 -0.067459 0.358574 0.000000 -0.066455 0.024567 0.000000 0.037480 -0.376302 0.000000 -0.033764 -0.656251 0.000000 0.187743 -1.005624 0.000000 -0.629805 -1.808783 0.000000 -0.445204 -0.676447 0.000000 0.609542 0.339429 0.000000 0.225767 0.481125 0.000000 0.583885 0.726775 0.000000 0.413938 0.390814 0.000000 0.285060 0.234629 0.000000 0.029782 -0.171924 0.000000 0.000000 -0.386320 0.000000 -0.029782 -0.171924 0.000000 -0.285060 0.234629 0.000000 -0.413938 0.390814 0.000000 -0.583885 0.726775 0.000000 -0.225767 0.481125 0.000000 -0.609542 0.339429 0.000000 0.445204 -0.676447 0.000000 0.629805 -1.808783 0.000000 -0.187743 -1.005624 0.000000 0.033764 -0.656251 0.000000 -0.037480 -0.376302 0.000000 0.066455 0.024567 0.000000 0.067459 0.358574 0.000000 0.075376 0.767594 0.000000 0.044181 0.999784 0.000000 
-0.000000 1.122688 0.000000 0.043985 0.992358 0.000000 0.077206 0.745320 0.000000 0.135603 0.339507 0.000000 0.137496 -0.017442 0.000000 0.226676 -0.385920 0.000000 0.162267 -0.678834 0.000000 0.275434 -0.924012 0.000000 0.009753 -1.560558 0.000000 -0.415728 -0.845703 0.000000 0.405423 0.123385 0.000000 0.028093 0.027214 0.000000 0.360458 0.076254 0.000000 0.688269 0.460400 0.000000 0.784214 0.742796 0.000000 0.552919 0.336156 0.000000 0.000000 0.015469 0.000000 -0.552919 0.336156 0.000000 -0.784214 0.742796 0.000000 -0.688269 0.460400 0.000000 -0.360458 0.076254 0.000000 -0.028093 0.027214 0.000000 -0.405423 0.123385 0.000000 0.415728 -0.845703 0.000000 -0.009753 -1.560558 0.000000 -0.275434 -0.924012 0.000000 -0.162267 -0.678834 0.000000 -0.226676 -0.385920 0.000000 -0.137496 -0.017442 0.000000 -0.135603 0.339507 0.000000 -0.077206 0.745320 0.000000 -0.043985 0.992358 0.000000 
-0.000000 1.042428 0.000000 0.103470 0.922577 0.000000 0.185050 0.675977 0.000000 0.268147 0.298284 0.000000 0.288394 -0.066506 0.000000 0.350793 -0.401073 0.000000 0.318473 -0.705009 0.000000 0.347286 -0.853110 0.000000 0.235708 -1.117621 0.000000 -0.239641 -1.072117 0.000000 0.348917 -0.104392 0.000000 0.250931 0.526090 0.000000 -0.240112 0.066599 0.000000 -0.495884 -0.032943 0.000000 -0.283900 0.369979 0.000000 0.093113 0.612290 0.000000 0.000000 0.719518 0.000000 -0.093113 0.612290 0.000000 0.283900 0.369979 0.000000 0.495884 -0.032943 0.000000 0.240112 0.066599 0.000000 -0.250931 0.526090 0.000000 -0.348917 -0.104392 0.000000 0.239641 -1.072117 0.000000 -0.235708 -1.117621 0.000000 -0.347286 -0.853110 0.000000 -0.318473 -0.705009 0.000000 -0.350793 -0.401073 0.000000 -0.288394 -0.066506 0.000000 -0.268147 0.298284 0.000000 -0.185050 0.675977 0.000000 -0.103470 0.922577 0.000000 
-0.000000 0.915748 0.000000 0.146334 0.807308 0.000000 0.262966 0.580642 0.000000 0.368997 0.236163 0.000000 0.406959 -0.100087 0.000000 0.458277 -0.415999 0.000000 0.436761 -0.675327 0.000000 0.419598 -0.841247 0.000000 0.373910 -0.973632 0.000000 0.166579 -0.958912 0.000000 0.111855 -0.367186 0.000000 0.599244 0.616243 0.000000 0.660704 0.823069 0.000000 0.520280 0.504188 0.000000 0.033127 0.153799 0.000000 -0.192498 0.052256 0.000000 -0.000000 0.201695 0.000000 0.192498 0.052256 0.000000 -0.033127 0.153799 0.000000 -0.520280 0.504188 0.000000 -0.660704 0.823069 0.000000 -0.599244 0.616243 0.000000 -0.111855 -0.367186 0.000000 -0.166579 -0.958912 0.000000 -0.373910 -0.973632 0.000000 -0.419598 -0.841247 0.000000 -0.436761 -0.675327 0.000000 -0.458277 -0.415999 0.000000 -0.406959 -0.100087 0.000000 -0.368997 0.236163 0.000000 -0.262966 0.580642 0.000000 -0.146334 0.807308 0.000000 
-0.000000 0.749760 0.000000 0.166239 0.659611 0.000000 0.300437 0.453314 0.000000 0.415232 0.154292 0.000000 0.461677 -0.155786 0.000000 0.506028 -0.430875 0.000000 0.475991 -0.666330 0.000000 0.454773 -0.790259 0.000000 0.352538 -0.864601 0.000000 0.232239 -0.810062 0.000000 0.013258 -0.537057 0.000000 0.277989 -0.022759 0.000000 0.561780 0.145563 0.000000 0.920565 0.594635 0.000000 0.880340 1.082757 0.000000 0.358520 0.645416 0.000000 -0.000000 0.334521 0.000000 -0.358520 0.645416 0.000000 -0.880340 1.082757 0.000000 -0.920565 0.594635 0.000000 -0.561780 0.145563 0.000000 -0.277989 -0.022759 0.000000 -0.013258 -0.537057 0.000000 -0.232239 -0.810062 0.000000 -0.352538 -0.864601 0.000000 -0.454773 -0.790259 0.000000 -0.475991 -0.666330 0.000000 -0.506028 -0.430875 0.000000 -0.461677 -0.155786 0.000000 -0.415232 0.154292 0.000000 -0.300437 0.453314 0.000000 -0.166239 0.659611 0.000000 
-0.000000 0.583270 0.000000 0.169833 0.506871 0.000000 0.309495 0.331650 0.000000 0.422755 0.074924 0.000000 0.476447 -0.190883 0.000000 0.509785 -0.430313 0.000000 0.492570 -0.624072 0.000000 0.459846 -0.717794 0.000000 0.401787 -0.751098 0.000000 0.316536 -0.619632 0.000000 0.216773 -0.412936 0.000000 0.234273 0.067721 0.000000 0.341977 0.180493 0.000000 0.313719 0.185628 0.000000 0.589555 0.715844 0.000000 0.514610 0.932596 0.000000 -0.000000 0.918735 0.000000 -0.514610 0.932596 0.000000 -0.589555 0.715844 0.000000 -0.313719 0.185628 0.000000 -0.341977 0.180493 0.000000 -0.234273 0.067721 0.000000 -0.216773 -0.412936 0.000000 -0.316536 -0.619632 0.000000 -0.401787 -0.751098 0.000000 -0.459846 -0.717794 0.000000 -0.492570 -0.624072 0.000000 -0.509785 -0.430313 0.000000 -0.476447 -0.190883 0.000000 -0.422755 0.074924 0.000000 -0.309495 0.331650 0.000000 -0.169833 0.506871 0.000000 
0.000000 0.410095 0.000000 0.156305 0.350116 0.000000 0.284381 0.200392 0.000000 0.385275 -0.012660 0.000000 0.429404 -0.242816 0.000000 0.451882 -0.446998 0.000000 0.424396 -0.616391 0.000000 0.390967 -0.699476 0.000000 0.330444 -0.721291 0.000000 0.272662 -0.625047 0.000000 0.236653 -0.454794 0.000000 0.238109 -0.147963 0.000000 0.428008 0.066117 0.000000 0.335064 0.347057 0.000000 0.298065 0.881866 0.000000 0.248222 1.234971 0.000000 -0.000000 1.363741 0.000000 -0.248222 1.234971 0.000000 -0.298065 0.881866 0.000000 -0.335064 0.347057 0.000000 -0.428008 0.066117 0.000000 -0.238109 -0.147963 0.000000 -0.236653 -0.454794 0.000000 -0.272662 -0.625047 0.000000 -0.330444 -0.721291 0.000000 -0.390967 -0.699476 0.000000 -0.424396 -0.616391 0.000000 -0.451882 -0.446998 0.000000 -0.429404 -0.242816 0.000000 -0.385275 -0.012660 0.000000 -0.284381 0.200392 0.000000 -0.156305 0.350116 0.000000 
0.000000 0.270661 0.000000 0.130665 0.222490 0.000000 0.237201 0.102679 0.000000 0.313665 -0.070099 0.000000 0.342830 -0.257491 0.000000 0.341253 -0.425306 0.000000 0.303769 -0.563157 0.000000 0.247058 -0.623842 0.000000 0.180710 -0.632793 0.000000 0.105292 -0.525841 0.000000 0.051956 -0.378384 0.000000 0.009168 -0.123634 0.000000 0.045066 0.083538 0.000000 -0.024743 0.315572 0.000000 -0.010920 0.802687 0.000000 0.017067 1.230660 0.000000 -0.000000 1.415178 0.000000 -0.017067 1.230660 0.000000 0.010920 0.802687 0.000000 0.024743 0.315572 0.000000 -0.045066 0.083538 0.000000 -0.009168 -0.123634 0.000000 -0.051956 -0.378384 0.000000 -0.105292 -0.525841 0.000000 -0.180710 -0.632793 0.000000 -0.247058 -0.623842 0.000000 -0.303769 -0.563157 0.000000 -0.341253 -0.425306 0.000000 -0.342830 -0.257491 0.000000 -0.313665 -0.070099 0.000000 -0.237201 0.102679 0.000000 -0.130665 0.222490 0.000000 
0.000000 0.148764 0.000000 0.098511 0.112915 0.000000 0.175208 0.017393 0.000000 0.223618 -0.118288 0.000000 0.227997 -0.270405 0.000000 0.202728 -0.407937 0.000000 0.142971 -0.522196 0.000000 0.066655 -0.576417 0.000000 -0.015239 -0.579525 0.000000 -0.100038 -0.496294 0.000000 -0.146309 -0.358671 0.000000 -0.194827 -0.141072 0.000000 -0.163902 0.100029 0.000000 -0.215557 0.403043 0.000000 -0.209463 0.840056 0.000000 -0.128262 1.224051 0.000000 0.000000 1.397875 0.000000 0.128262 1.224051 0.000000 0.209463 0.840056 0.000000 0.215557 0.403043 0.000000 0.163902 0.100029 0.000000 0.194827 -0.141072 0.000000 0.146309 -0.358671 0.000000 0.100038 -0.496294 0.000000 0.015239 -0.579525 0.000000 -0.066655 -0.576417 0.000000 -0.142971 -0.522196 0.000000 -0.202728 -0.407937 0.000000 -0.227997 -0.270405 0.000000 -0.223618 -0.118288 0.000000 -0.175208 0.017393 0.000000 -0.098511 0.112915 0.000000 
0.000000 0.073639 0.000000 0.062955 0.047282 0.000000 0.106944 -0.022427 0.000000 0.121327 -0.122888 0.000000 0.096860 -0.236600 0.000000 0.036879 -0.340280 0.000000 -0.053291 -0.427084 0.000000 -0.167445 -0.465633 0.000000 -0.283284 -0.466099 0.000000 -0.401997 -0.394771 0.000000 -0.483637 -0.283595 0.000000 -0.550550 -0.106041 0.000000 -0.549153 0.104268 0.000000 -0.545767 0.361133 0.000000 -0.451105 0.715392 0.000000 -0.265908 1.021197 0.000000 0.000000 1.158653 0.000000 0.265908 1.021197 0.000000 0.451105 0.715392 0.000000 0.545767 0.361133 0.000000 0.549153 0.104268 0.000000 0.550550 -0.106041 0.000000 0.483637 -0.283595 0.000000 0.401997 -0.394771 0.000000 0.283284 -0.466099 0.000000 0.167445 -0.465633 0.000000 0.053291 -0.427084 0.000000 -0.036879 -0.340280 0.000000 -0.096860 -0.236600 0.000000 -0.121327 -0.122888 0.000000 -0.106944 -0.022427 0.000000 -0.062955 0.047282 0.000000 
0.000000 0.022853 0.000000 0.033960 0.005971 0.000000 0.050034 -0.040979 0.000000 0.037478 -0.108204 0.000000 -0.013303 -0.185957 0.000000 -0.100542 -0.257787 0.000000 -0.218874 -0.317873 0.000000 -0.362386 -0.346424 0.000000 -0.505367 -0.344973 0.000000 -0.649943 -0.295940 0.000000 -0.747604 -0.210117 0.000000 -0.825100 -0.075556 0.000000 -0.815613 0.095245 0.000000 -0.773603 0.304995 0.000000 -0.617421 0.560197 0.000000 -0.354018 0.772946 0.000000 0.000000 0.866059 0.000000 0.354018 0.772946 0.000000 0.617421 0.560197 0.000000 0.773603 0.304995 0.000000 0.815613 0.095245 0.000000 0.825100 -0.075556 0.000000 0.747604 -0.210117 0.000000 0.649943 -0.295940 0.000000 0.505367 -0.344973 0.000000 0.362386 -0.346424 0.000000 0.218874 -0.317873 0.000000 0.100542 -0.257787 0.000000 0.013303 -0.185957 0.000000 -0.037478 -0.108204 0.000000 -0.050034 -0.040979 0.000000 -0.033960 0.005971 0.000000 
-0.000000 0.005719 0.000000 0.011427 -0.002752 0.000000 0.005971 -0.025946 0.000000 -0.029552 -0.059551 0.000000 -0.102233 -0.098580 0.000000 -0.215509 -0.134708 0.000000 -0.360020 -0.165241 0.000000 -0.533382 -0.179140 0.000000 -0.706444 -0.178542 0.000000 -0.878354 -0.152534 0.000000 -1.002385 -0.108438 0.000000 -1.088472 -0.038031 0.000000 -1.077941 0.052771 0.000000 -0.993227 0.162941 0.000000 -0.772946 0.295807 0.000000 -0.433029 0.403776 0.000000 0.000000 0.450617 0.000000 0.433029 0.403776 0.000000 0.772946 0.295807 0.000000 0.993227 0.162941 0.000000 1.077941 0.052771 0.000000 1.088472 -0.038031 0.000000 1.002385 -0.108438 0.000000 0.878354 -0.152534 0.000000 0.706444 -0.178542 0.000000 0.533382 -0.179140 0.000000 0.360020 -0.165241 0.000000 0.215509 -0.134708 0.000000 0.102233 -0.098580 0.000000 0.029552 -0.059551 0.000000 -0.005971 -0.025946 0.000000 -0.011427 -0.002752 0.000000 
