# vtk DataFile Version 2.0
Comment goes here
ASCII

DATASET STRUCTURED_POINTS
FIELD FieldData 1
TIME 1 1 double
0.32000000
DIMENSIONS    32   32   1

ORIGIN    0.000   0.000   0.000
SPACING   0.03125 0.03125   1.000

POINT_DATA   1024
VECTORS u double

0.000000 -0.000000 0.000000 -0.031561 -0.000000 0.000000 -0.067216 -0.000000 0.000000 -0.106214 -0.000000 0.000000 -0.156963 -0.000000 0.000000 -0.215756 -0.000000 0.000000 -0.293790 -0.000000 0.000000 -0.388100 -0.000000 0.000000 -0.510161 -0.000000 0.000000 -0.658676 -0.000000 0.000000 -0.833615 0.000000 0.000000 -1.016277 -0.000000 0.000000 -1.151449 -0.000000 0.000000 -1.175885 -0.000000 0.000000 -0.997748 -0.000000 0.000000 -0.604903 -0.000000 0.000000 -0.000000 0.000000 0.000000 0.604903 0.000000 0.000000 0.997748 0.000000 0.000000 1.175885 0.000000 0.000000 1.151449 0.000000 0.000000 1.016277 0.000000 0.000000 0.833615 0.000000 0.000000 0.658676 0.000000 0.000000 0.510161 0.000000 0.000000 0.388100 0.000000 0.000000 0.293790 0.000000 0.000000 0.215756 0.000000 0.000000 0.156963 0.000000 0.000000 0.106214 0.000000 0.000000 0.067216 -0.000000 0.000000 0.031561 0.000000 0.000000 
-0.000000 0.031561 0.000000 -0.029738 0.033608 0.000000 -0.063901 0.037326 0.000000 -0.100614 0.044873 0.000000 -0.149954 0.054771 0.000000 -0.205953 0.068413 0.000000 -0.282284 0.086172 0.000000 -0.373496 0.108186 0.000000 -0.492881 0.135288 0.000000 -0.638253 0.161727 0.000000 -0.809033 0.178800 0.000000 -0.991397 0.158917 0.000000 -1.122181 0.079804 0.000000 -1.154165 -0.076851 0.000000 -0.951792 -0.285491 0.000000 -0.543055 -0.498874 0.000000 -0.000000 -0.604903 0.000000 0.543055 -0.498874 0.000000 0.951792 -0.285491 0.000000 1.154165 -0.076851 0.000000 1.122181 0.079804 0.000000 0.991397 0.158917 0.000000 0.809033 0.178800 0.000000 0.638253 0.161727 0.000000 0.492881 0.135288 0.000000 0.373496 0.108186 0.000000 0.282284 0.086172 0.000000 0.205953 0.068413 0.000000 0.149954 0.054771 0.000000 0.100614 0.044873 0.000000 0.063901 0.037326 0.000000 0.029738 0.033608 0.000000 
0.000000 0.059476 0.000000 -0.025858 0.063901 0.000000 -0.056189 0.070876 0.000000 -0.089426 0.086053 0.000000 -0.134789 0.105340 0.000000 -0.186426 0.132329 0.000000 -0.255702 0.167543 0.000000 -0.335586 0.210597 0.000000 -0.435509 0.264757 0.000000 -0.546738 0.316152 0.000000 -0.667061 0.353144 0.000000 -0.771611 0.313147 0.000000 -0.805200 0.162768 0.000000 -0.727814 -0.170389 0.000000 -0.532564 -0.611110 0.000000 -0.306856 -0.951792 0.000000 0.000000 -1.086109 0.000000 0.306856 -0.951792 0.000000 0.532564 -0.611110 0.000000 0.727814 -0.170389 0.000000 0.805200 0.162768 0.000000 0.771611 0.313147 0.000000 0.667061 0.353144 0.000000 0.546738 0.316152 0.000000 0.435509 0.264757 0.000000 0.335586 0.210597 0.000000 0.255702 0.167543 0.000000 0.186426 0.132329 0.000000 0.134789 0.105340 0.000000 0.089426 0.086053 0.000000 0.056189 0.070876 0.000000 0.025858 0.063901 0.000000 
0.000000 0.083278 0.000000 -0.018596 0.089797 0.000000 -0.042576 0.100894 0.000000 -0.068167 0.123473 0.000000 -0.107639 0.151771 0.000000 -0.149726 0.189327 0.000000 -0.210011 0.235332 0.000000 -0.273718 0.287992 0.000000 -0.354099 0.346441 0.000000 -0.435044 0.393279 0.000000 -0.524850 0.403673 0.000000 -0.603080 0.297056 0.000000 -0.628916 0.036007 0.000000 -0.559629 -0.349487 0.000000 -0.290204 -0.706449 0.000000 -0.095302 -1.031438 0.000000 -0.000000 -1.218615 0.000000 0.095302 -1.031438 0.000000 0.290204 -0.706449 0.000000 0.559629 -0.349487 0.000000 0.628916 0.036007 0.000000 0.603080 0.297056 0.000000 0.524850 0.403673 0.000000 0.435044 0.393279 0.000000 0.354099 0.346441 0.000000 0.273718 0.287992 0.000000 0.210011 0.235332 0.000000 0.149726 0.189327 0.000000 0.107639 0.151771 0.000000 0.068167 0.123473 0.000000 0.042576 0.100894 0.000000 0.018596 0.089797 0.000000 
0.000000 0.096668 0.000000 -0.008951 0.106477 0.000000 -0.024514 0.120447 0.000000 -0.043073 0.151116 0.000000 -0.077306 0.186899 0.000000 -0.115520 0.234702 0.000000 -0.171412 0.291534 0.000000 -0.230609 0.354684 0.000000 -0.304028 0.426083 0.000000 -0.375248 0.486904 0.000000 -0.453808 0.521180 0.000000 -0.450436 0.417213 0.000000 -0.107880 0.119316 0.000000 0.548139 -0.509100 0.000000 0.869075 -1.075437 0.000000 0.510494 -1.241996 0.000000 -0.000000 -1.276712 0.000000 -0.510494 -1.241996 0.000000 -0.869075 -1.075437 0.000000 -0.548139 -0.509100 0.000000 0.107880 0.119316 0.000000 0.450436 0.417213 0.000000 0.453808 0.521180 0.000000 0.375248 0.486904 0.000000 0.304028 0.426083 0.000000 0.230609 0.354684 0.000000 0.171412 0.291534 0.000000 0.115520 0.234702 0.000000 0.077306 0.186899 0.000000 0.043073 0.151116 0.000000 0.024514 0.120447 0.000000 0.008951 0.106477 0.000000 
0.000000 0.101180 0.000000 0.003437 0.114312 0.000000 -0.002504 0.135016 0.000000 -0.011312 0.176265 0.000000 -0.040911 0.224218 0.000000 -0.070136 0.283432 0.000000 -0.121270 0.350420 0.000000 -0.169139 0.420609 0.000000 -0.233122 0.491080 0.000000 -0.272673 0.543059 0.000000 -0.240947 0.478861 0.000000 0.170697 -0.048872 0.000000 1.008999 -0.962568 0.000000 1.291507 -1.326442 0.000000 0.752533 -0.668804 0.000000 0.215468 -0.162363 0.000000 -0.000000 -0.197628 0.000000 -0.215468 -0.162363 0.000000 -0.752533 -0.668804 0.000000 -1.291507 -1.326442 0.000000 -1.008999 -0.962568 0.000000 -0.170697 -0.048872 0.000000 0.240947 0.478861 0.000000 0.272673 0.543059 0.000000 0.233122 0.491080 0.000000 0.169139 0.420609 0.000000 0.121270 0.350420 0.000000 0.070136 0.283432 0.000000 0.040911 0.224218 0.000000 0.011312 0.176265 0.000000 0.002504 0.135016 0.000000 -0.003437 0.114312 0.000000 
0.000000 0.089793 0.000000 0.020974 0.108982 0.000000 0.028271 0.135197 0.000000 0.028617 0.189523 0.000000 0.001409 0.245723 0.000000 -0.030429 0.315061 0.000000 -0.087731 0.390538 0.000000 -0.157063 0.466536 0.000000 -0.241226 0.529617 0.000000 -0.228795 0.494729 0.000000 -0.021208 0.077810 0.000000 0.438933 -0.832733 0.000000 0.384769 -1.001494 0.000000 -0.617787 -0.252634 0.000000 -1.126663 0.000602 0.000000 -0.596147 -0.489463 0.000000 0.000000 -0.845776 0.000000 0.596147 -0.489463 0.000000 1.126663 0.000602 0.000000 0.617787 -0.252634 0.000000 -0.384769 -1.001494 0.000000 -0.438933 -0.832733 0.000000 0.021208 0.077810 0.000000 0.228795 0.494729 0.000000 0.241226 0.529617 0.000000 0.157063 0.466536 0.000000 0.087731 0.390538 0.000000 0.030429 0.315061 0.000000 -0.001409 0.245723 0.000000 -0.028617 0.189523 0.000000 -0.028271 0.135197 0.000000 -0.020974 0.108982 0.000000 
0.000000 0.059233 0.000000 0.041126 0.086041 0.000000 0.061627 0.127373 0.000000 0.070680 0.203127 0.000000 0.040882 0.283264 0.000000 0.010286 0.372572 0.000000 -0.064018 0.477055 0.000000 -0.144371 0.574104 0.000000 -0.162841 0.562811 0.000000 0.018995 0.323041 0.000000 0.208689 -0.188866 0.000000 0.184636 -0.454849 0.000000 -0.409894 0.094151 0.000000 -0.376279 0.184990 0.000000 0.246854 -0.690443 0.000000 0.399142 -1.289026 0.000000 0.000000 -1.389923 0.000000 -0.399142 -1.289026 0.000000 -0.246854 -0.690443 0.000000 0.376279 0.184990 0.000000 0.409894 0.094151 0.000000 -0.184636 -0.454849 0.000000 -0.208689 -0.188866 0.000000 -0.018995 0.323041 0.000000 0.162841 0.562811 0.000000 0.144371 0.574104 0.000000 0.064018 0.477055 0.000000 -0.010286 0.372572 0.000000 -0.040882 0.283264 0.000000 -0.070680 0.203127 0.000000 -0.061627 0.127373 0.000000 -0.041126 0.086041 0.000000 
-0.000000 0.007540 0.000000 0.073271 0.047355 0.000000 0.116112 0.105643 0.000000 0.140313 0.210268 0.000000 0.109332 0.306117 0.000000 0.070390 0.419961 0.000000 -0.025754 0.545195 0.000000 -0.138940 0.565358 0.000000 0.033502 0.366250 0.000000 0.023004 0.123199 0.000000 0.165987 -0.087831 0.000000 0.107848 -0.214150 0.000000 0.156883 -0.440578 0.000000 0.989043 -0.909382 0.000000 1.283496 -0.774819 0.000000 0.785573 -0.242609 0.000000 0.000000 -0.047492 0.000000 -0.785573 -0.242609 0.000000 -1.283496 -0.774819 0.000000 -0.989043 -0.909382 0.000000 -0.156883 -0.440578 0.000000 -0.107848 -0.214150 0.000000 -0.165987 -0.087831 0.000000 -0.023004 0.123199 0.000000 -0.033502 0.366250 0.000000 0.138940 0.565358 0.000000 0.025754 0.545195 0.000000 -0.070390 0.419961 0.000000 -0.109332 0.306117 0.000000 -0.140313 0.210268 0.000000 -0.116112 0.105643 0.000000 -0.073271 0.047355 0.000000 
0.000000 -0.087309 0.000000 0.107110 -0.030071 0.000000 0.173475 0.060332 0.000000 0.204434 0.209907 0.000000 0.154158 0.353186 0.000000 0.095733 0.507658 0.000000 -0.045226 0.686384 0.000000 -0.018637 0.514847 0.000000 0.149598 0.400868 0.000000 -0.039015 0.190556 0.000000 0.317231 -0.273710 0.000000 0.315589 -0.445745 0.000000 0.465030 -0.787044 0.000000 0.699706 -0.941623 0.000000 0.486305 -0.486972 0.000000 0.283878 -0.005529 0.000000 0.000000 0.181223 0.000000 -0.283878 -0.005529 0.000000 -0.486305 -0.486972 0.000000 -0.699706 -0.941623 0.000000 -0.465030 -0.787044 0.000000 -0.315589 -0.445745 0.000000 -0.317231 -0.273710 0.000000 0.039015 0.190556 0.000000 -0.149598 0.400868 0.000000 0.018637 0.514847 0.000000 0.045226 0.686384 0.000000 -0.095733 0.507658 0.000000 -0.154158 0.353186 0.000000 -0.204434 0.209907 0.000000 -0.173475 0.060332 0.000000 -0.107110 -0.030071 0.000000 
-0.000000 -0.206679 0.000000 0.150214 -0.126120 0.000000 0.253982 0.008319 0.000000 0.319908 0.229585 0.000000 0.273235 0.414818 0.000000 0.270504 0.619345 0.000000 0.122306 0.659565 0.000000 0.433122 0.370534 0.000000 0.016963 0.386627 0.000000 0.376560 -0.044434 0.000000 0.624639 -0.442434 0.000000 0.102676 -0.361949 0.000000 0.266897 -0.824695 0.000000 0.107973 -0.930658 0.000000 0.076686 -0.358992 0.000000 0.048448 0.243696 0.000000 0.000000 0.520265 0.000000 -0.048448 0.243696 0.000000 -0.076686 -0.358992 0.000000 -0.107973 -0.930658 0.000000 -0.266897 -0.824695 0.000000 -0.102676 -0.361949 0.000000 -0.624639 -0.442434 0.000000 -0.376560 -0.044434 0.000000 -0.016963 0.386627 0.000000 -0.433122 0.370534 0.000000 -0.122306 0.659565 0.000000 -0.270504 0.619345 0.000000 -0.273235 0.414818 0.000000 -0.319908 0.229585 0.000000 -0.253982 0.008319 0.000000 -0.150214 -0.126120 0.000000 
0.000000 -0.387737 0.000000 0.174783 -0.284053 0.000000 0.320545 -0.109362 0.000000 0.423891 0.190655 0.000000 0.416664 0.402589 0.000000 0.366501 0.658586 0.000000 0.317418 0.523766 0.000000 0.449694 0.620191 0.000000 -0.211607 0.457431 0.000000 0.550229 -0.417120 0.000000 0.440608 0.000174 0.000000 -0.174510 -0.088003 0.000000 -0.025718 -0.792342 0.000000 -0.381079 -0.751413 0.000000 -0.346759 -0.427447 0.000000 -0.244488 0.071157 0.000000 0.000000 0.278119 0.000000 0.244488 0.071157 0.000000 0.346759 -0.427447 0.000000 0.381079 -0.751413 0.000000 0.025718 -0.792342 0.000000 0.174510 -0.088003 0.000000 -0.440608 0.000174 0.000000 -0.550229 -0.417120 0.000000 0.211607 0.457431 0.000000 -0.449694 0.620191 0.000000 -0.317418 0.523766 0.000000 -0.366501 0.658586 0.000000 -0.416664 0.402589 0.000000 -0.423891 0.190655 0.000000 -0.320545 -0.109362 0.000000 -0.174783 -0.284053 0.000000 
-0.000000 -0.556246 0.000000 0.166819 -0.446666 0.000000 0.333730 -0.240789 0.000000 0.470791 0.133466 0.000000 0.522063 0.472208 0.000000 0.491714 0.718591 0.000000 0.576586 0.576372 0.000000 0.232853 0.899559 0.000000 0.310519 0.286092 0.000000 0.686900 -0.696649 0.000000 0.215426 0.282305 0.000000 -0.033088 0.104377 0.000000 -0.059138 -0.618126 0.000000 -0.295624 -0.609616 0.000000 -0.289285 -0.495583 0.000000 -0.217897 -0.103064 0.000000 0.000000 0.031288 0.000000 0.217897 -0.103064 0.000000 0.289285 -0.495583 0.000000 0.295624 -0.609616 0.000000 0.059138 -0.618126 0.000000 0.033088 0.104377 0.000000 -0.215426 0.282305 0.000000 -0.686900 -0.696649 0.000000 -0.310519 0.286092 0.000000 -0.232853 0.899559 0.000000 -0.576586 0.576372 0.000000 -0.491714 0.718591 0.000000 -0.522063 0.472208 0.000000 -0.470791 0.133466 0.000000 -0.333730 -0.240789 0.000000 -0.166819 -0.446666 0.000000 
0.000000 -0.721374 0.000000 0.096381 -0.617783 0.000000 0.240236 -0.413334 0.000000 0.408949 0.002322 0.000000 0.590425 0.381667 0.000000 0.633023 0.604063 0.000000 0.486088 0.782627 0.000000 -0.052637 0.886258 0.000000 0.560881 0.003383 0.000000 0.570975 -0.322027 0.000000 0.201713 0.720162 0.000000 0.243882 0.186562 0.000000 0.107653 -0.529805 0.000000 -0.032141 -0.521266 0.000000 -0.129152 -0.505175 0.000000 -0.119466 -0.218128 0.000000 0.000000 -0.157674 0.000000 0.119466 -0.218128 0.000000 0.129152 -0.505175 0.000000 0.032141 -0.521266 0.000000 -0.107653 -0.529805 0.000000 -0.243882 0.186562 0.000000 -0.201713 0.720162 0.000000 -0.570975 -0.322027 0.000000 -0.560881 0.003383 0.000000 0.052637 0.886258 0.000000 -0.486088 0.782627 0.000000 -0.633023 0.604063 0.000000 -0.590425 0.381667 0.000000 -0.408949 0.002322 0.000000 -0.240236 -0.413334 0.000000 -0.096381 -0.617783 0.000000 
0.000000 -0.749008 0.000000 -0.043199 -0.686902 0.000000 -0.014214 -0.553357 0.000000 0.032175 -0.216723 0.000000 0.142758 0.248135 0.000000 0.103282 0.822929 0.000000 -0.035666 1.262032 0.000000 0.033729 0.824765 0.000000 0.580058 -0.337520 0.000000 0.333361 -0.337481 0.000000 0.333017 0.609399 0.000000 0.650612 0.198437 0.000000 0.370273 -0.342104 0.000000 0.264780 -0.372810 0.000000 0.056845 -0.408257 0.000000 0.002554 -0.232216 0.000000 -0.000000 -0.207645 0.000000 -0.002554 -0.232216 0.000000 -0.056845 -0.408257 0.000000 -0.264780 -0.372810 0.000000 -0.370273 -0.342104 0.000000 -0.650612 0.198437 0.000000 -0.333017 0.609399 0.000000 -0.333361 -0.337481 0.000000 -0.580058 -0.337520 0.000000 -0.033729 0.824765 0.000000 0.035666 1.262032 0.000000 -0.103282 0.822929 0.000000 -0.142758 0.248135 0.000000 -0.032175 -0.216723 0.000000 0.014214 -0.553357 0.000000 0.043199 -0.686902 0.000000 
0.000000 -0.634977 0.000000 -0.374504 -0.603569 0.000000 -0.686902 -0.488708 0.000000 -0.927862 -0.154651 0.000000 -0.903625 0.310560 0.000000 -0.679727 0.782487 0.000000 -0.080696 0.852180 0.000000 0.582305 0.270534 0.000000 0.744070 -0.296248 0.000000 0.244785 -0.074986 0.000000 0.406589 0.402910 0.000000 0.854183 0.149305 0.000000 0.605026 -0.143973 0.000000 0.512079 -0.207837 0.000000 0.232216 -0.242949 0.000000 0.103823 -0.161283 0.000000 0.000000 -0.152566 0.000000 -0.103823 -0.161283 0.000000 -0.232216 -0.242949 0.000000 -0.512079 -0.207837 0.000000 -0.605026 -0.143973 0.000000 -0.854183 0.149305 0.000000 -0.406589 0.402910 0.000000 -0.244785 -0.074986 0.000000 -0.744070 -0.296248 0.000000 -0.582305 0.270534 0.000000 0.080696 0.852180 0.000000 0.679727 0.782487 0.000000 0.903625 0.310560 0.000000 0.927862 -0.154651 0.000000 0.686902 -0.488708 0.000000 0.374504 -0.603569 0.000000 
-0.000000 0.000000 0.000000 -0.634977 -0.000000 0.000000 -1.207138 -0.000000 0.000000 -1.612393 -0.000000 0.000000 -1.516440 -0.000000 0.000000 -0.991273 -0.000000 0.000000 0.048535 -0.000000 0.000000 0.713086 -0.000000 0.000000 0.589602 0.000000 0.000000 0.120589 0.000000 0.000000 0.439631 0.000000 0.000000 0.926409 0.000000 0.000000 0.738242 0.000000 0.000000 0.638464 -0.000000 0.000000 0.322567 -0.000000 0.000000 0.152566 -0.000000 0.000000 0.000000 -0.000000 0.000000 -0.152566 -0.000000 0.000000 -0.322567 -0.000000 0.000000 -0.638464 -0.000000 0.000000 -0.738242 -0.000000 0.000000 -0.926409 -0.000000 0.000000 -0.439631 -0.000000 0.000000 -0.120589 -0.000000 0.000000 -0.589602 0.000000 0.000000 -0.713086 0.000000 0.000000 -0.048535 0.000000 0.000000 0.991273 0.000000 0.000000 1.516440 0.000000 0.000000 1.612393 0.000000 0.000000 1.207138 0.000000 0.000000 0.634977 0.000000 0.000000 
-0.000000 0.634977 0.000000 -0.374504 0.603569 0.000000 -0.686902 0.488708 0.000000 -0.927862 0.154651 0.000000 -0.903625 -0.310560 0.000000 -0.679727 -0.782487 0.000000 -0.080696 -0.852180 0.000000 0.582305 -0.270534 0.000000 0.744070 0.296248 0.000000 0.244785 0.074986 0.000000 0.406589 -0.402910 0.000000 0.854183 -0.149305 0.000000 0.605026 0.143973 0.000000 0.512079 0.207837 0.000000 0.232216 0.242949 0.000000 0.103823 0.161283 0.000000 -0.000000 0.152566 0.000000 -0.103823 0.161283 0.000000 -0.232216 0.242949 0.000000 -0.512079 0.207837 0.000000 -0.605026 0.143973 0.000000 -0.854183 -0.149305 0.000000 -0.406589 -0.402910 0.000000 -0.244785 0.074986 0.000000 -0.744070 0.296248 0.000000 -0.582305 -0.270534 0.000000 0.080696 -0.852180 0.000000 0.679727 -0.782487 0.000000 0.903625 -0.310560 0.000000 0.927862 0.154651 0.000000 0.686902 0.488708 0.000000 0.374504 0.603569 0.000000 
0.000000 0.749008 0.000000 -0.043199 0.686902 0.000000 -0.014214 0.553357 0.000000 0.032175 0.216723 0.000000 0.142758 -0.248135 0.000000 0.103282 -0.822929 0.000000 -0.035666 -1.262032 0.000000 0.033729 -0.824765 0.000000 0.580058 0.337520 0.000000 0.333361 0.337481 0.000000 0.333017 -0.609399 0.000000 0.650612 -0.198437 0.000000 0.370273 0.342104 0.000000 0.264780 0.372810 0.000000 0.056845 0.408257 0.000000 0.002554 0.232216 0.000000 0.000000 0.207645 0.000000 -0.002554 0.232216 0.000000 -0.056845 0.408257 0.000000 -0.264780 0.372810 0.000000 -0.370273 0.342104 0.000000 -0.650612 -0.198437 0.000000 -0.333017 -0.609399 0.000000 -0.333361 0.337481 0.000000 -0.580058 0.337520 0.000000 -0.033729 -0.824765 0.000000 0.035666 -1.262032 0.000000 -0.103282 -0.822929 0.000000 -0.142758 -0.248135 0.000000 -0.032175 0.216723 0.000000 0.014214 0.553357 0.000000 0.043199 0.686902 0.000000 
-0.000000 0.721374 0.000000 0.096381 0.617783 0.000000 0.240236 0.413334 0.000000 0.408949 -0.002322 0.000000 0.590425 -0.381667 0.000000 0.633023 -0.604063 0.000000 0.486088 -0.782627 0.000000 -0.052637 -0.886258 0.000000 0.560881 -0.003383 0.000000 0.570975 0.322027 0.000000 0.201713 -0.720162 0.000000 0.243882 -0.186562 0.000000 0.107653 0.529805 0.000000 -0.032141 0.521266 0.000000 -0.129152 0.505175 0.000000 -0.119466 0.218128 0.000000 0.000000 0.157674 0.000000 0.119466 0.218128 0.000000 0.129152 0.505175 0.000000 0.032141 0.521266 0.000000 -0.107653 0.529805 0.000000 -0.243882 -0.186562 0.000000 -0.201713 -0.720162 0.000000 -0.570975 0.322027 0.000000 -0.560881 -0.003383 0.000000 0.052637 -0.886258 0.000000 -0.486088 -0.782627 0.000000 -0.633023 -0.604063 0.000000 -0.590425 -0.381667 0.000000 -0.408949 -0.002322 0.000000 -0.240236 0.413334 0.000000 -0.096381 0.617783 0.000000 
0.000000 0.556246 0.000000 0.166819 0.446666 0.000000 0.333730 0.240789 0.000000 0.470791 -0.133466 0.000000 0.522063 -0.472208 0.000000 0.491714 -0.718591 0.000000 0.576586 -0.576372 0.000000 0.232853 -0.899559 0.000000 0.310519 -0.286092 0.000000 0.686900 0.696649 0.000000 0.215426 -0.282305 0.000000 -0.033088 -0.104377 0.000000 -0.059138 0.618126 0.000000 -0.295624 0.609616 0.000000 -0.289285 0.495583 0.000000 -0.217897 0.103064 0.000000 0.000000 -0.031288 0.000000 0.217897 0.103064 0.000000 0.289285 0.495583 0.000000 0.295624 0.609616 0.000000 0.059138 0.618126 0.000000 0.033088 -0.104377 0.000000 -0.215426 -0.282305 0.000000 -0.686900 0.696649 0.000000 -0.310519 -0.286092 0.000000 -0.232853 -0.899559 0.000000 -0.576586 -0.576372 0.000000 -0.491714 -0.718591 0.000000 -0.522063 -0.472208 0.000000 -0.470791 -0.133466 0.000000 -0.333730 0.240789 0.000000 -0.166819 0.446666 0.000000 
-0.000000 0.387737 0.000000 0.174783 0.284053 0.000000 0.320545 0.109362 0.000000 0.423891 -0.190655 0.000000 0.416664 -0.402589 0.000000 0.366501 -0.658586 0.000000 0.317418 -0.523766 0.000000 0.449694 -0.620191 0.000000 -0.211607 -0.457431 0.000000 0.550229 0.417120 0.000000 0.440608 -0.000174 0.000000 -0.174510 0.088003 0.000000 -0.025718 0.792342 0.000000 -0.381079 0.751413 0.000000 -0.346759 0.427447 0.000000 -0.244488 -0.071157 0.000000 0.000000 -0.278119 0.000000 0.244488 -0.071157 0.000000 0.346759 0.427447 0.000000 0.381079 0.751413 0.000000 0.025718 0.792342 0.000000 0.174510 0.088003 0.000000 -0.440608 -0.000174 0.000000 -0.550229 0.417120 0.000000 0.211607 -0.457431 0.000000 -0.449694 -0.620191 0.000000 -0.317418 -0.523766 0.000000 -0.366501 -0.658586 0.000000 -0.416664 -0.402589 0.000000 -0.423891 -0.190655 0.000000 -0.320545 0.109362 0.000000 -0.174783 0.284053 0.000000 
0.000000 0.206679 0.000000 0.150214 0.126120 0.000000 0.253982 -0.008319 0.000000 0.319908 -0.229585 0.000000 0.273235 -0.414818 0.000000 0.270504 -0.619345 0.000000 0.122306 -0.659565 0.000000 0.433122 -0.370534 0.000000 0.016963 -0.386627 0.000000 0.376560 0.044434 0.000000 0.624639 0.442434 0.000000 0.102676 0.361949 0.000000 0.266897 0.824695 0.000000 0.107973 0.930658 0.000000 0.076686 0.358992 0.000000 0.048448 -0.243696 0.000000 0.000000 -0.520265 0.000000 -0.048448 -0.243696 0.000000 -0.076686 0.358992 0.000000 -0.107973 0.930658 0.000000 -0.266897 0.824695 0.000000 -0.102676 0.361949 0.000000 -0.624639 0.442434 0.000000 -0.376560 0.044434 0.000000 -0.016963 -0.386627 0.000000 -0.433122 -0.370534 0.000000 -0.122306 -0.659565 0.000000 -0.270504 -0.619345 0.000000 -0.273235 -0.414818 0.000000 -0.319908 -0.229585 0.000000 -0.253982 -0.008319 0.000000 -0.150214 0.126120 0.000000 
-0.000000 0.087309 0.000000 0.107110 0.030071 0.000000 0.173475 -0.060332 0.000000 0.204434 -0.209907 0.000000 0.154158 -0.353186 0.000000 0.095733 -0.507658 0.000000 -0.045226 -0.686384 0.000000 -0.018637 -0.514847 0.000000 0.149598 -0.400868 0.000000 -0.039015 -0.190556 0.000000 0.317231 0.273710 0.000000 0.315589 0.445745 0.000000 0.465030 0.787044 0.000000 0.699706 0.941623 0.000000 0.486305 0.486972 0.000000 0.283878 0.005529 0.000000 0.000000 -0.181223 0.000000 -0.283878 0.005529 0.000000 -0.486305 0.486972 0.000000 -0.699706 0.941623 0.000000 -0.465030 0.787044 0.000000 -0.315589 0.445745 0.000000 -0.317231 0.273710 0.000000 0.039015 -0.190556 0.000000 -0.149598 -0.400868 0.000000 0.018637 -0.514847 0.000000 0.045226 -0.686384 0.000000 -0.095733 -0.507658 0.000000 -0.154158 -0.353186 0.000000 -0.204434 -0.209907 0.000000 -0.173475 -0.060332 0.000000 -0.107110 0.030071 0.000000 
0.000000 -0.007540 0.000000 0.073271 -0.047355 0.000000 0.116112 -0.105643 0.000000 0.140313 -0.210268 0.000000 0.109332 -0.306117 0.000000 0.070390 -0.419961 0.000000 -0.025754 -0.545195 0.000000 -0.138940 -0.565358 0.000000 0.033502 -0.366250 0.000000 0.023004 -0.123199 0.000000 0.165987 0.087831 0.000000 0.107848 0.214150 0.000000 0.156883 0.440578 0.000000 0.989043 0.909382 0.000000 1.283496 0.774819 0.000000 0.785573 0.242609 0.000000 0.000000 0.047492 0.000000 -0.785573 0.242609 0.000000 -1.283496 0.774819 0.000000 -0.989043 0.909382 0.000000 -0.156883 0.440578 0.000000 -0.107848 0.214150 0.000000 -0.165987 0.087831 0.000000 -0.023004 -0.123199 0.000000 -0.033502 -0.366250 0.000000 0.138940 -0.565358 0.000000 0.025754 -0.545195 0.000000 -0.070390 -0.419961 0.000000 -0.109332 -0.306117 0.000000 -0.140313 -0.210268 0.000000 -0.116112 -0.105643 0.000000 -0.073271 -0.047355 0.000000 
-0.000000 -0.059233 0.000000 0.041126 -0.086041 0.000000 0.061627 -0.127373 0.000000 0.070680 -0.203127 0.000000 0.040882 -0.283264 0.000000 0.010286 -0.372572 0.000000 -0.064018 -0.477055 0.000000 -0.144371 -0.574104 0.000000 -0.162841 -0.562811 0.000000 0.018995 -0.323041 0.000000 0.208689 0.188866 0.000000 0.184636 0.454849 0.000000 -0.409894 -0.094151 0.000000 -0.376279 -0.184990 0.000000 0.246854 0.690443 0.000000 0.399142 1.289026 0.000000 -0.000000 1.389923 0.000000 -0.399142 1.289026 0.000000 -0.246854 0.690443 0.000000 0.376279 -0.184990 0.000000 0.409894 -0.094151 0.000000 -0.184636 0.454849 0.000000 -0.208689 0.188866 0.000000 -0.018995 -0.323041 0.000000 0.162841 -0.562811 0.000000 0.144371 -0.574104 0.000000 0.064018 -0.477055 0.000000 -0.010286 -0.372572 0.000000 -0.040882 -0.283264 0.000000 -0.070680 -0.203127 0.000000 -0.061627 -0.127373 0.000000 -0.041126 -0.086041 0.000000 
-0.000000 -0.089793 0.000000 0.020974 -0.108982 0.000000 0.028271 -0.135197 0.000000 0.028617 -0.189523 0.000000 0.001409 -0.245723 0.000000 -0.030429 -0.315061 0.000000 -0.087731 -0.390538 0.000000 -0.157063 -0.466536 0.000000 -0.241226 -0.529617 0.000000 -0.228795 -0.494729 0.000000 -0.021208 -0.077810 0.000000 0.438933 0.832733 0.000000 0.384769 1.001494 0.000000 -0.617787 0.252634 0.000000 -1.126663 -0.000602 0.000000 -0.596147 0.489463 0.000000 -0.000000 0.845776 0.000000 0.596147 0.489463 0.000000 1.126663 -0.000602 0.000000 0.617787 0.252634 0.000000 -0.384769 1.001494 0.000000 -0.438933 0.832733 0.000000 0.021208 -0.077810 0.000000 0.228795 -0.494729 0.000000 0.241226 -0.529617 0.000000 0.157063 -0.466536 0.000000 0.087731 -0.390538 0.000000 0.030429 -0.315061 0.000000 -0.001409 -0.245723 0.000000 -0.028617 -0.189523 0.000000 -0.028271 -0.135197 0.000000 -0.020974 -0.108982 0.000000 
-0.000000 -0.101180 0.000000 0.003437 -0.114312 0.000000 -0.002504 -0.135016 0.000000 -0.011312 -0.176265 0.000000 -0.040911 -0.224218 0.000000 -0.070136 -0.283432 0.000000 -0.121270 -0.350420 0.000000 -0.169139 -0.420609 0.000000 -0.233122 -0.491080 0.000000 -0.272673 -0.543059 0.000000 -0.240947 -0.478861 0.000000 0.170697 0.048872 0.000000 1.008999 0.962568 0.000000 1.291507 1.326442 0.000000 0.752533 0.668804 0.000000 0.215468 0.162363 0.000000 -0.000000 0.197628 0.000000 -0.215468 0.162363 0.000000 -0.752533 0.668804 0.000000 -1.291507 1.326442 0.000000 -1.008999 0.962568 0.000000 -0.170697 0.048872 0.000000 0.240947 -0.478861 0.000000 0.272673 -0.543059 0.000000 0.233122 -0.491080 0.000000 0.169139 -0.420609 0.000000 0.121270 -0.350420 0.000000 0.070136 -0.283432 0.000000 0.040911 -0.224218 0.000000 0.011312 -0.176265 0.000000 0.002504 -0.135016 0.000000 -0.003437 -0.114312 0.000000 
-0.000000 -0.096668 0.000000 -0.008951 -0.106477 0.000000 -0.024514 -0.120447 0.000000 -0.043073 -0.151116 0.000000 -0.077306 -0.186899 0.000000 -0.115520 -0.234702 0.000000 -0.171412 -0.291534 0.000000 -0.230609 -0.354684 0.000000 -0.304028 -0.426083 0.000000 -0.375248 -0.486904 0.000000 -0.453808 -0.521180 0.000000 -0.450436 -0.417213 0.000000 -0.107880 -0.119316 0.000000 0.548139 0.509100 0.000000 0.869075 1.075437 0.000000 0.510494 1.241996 0.000000 0.000000 1.276712 0.000000 -0.510494 1.241996 0.000000 -0.869075 1.075437 0.000000 -0.548139 0.509100 0.000000 0.107880 -0.119316 0.000000 0.450436 -0.417213 0.000000 0.453808 -0.521180 0.000000 0.375248 -0.486904 0.000000 0.304028 -0.426083 0.000000 0.230609 -0.354684 0.000000 0.171412 -0.291534 0.000000 0.115520 -0.234702 0.000000 0.077306 -0.186899 0.000000 0.043073 -0.151116 0.000000 0.024514 -0.120447 0.000000 0.008951 -0.106477 0.000000 
-0.000000 -0.083278 0.000000 -0.018596 -0.089797 0.000000 -0.042576 -0.100894 0.000000 -0.068167 -0.123473 0.000000 -0.107639 -0.151771 0.000000 -0.149726 -0.189327 0.000000 -0.210011 -0.235332 0.000000 -0.273718 -0.287992 0.000000 -0.354099 -0.346441 0.000000 -0.435044 -0.393279 0.000000 -0.524850 -0.403673 0.000000 -0.603080 -0.297056 0.000000 -0.628916 -0.036007 0.000000 -0.559629 0.349487 0.000000 -0.290204 0.706449 0.000000 -0.095302 1.031438 0.000000 0.000000 1.218615 0.000000 0.095302 1.031438 0.000000 0.290204 0.706449 0.000000 0.559629 0.349487 0.000000 0.628916 -0.036007 0.000000 0.603080 -0.297056 0.000000 0.524850 -0.403673 0.000000 0.435044 -0.393279 0.000000 0.354099 -0.346441 0.000000 0.273718 -0.287992 0.000000 0.210011 -0.235332 0.000000 0.149726 -0.189327 0.000000 0.107639 -0.151771 0.000000 0.068167 -0.123473 0.000000 0.042576 -0.100894 0.000000 0.018596 -0.089797 0.000000 
-0.000000 -0.059476 0.000000 -0.025858 -0.063901 0.000000 -0.056189 -0.070876 0.000000 -0.089426 -0.086053 0.000000 -0.134789 -0.105340 0.000000 -0.186426 -0.132329 0.000000 -0.255702 -0.167543 0.000000 -0.335586 -0.210597 0.000000 -0.435509 -0.264757 0.000000 -0.546738 -0.316152 0.000000 -0.667061 -0.353144 0.000000 -0.771611 -0.313147 0.000000 -0.805200 -0.162768 0.000000 -0.727814 0.170389 0.000000 -0.532564 0.611110 0.000000 -0.306856 0.951792 0.000000 -0.000000 1.086109 0.000000 0.306856 0.951792 0.000000 0.532564 0.611110 0.000000 0.727814 0.170389 0.000000 0.805200 -0.162768 0.000000 0.771611 -0.313147 0.000000 0.667061 -0.353144 0.000000 0.546738 -0.316152 0.000000 0.435509 -0.264757 0.000000 0.335586 -0.210597 0.000000 0.255702 -0.167543 0.000000 0.186426 -0.132329 0.000000 0.134789 -0.105340 0.000000 0.089426 -0.086053 0.000000 0.056189 -0.070876 0.000000 0.025858 -0.063901 0.000000 
-0.000000 -0.031561 0.000000 -0.029738 -0.033608 0.000000 -0.063901 -0.037326 0.000000 -0.100614 -0.044873 0.000000 -0.149954 -0.054771 0.000000 -0.205953 -0.068413 0.000000 -0.282284 -0.086172 0.000000 -0.373496 -0.108186 0.000000 -0.492881 -0.135288 0.000000 -0.638253 -0.161727 0.000000 -0.809033 -0.178800 0.000000 -0.991397 -0.158917 0.000000 -1.122181 -0.079804 0.000000 -1.154165 0.076851 0.000000 -0.951792 0.285491 0.000000 -0.543055 0.498874 0.000000 -0.000000 0.604903 0.000000 0.543055 0.498874 0.000000 0.951792 0.285491 0.000000 1.154165 0.076851 0.000000 1.122181 -0.079804 0.000000 0.991397 -0.158917 0.000000 0.809033 -0.178800 0.000000 0.638253 -0.161727 0.000000 0.492881 -0.135288 0.000000 0.373496 -0.108186 0.000000 0.282284 -0.086172 0.000000 0.205953 -0.068413 0.000000 0.149954 -0.054771 0.000000 0.100614 -0.044873 0.000000 0.063901 -0.037326 0.000000 0.029738 -0.033608 0.000000 
