# vtk DataFile Version 2.0
Comment goes here
ASCII

DATASET STRUCTURED_POINTS
FIELD FieldData 1
TIME 1 1 double
0.40000000
DIMENSIONS    32   32   1

ORIGIN    0.000   0.000   0.000
SPACING   0.03125 0.03125   1.000

POINT_DATA   1024
VECTORS u double

0.000000 -0.000000 0.000000 0.048096 -0.000000 0.000000 0.090089 -0.000000 0.000000 0.127554 -0.000000 0.000000 0.148370 -0.000000 0.000000 0.160580 -0.000000 0.000000 0.146870 -0.000000 0.000000 0.117417 -0.000000 0.000000 0.049112 -0.000000 0.000000 -0.047890 -0.000000 0.000000 -0.200907 0.000000 0.000000 -0.383222 -0.000000 0.000000 -0.589885 -0.000000 0.000000 -0.736237 -0.000000 0.000000 -0.757066 -0.000000 0.000000 -0.568906 -0.000000 0.000000 -0.000000 -0.000000 0.000000 0.568906 0.000000 0.000000 0.757066 0.000000 0.000000 0.736237 0.000000 0.000000 0.589885 0.000000 0.000000 0.383222 0.000000 0.000000 0.200907 0.000000 0.000000 0.047890 0.000000 0.000000 -0.049112 0.000000 0.000000 -0.117417 0.000000 0.000000 -0.146870 0.000000 0.000000 -0.160580 0.000000 0.000000 -0.148370 0.000000 0.000000 -0.127554 0.000000 0.000000 -0.090089 -0.000000 0.000000 -0.048096 -0.000000 0.000000 
0.000000 -0.048096 0.000000 0.050791 -0.045045 0.000000 0.095438 -0.039729 0.000000 0.135176 -0.029141 0.000000 0.158730 -0.016513 0.000000 0.173352 0.000750 0.000000 0.164167 0.021581 0.000000 0.139547 0.048879 0.000000 0.081013 0.082654 0.000000 -0.003061 0.125010 0.000000 -0.138680 0.167666 0.000000 -0.299824 0.194489 0.000000 -0.500130 0.176507 0.000000 -0.647745 0.083590 0.000000 -0.702805 -0.083665 0.000000 -0.546696 -0.378533 0.000000 -0.000000 -0.568906 0.000000 0.546696 -0.378533 0.000000 0.702805 -0.083665 0.000000 0.647745 0.083590 0.000000 0.500130 0.176507 0.000000 0.299824 0.194489 0.000000 0.138680 0.167666 0.000000 0.003061 0.125010 0.000000 -0.081013 0.082654 0.000000 -0.139547 0.048879 0.000000 -0.164167 0.021581 0.000000 -0.173352 0.000750 0.000000 -0.158730 -0.016513 0.000000 -0.135176 -0.029141 0.000000 -0.095438 -0.039729 0.000000 -0.050791 -0.045045 0.000000 
0.000000 -0.101582 0.000000 0.056109 -0.095438 0.000000 0.105187 -0.084385 0.000000 0.149325 -0.063293 0.000000 0.175951 -0.038176 0.000000 0.195482 -0.005437 0.000000 0.191555 0.033805 0.000000 0.176927 0.083154 0.000000 0.133815 0.142607 0.000000 0.074638 0.219694 0.000000 -0.025095 0.296764 0.000000 -0.149862 0.361449 0.000000 -0.320909 0.347920 0.000000 -0.460276 0.202675 0.000000 -0.572197 -0.101049 0.000000 -0.477965 -0.702805 0.000000 -0.000000 -1.093391 0.000000 0.477965 -0.702805 0.000000 0.572197 -0.101049 0.000000 0.460276 0.202675 0.000000 0.320909 0.347920 0.000000 0.149862 0.361449 0.000000 0.025095 0.296764 0.000000 -0.074638 0.219694 0.000000 -0.133815 0.142607 0.000000 -0.176927 0.083154 0.000000 -0.191555 0.033805 0.000000 -0.195482 -0.005437 0.000000 -0.175951 -0.038176 0.000000 -0.149325 -0.063293 0.000000 -0.105187 -0.084385 0.000000 -0.056109 -0.095438 0.000000 
0.000000 -0.160315 0.000000 0.066920 -0.150231 0.000000 0.125289 -0.132944 0.000000 0.177455 -0.099904 0.000000 0.210559 -0.062670 0.000000 0.237062 -0.014854 0.000000 0.243011 0.040136 0.000000 0.240212 0.106619 0.000000 0.223135 0.184942 0.000000 0.197287 0.283919 0.000000 0.157027 0.392167 0.000000 0.107510 0.490303 0.000000 -0.012561 0.486921 0.000000 -0.131347 0.334878 0.000000 -0.351891 -0.065976 0.000000 -0.271442 -0.950730 0.000000 0.000000 -1.524836 0.000000 0.271442 -0.950730 0.000000 0.351891 -0.065976 0.000000 0.131347 0.334878 0.000000 0.012561 0.486921 0.000000 -0.107510 0.490303 0.000000 -0.157027 0.392167 0.000000 -0.197287 0.283919 0.000000 -0.223135 0.184942 0.000000 -0.240212 0.106619 0.000000 -0.243011 0.040136 0.000000 -0.237062 -0.014854 0.000000 -0.210559 -0.062670 0.000000 -0.177455 -0.099904 0.000000 -0.125289 -0.132944 0.000000 -0.066920 -0.150231 0.000000 
0.000000 -0.235423 0.000000 0.080847 -0.220726 0.000000 0.150200 -0.194920 0.000000 0.211119 -0.148562 0.000000 0.248720 -0.097782 0.000000 0.281944 -0.037890 0.000000 0.292953 0.030655 0.000000 0.301696 0.103031 0.000000 0.303456 0.185532 0.000000 0.307219 0.285801 0.000000 0.311878 0.386540 0.000000 0.301516 0.531037 0.000000 0.276930 0.586778 0.000000 0.210787 0.542005 0.000000 0.015631 0.039045 0.000000 0.137370 -1.054696 0.000000 0.000000 -1.636275 0.000000 -0.137370 -1.054696 0.000000 -0.015631 0.039045 0.000000 -0.210787 0.542005 0.000000 -0.276930 0.586778 0.000000 -0.301516 0.531037 0.000000 -0.311878 0.386540 0.000000 -0.307219 0.285801 0.000000 -0.303456 0.185532 0.000000 -0.301696 0.103031 0.000000 -0.292953 0.030655 0.000000 -0.281944 -0.037890 0.000000 -0.248720 -0.097782 0.000000 -0.211119 -0.148562 0.000000 -0.150200 -0.194920 0.000000 -0.080847 -0.220726 0.000000 
0.000000 -0.322010 0.000000 0.101123 -0.300432 0.000000 0.185665 -0.263216 0.000000 0.257268 -0.198424 0.000000 0.298118 -0.133495 0.000000 0.335635 -0.059087 0.000000 0.347558 0.020385 0.000000 0.356846 0.096117 0.000000 0.381341 0.179419 0.000000 0.385184 0.275496 0.000000 0.458658 0.397869 0.000000 0.550334 0.525252 0.000000 0.535029 0.577650 0.000000 0.471979 0.596177 0.000000 0.602360 0.007440 0.000000 0.693040 -0.935098 0.000000 -0.000000 -1.250095 0.000000 -0.693040 -0.935098 0.000000 -0.602360 0.007440 0.000000 -0.471979 0.596177 0.000000 -0.535029 0.577650 0.000000 -0.550334 0.525252 0.000000 -0.458658 0.397869 0.000000 -0.385184 0.275496 0.000000 -0.381341 0.179419 0.000000 -0.356846 0.096117 0.000000 -0.347558 0.020385 0.000000 -0.335635 -0.059087 0.000000 -0.298118 -0.133495 0.000000 -0.257268 -0.198424 0.000000 -0.185665 -0.263216 0.000000 -0.101123 -0.300432 0.000000 
0.000000 -0.437669 0.000000 0.125030 -0.406391 0.000000 0.226744 -0.351064 0.000000 0.307056 -0.261016 0.000000 0.347508 -0.176150 0.000000 0.386851 -0.087329 0.000000 0.393439 0.009443 0.000000 0.410535 0.069247 0.000000 0.451391 0.157195 0.000000 0.479722 0.208484 0.000000 0.495264 0.221390 0.000000 0.411037 0.454666 0.000000 0.453901 0.665134 0.000000 0.828604 0.474675 0.000000 1.257562 -0.182016 0.000000 0.946043 -0.452336 0.000000 -0.000000 -0.250195 0.000000 -0.946043 -0.452336 0.000000 -1.257562 -0.182016 0.000000 -0.828604 0.474675 0.000000 -0.453901 0.665134 0.000000 -0.411037 0.454666 0.000000 -0.495264 0.221390 0.000000 -0.479722 0.208484 0.000000 -0.451391 0.157195 0.000000 -0.410535 0.069247 0.000000 -0.393439 0.009443 0.000000 -0.386851 -0.087329 0.000000 -0.347508 -0.176150 0.000000 -0.307056 -0.261016 0.000000 -0.226744 -0.351064 0.000000 -0.125030 -0.406391 0.000000 
0.000000 -0.572071 0.000000 0.154476 -0.527175 0.000000 0.276368 -0.445241 0.000000 0.366474 -0.319189 0.000000 0.402720 -0.213290 0.000000 0.446646 -0.105018 0.000000 0.437288 -0.003299 0.000000 0.457278 0.038165 0.000000 0.444895 0.110231 0.000000 0.251978 0.231623 0.000000 0.239831 0.466555 0.000000 0.511967 0.566614 0.000000 0.967547 0.160083 0.000000 1.213911 -0.207484 0.000000 1.045371 -0.109999 0.000000 0.421548 0.322464 0.000000 0.000000 0.641992 0.000000 -0.421548 0.322464 0.000000 -1.045371 -0.109999 0.000000 -1.213911 -0.207484 0.000000 -0.967547 0.160083 0.000000 -0.511967 0.566614 0.000000 -0.239831 0.466555 0.000000 -0.251978 0.231623 0.000000 -0.444895 0.110231 0.000000 -0.457278 0.038165 0.000000 -0.437288 -0.003299 0.000000 -0.446646 -0.105018 0.000000 -0.402720 -0.213290 0.000000 -0.366474 -0.319189 0.000000 -0.276368 -0.445241 0.000000 -0.154476 -0.527175 0.000000 
0.000000 -0.746622 0.000000 0.180468 -0.682759 0.000000 0.321272 -0.563062 0.000000 0.413254 -0.387367 0.000000 0.446250 -0.256322 0.000000 0.493604 -0.121897 0.000000 0.462491 -0.001188 0.000000 0.424797 0.061640 0.000000 0.273821 0.362494 0.000000 0.221673 0.413548 0.000000 0.420089 -0.038599 0.000000 0.457036 -0.273051 0.000000 0.345998 -0.036810 0.000000 -0.070182 0.396852 0.000000 -0.276075 0.610347 0.000000 -0.328919 0.593035 0.000000 0.000000 0.592900 0.000000 0.328919 0.593035 0.000000 0.276075 0.610347 0.000000 0.070182 0.396852 0.000000 -0.345998 -0.036810 0.000000 -0.457036 -0.273051 0.000000 -0.420089 -0.038599 0.000000 -0.221673 0.413548 0.000000 -0.273821 0.362494 0.000000 -0.424797 0.061640 0.000000 -0.462491 -0.001188 0.000000 -0.493604 -0.121897 0.000000 -0.446250 -0.256322 0.000000 -0.413254 -0.387367 0.000000 -0.321272 -0.563062 0.000000 -0.180468 -0.682759 0.000000 
0.000000 -0.933007 0.000000 0.197774 -0.848447 0.000000 0.351834 -0.678027 0.000000 0.442033 -0.444167 0.000000 0.477279 -0.293641 0.000000 0.551578 -0.121260 0.000000 0.441561 0.065509 0.000000 0.309269 0.226835 0.000000 0.081324 0.313355 0.000000 0.067971 0.085355 0.000000 -0.110443 0.231192 0.000000 -0.667103 0.640705 0.000000 -0.926706 0.687300 0.000000 -0.901075 0.414589 0.000000 -0.474581 0.148738 0.000000 -0.199807 0.046389 0.000000 -0.000000 -0.015846 0.000000 0.199807 0.046389 0.000000 0.474581 0.148738 0.000000 0.901075 0.414589 0.000000 0.926706 0.687300 0.000000 0.667103 0.640705 0.000000 0.110443 0.231192 0.000000 -0.067971 0.085355 0.000000 -0.081324 0.313355 0.000000 -0.309269 0.226835 0.000000 -0.441561 0.065509 0.000000 -0.551578 -0.121260 0.000000 -0.477279 -0.293641 0.000000 -0.442033 -0.444167 0.000000 -0.351834 -0.678027 0.000000 -0.197774 -0.848447 0.000000 
0.000000 -1.142169 0.000000 0.186700 -1.034593 0.000000 0.336451 -0.807321 0.000000 0.399559 -0.512813 0.000000 0.449400 -0.365868 0.000000 0.525352 -0.086179 0.000000 0.123007 0.241122 0.000000 -0.311259 0.421877 0.000000 -0.366059 0.603791 0.000000 -0.562273 0.605315 0.000000 -0.768558 0.696476 0.000000 -0.417249 0.543213 0.000000 0.136347 0.197162 0.000000 0.473115 -0.055274 0.000000 0.506159 -0.090921 0.000000 0.337706 0.118454 0.000000 -0.000000 0.193286 0.000000 -0.337706 0.118454 0.000000 -0.506159 -0.090921 0.000000 -0.473115 -0.055274 0.000000 -0.136347 0.197162 0.000000 0.417249 0.543213 0.000000 0.768558 0.696476 0.000000 0.562273 0.605315 0.000000 0.366059 0.603791 0.000000 0.311259 0.421877 0.000000 -0.123007 0.241122 0.000000 -0.525352 -0.086179 0.000000 -0.449400 -0.365868 0.000000 -0.399559 -0.512813 0.000000 -0.336451 -0.807321 0.000000 -0.186700 -1.034593 0.000000 
0.000000 -1.306406 0.000000 0.133346 -1.184898 0.000000 0.249589 -0.890886 0.000000 0.249874 -0.557115 0.000000 0.325990 -0.419434 0.000000 0.189775 0.205133 0.000000 -0.740422 0.902120 0.000000 -0.921051 0.715901 0.000000 -0.519491 0.564370 0.000000 -0.452892 0.487854 0.000000 -0.263314 0.086167 0.000000 -0.002736 -0.264200 0.000000 0.307017 -0.203064 0.000000 0.372909 0.044778 0.000000 0.268300 0.284147 0.000000 0.153343 0.552548 0.000000 -0.000000 0.659566 0.000000 -0.153343 0.552548 0.000000 -0.268300 0.284147 0.000000 -0.372909 0.044778 0.000000 -0.307017 -0.203064 0.000000 0.002736 -0.264200 0.000000 0.263314 0.086167 0.000000 0.452892 0.487854 0.000000 0.519491 0.564370 0.000000 0.921051 0.715901 0.000000 0.740422 0.902120 0.000000 -0.189775 0.205133 0.000000 -0.325990 -0.419434 0.000000 -0.249874 -0.557115 0.000000 -0.249589 -0.890886 0.000000 -0.133346 -1.184898 0.000000 
0.000000 -1.408861 0.000000 0.015077 -1.284182 0.000000 0.049650 -0.923849 0.000000 -0.085506 -0.589214 0.000000 0.019337 -0.305769 0.000000 -0.717337 0.980234 0.000000 -1.338208 1.351947 0.000000 -0.301586 0.200946 0.000000 -0.170592 0.135632 0.000000 -0.421899 0.349138 0.000000 -0.501052 0.246321 0.000000 -0.486272 -0.027118 0.000000 -0.365520 -0.178483 0.000000 -0.326147 -0.016557 0.000000 -0.220482 0.128645 0.000000 -0.115389 0.386754 0.000000 -0.000000 0.499972 0.000000 0.115389 0.386754 0.000000 0.220482 0.128645 0.000000 0.326147 -0.016557 0.000000 0.365520 -0.178483 0.000000 0.486272 -0.027118 0.000000 0.501052 0.246321 0.000000 0.421899 0.349138 0.000000 0.170592 0.135632 0.000000 0.301586 0.200946 0.000000 1.338208 1.351947 0.000000 0.717337 0.980234 0.000000 -0.019337 -0.305769 0.000000 0.085506 -0.589214 0.000000 -0.049650 -0.923849 0.000000 -0.015077 -1.284182 0.000000 
0.000000 -1.336561 0.000000 -0.164939 -1.234548 0.000000 -0.270907 -0.790303 0.000000 -0.529093 -0.526803 0.000000 -0.449739 0.212396 0.000000 -1.394656 1.562678 0.000000 -0.696926 0.486369 0.000000 0.465780 -0.451714 0.000000 -0.324801 0.684683 0.000000 -0.526922 0.818313 0.000000 -0.720988 0.150540 0.000000 -0.464367 -0.399732 0.000000 -0.400452 -0.363188 0.000000 -0.334075 -0.100261 0.000000 -0.261871 0.073389 0.000000 -0.157997 0.332066 0.000000 -0.000000 0.428788 0.000000 0.157997 0.332066 0.000000 0.261871 0.073389 0.000000 0.334075 -0.100261 0.000000 0.400452 -0.363188 0.000000 0.464367 -0.399732 0.000000 0.720988 0.150540 0.000000 0.526922 0.818313 0.000000 0.324801 0.684683 0.000000 -0.465780 -0.451714 0.000000 0.696926 0.486369 0.000000 1.394656 1.562678 0.000000 0.449739 0.212396 0.000000 0.529093 -0.526803 0.000000 0.270907 -0.790303 0.000000 0.164939 -1.234548 0.000000 
-0.000000 -1.078982 0.000000 -0.362988 -1.013275 0.000000 -0.671797 -0.559696 0.000000 -0.861375 -0.410383 0.000000 -0.988923 0.559794 0.000000 -1.073238 1.227421 0.000000 -0.021658 -0.508488 0.000000 -0.130344 -0.171179 0.000000 -0.572005 1.128334 0.000000 -0.228579 0.745325 0.000000 -0.192800 0.183765 0.000000 -0.180643 -0.347655 0.000000 -0.327093 -0.308775 0.000000 -0.304980 -0.155138 0.000000 -0.288587 -0.047432 0.000000 -0.177081 0.124883 0.000000 -0.000000 0.183977 0.000000 0.177081 0.124883 0.000000 0.288587 -0.047432 0.000000 0.304980 -0.155138 0.000000 0.327093 -0.308775 0.000000 0.180643 -0.347655 0.000000 0.192800 0.183765 0.000000 0.228579 0.745325 0.000000 0.572005 1.128334 0.000000 0.130344 -0.171179 0.000000 0.021658 -0.508488 0.000000 1.073238 1.227421 0.000000 0.988923 0.559794 0.000000 0.861375 -0.410383 0.000000 0.671797 -0.559696 0.000000 0.362988 -1.013275 0.000000 
0.000000 -0.610585 0.000000 -0.539491 -0.562751 0.000000 -1.013275 -0.291916 0.000000 -1.099187 -0.209676 0.000000 -1.423658 0.424260 0.000000 -0.539392 0.595413 0.000000 -0.196237 -0.456525 0.000000 -1.047881 0.098633 0.000000 -0.367415 0.782918 0.000000 0.080453 0.439108 0.000000 0.377909 0.102604 0.000000 0.264219 -0.265439 0.000000 0.030255 -0.238852 0.000000 -0.044556 -0.138767 0.000000 -0.124883 -0.054510 0.000000 -0.091989 0.043479 0.000000 0.000000 0.074627 0.000000 0.091989 0.043479 0.000000 0.124883 -0.054510 0.000000 0.044556 -0.138767 0.000000 -0.030255 -0.238852 0.000000 -0.264219 -0.265439 0.000000 -0.377909 0.102604 0.000000 -0.080453 0.439108 0.000000 0.367415 0.782918 0.000000 1.047881 0.098633 0.000000 0.196237 -0.456525 0.000000 0.539392 0.595413 0.000000 1.423658 0.424260 0.000000 1.099187 -0.209676 0.000000 1.013275 -0.291916 0.000000 0.539491 -0.562751 0.000000 
-0.000000 -0.000000 0.000000 -0.610585 -0.000000 0.000000 -1.125502 -0.000000 0.000000 -1.194417 -0.000000 0.000000 -1.544854 0.000000 0.000000 -0.345898 0.000000 0.000000 -0.354029 -0.000000 0.000000 -1.258948 -0.000000 0.000000 -0.156763 -0.000000 0.000000 0.306888 0.000000 0.000000 0.721453 0.000000 0.000000 0.512096 0.000000 0.000000 0.190576 0.000000 0.000000 0.034393 -0.000000 0.000000 -0.086959 0.000000 0.000000 -0.074627 -0.000000 0.000000 0.000000 0.000000 0.000000 0.074627 -0.000000 0.000000 0.086959 -0.000000 0.000000 -0.034393 -0.000000 0.000000 -0.190576 -0.000000 0.000000 -0.512096 -0.000000 0.000000 -0.721453 -0.000000 0.000000 -0.306888 -0.000000 0.000000 0.156763 -0.000000 0.000000 1.258948 0.000000 0.000000 0.354029 0.000000 0.000000 0.345898 0.000000 0.000000 1.544854 -0.000000 0.000000 1.194417 0.000000 0.000000 1.125502 0.000000 0.000000 0.610585 0.000000 0.000000 
-0.000000 0.610585 0.000000 -0.539491 0.562751 0.000000 -1.013275 0.291916 0.000000 -1.099187 0.209676 0.000000 -1.423658 -0.424260 0.000000 -0.539392 -0.595413 0.000000 -0.196237 0.456525 0.000000 -1.047881 -0.098633 0.000000 -0.367415 -0.782918 0.000000 0.080453 -0.439108 0.000000 0.377909 -0.102604 0.000000 0.264219 0.265439 0.000000 0.030255 0.238852 0.000000 -0.044556 0.138767 0.000000 -0.124883 0.054510 0.000000 -0.091989 -0.043479 0.000000 0.000000 -0.074627 0.000000 0.091989 -0.043479 0.000000 0.124883 0.054510 0.000000 0.044556 0.138767 0.000000 -0.030255 0.238852 0.000000 -0.264219 0.265439 0.000000 -0.377909 -0.102604 0.000000 -0.080453 -0.439108 0.000000 0.367415 -0.782918 0.000000 1.047881 -0.098633 0.000000 0.196237 0.456525 0.000000 0.539392 -0.595413 0.000000 1.423658 -0.424260 0.000000 1.099187 0.209676 0.000000 1.013275 0.291916 0.000000 0.539491 0.562751 0.000000 
-0.000000 1.078982 0.000000 -0.362988 1.013275 0.000000 -0.671797 0.559696 0.000000 -0.861375 0.410383 0.000000 -0.988923 -0.559794 0.000000 -1.073238 -1.227421 0.000000 -0.021658 0.508488 0.000000 -0.130344 0.171179 0.000000 -0.572005 -1.128334 0.000000 -0.228579 -0.745325 0.000000 -0.192800 -0.183765 0.000000 -0.180643 0.347655 0.000000 -0.327093 0.308775 0.000000 -0.304980 0.155138 0.000000 -0.288587 0.047432 0.000000 -0.177081 -0.124883 0.000000 0.000000 -0.183977 0.000000 0.177081 -0.124883 0.000000 0.288587 0.047432 0.000000 0.304980 0.155138 0.000000 0.327093 0.308775 0.000000 0.180643 0.347655 0.000000 0.192800 -0.183765 0.000000 0.228579 -0.745325 0.000000 0.572005 -1.128334 0.000000 0.130344 0.171179 0.000000 0.021658 0.508488 0.000000 1.073238 -1.227421 0.000000 0.988923 -0.559794 0.000000 0.861375 0.410383 0.000000 0.671797 0.559696 0.000000 0.362988 1.013275 0.000000 
-0.000000 1.336561 0.000000 -0.164939 1.234548 0.000000 -0.270907 0.790303 0.000000 -0.529093 0.526803 0.000000 -0.449739 -0.212396 0.000000 -1.394656 -1.562678 0.000000 -0.696926 -0.486369 0.000000 0.465780 0.451714 0.000000 -0.324801 -0.684683 0.000000 -0.526922 -0.818313 0.000000 -0.720988 -0.150540 0.000000 -0.464367 0.399732 0.000000 -0.400452 0.363188 0.000000 -0.334075 0.100261 0.000000 -0.261871 -0.073389 0.000000 -0.157997 -0.332066 0.000000 0.000000 -0.428788 0.000000 0.157997 -0.332066 0.000000 0.261871 -0.073389 0.000000 0.334075 0.100261 0.000000 0.400452 0.363188 0.000000 0.464367 0.399732 0.000000 0.720988 -0.150540 0.000000 0.526922 -0.818313 0.000000 0.324801 -0.684683 0.000000 -0.465780 0.451714 0.000000 0.696926 -0.486369 0.000000 1.394656 -1.562678 0.000000 0.449739 -0.212396 0.000000 0.529093 0.526803 0.000000 0.270907 0.790303 0.000000 0.164939 1.234548 0.000000 
-0.000000 1.408861 0.000000 0.015077 1.284182 0.000000 0.049650 0.923849 0.000000 -0.085506 0.589214 0.000000 0.019337 0.305769 0.000000 -0.717337 -0.980234 0.000000 -1.338208 -1.351947 0.000000 -0.301586 -0.200946 0.000000 -0.170592 -0.135632 0.000000 -0.421899 -0.349138 0.000000 -0.501052 -0.246321 0.000000 -0.486272 0.027118 0.000000 -0.365520 0.178483 0.000000 -0.326147 0.016557 0.000000 -0.220482 -0.128645 0.000000 -0.115389 -0.386754 0.000000 0.000000 -0.499972 0.000000 0.115389 -0.386754 0.000000 0.220482 -0.128645 0.000000 0.326147 0.016557 0.000000 0.365520 0.178483 0.000000 0.486272 0.027118 0.000000 0.501052 -0.246321 0.000000 0.421899 -0.349138 0.000000 0.170592 -0.135632 0.000000 0.301586 -0.200946 0.000000 1.338208 -1.351947 0.000000 0.717337 -0.980234 0.000000 -0.019337 0.305769 0.000000 0.085506 0.589214 0.000000 -0.049650 0.923849 0.000000 -0.015077 1.284182 0.000000 
-0.000000 1.306406 0.000000 0.133346 1.184898 0.000000 0.249589 0.890886 0.000000 0.249874 0.557115 0.000000 0.325990 0.419434 0.000000 0.189775 -0.205133 0.000000 -0.740422 -0.902120 0.000000 -0.921051 -0.715901 0.000000 -0.519491 -0.564370 0.000000 -0.452892 -0.487854 0.000000 -0.263314 -0.086167 0.000000 -0.002736 0.264200 0.000000 0.307017 0.203064 0.000000 0.372909 -0.044778 0.000000 0.268300 -0.284147 0.000000 0.153343 -0.552548 0.000000 0.000000 -0.659566 0.000000 -0.153343 -0.552548 0.000000 -0.268300 -0.284147 0.000000 -0.372909 -0.044778 0.000000 -0.307017 0.203064 0.000000 0.002736 0.264200 0.000000 0.263314 -0.086167 0.000000 0.452892 -0.487854 0.000000 0.519491 -0.564370 0.000000 0.921051 -0.715901 0.000000 0.740422 -0.902120 0.000000 -0.189775 -0.205133 0.000000 -0.325990 0.419434 0.000000 -0.249874 0.557115 0.000000 -0.249589 0.890886 0.000000 -0.133346 1.184898 0.000000 
0.000000 1.142169 0.000000 0.186700 1.034593 0.000000 0.336451 0.807321 0.000000 0.399559 0.512813 0.000000 0.449400 0.365868 0.000000 0.525352 0.086179 0.000000 0.123007 -0.241122 0.000000 -0.311259 -0.421877 0.000000 -0.366059 -0.603791 0.000000 -0.562273 -0.605315 0.000000 -0.768558 -0.696476 0.000000 -0.417249 -0.543213 0.000000 0.136347 -0.197162 0.000000 0.473115 0.055274 0.000000 0.506159 0.090921 0.000000 0.337706 -0.118454 0.000000 -0.000000 -0.193286 0.000000 -0.337706 -0.118454 0.000000 -0.506159 0.090921 0.000000 -0.473115 0.055274 0.000000 -0.136347 -0.197162 0.000000 0.417249 -0.543213 0.000000 0.768558 -0.696476 0.000000 0.562273 -0.605315 0.000000 0.366059 -0.603791 0.000000 0.311259 -0.421877 0.000000 -0.123007 -0.241122 0.000000 -0.525352 0.086179 0.000000 -0.449400 0.365868 0.000000 -0.399559 0.512813 0.000000 -0.336451 0.807321 0.000000 -0.186700 1.034593 0.000000 
0.000000 0.933007 0.000000 0.197774 0.848447 0.000000 0.351834 0.678027 0.000000 0.442033 0.444167 0.000000 0.477279 0.293641 0.000000 0.551578 0.121260 0.000000 0.441561 -0.065509 0.000000 0.309269 -0.226835 0.000000 0.081324 -0.313355 0.000000 0.067971 -0.085355 0.000000 -0.110443 -0.231192 0.000000 -0.667103 -0.640705 0.000000 -0.926706 -0.687300 0.000000 -0.901075 -0.414589 0.000000 -0.474581 -0.148738 0.000000 -0.199807 -0.046389 0.000000 -0.000000 0.015846 0.000000 0.199807 -0.046389 0.000000 0.474581 -0.148738 0.000000 0.901075 -0.414589 0.000000 0.926706 -0.687300 0.000000 0.667103 -0.640705 0.000000 0.110443 -0.231192 0.000000 -0.067971 -0.085355 0.000000 -0.081324 -0.313355 0.000000 -0.309269 -0.226835 0.000000 -0.441561 -0.065509 0.000000 -0.551578 0.121260 0.000000 -0.477279 0.293641 0.000000 -0.442033 0.444167 0.000000 -0.351834 0.678027 0.000000 -0.197774 0.848447 0.000000 
0.000000 0.746622 0.000000 0.180468 0.682759 0.000000 0.321272 0.563062 0.000000 0.413254 0.387367 0.000000 0.446250 0.256322 0.000000 0.493604 0.121897 0.000000 0.462491 0.001188 0.000000 0.424797 -0.061640 0.000000 0.273821 -0.362494 0.000000 0.221673 -0.413548 0.000000 0.420089 0.038599 0.000000 0.457036 0.273051 0.000000 0.345998 0.036810 0.000000 -0.070182 -0.396852 0.000000 -0.276075 -0.610347 0.000000 -0.328919 -0.593035 0.000000 -0.000000 -0.592900 0.000000 0.328919 -0.593035 0.000000 0.276075 -0.610347 0.000000 0.070182 -0.396852 0.000000 -0.345998 0.036810 0.000000 -0.457036 0.273051 0.000000 -0.420089 0.038599 0.000000 -0.221673 -0.413548 0.000000 -0.273821 -0.362494 0.000000 -0.424797 -0.061640 0.000000 -0.462491 0.001188 0.000000 -0.493604 0.121897 0.000000 -0.446250 0.256322 0.000000 -0.413254 0.387367 0.000000 -0.321272 0.563062 0.000000 -0.180468 0.682759 0.000000 
-0.000000 0.572071 0.000000 0.154476 0.527175 0.000000 0.276368 0.445241 0.000000 0.366474 0.319189 0.000000 0.402720 0.213290 0.000000 0.446646 0.105018 0.000000 0.437288 0.003299 0.000000 0.457278 -0.038165 0.000000 0.444895 -0.110231 0.000000 0.251978 -0.231623 0.000000 0.239831 -0.466555 0.000000 0.511967 -0.566614 0.000000 0.967547 -0.160083 0.000000 1.213911 0.207484 0.000000 1.045371 0.109999 0.000000 0.421548 -0.322464 0.000000 0.000000 -0.641992 0.000000 -0.421548 -0.322464 0.000000 -1.045371 0.109999 0.000000 -1.213911 0.207484 0.000000 -0.967547 -0.160083 0.000000 -0.511967 -0.566614 0.000000 -0.239831 -0.466555 0.000000 -0.251978 -0.231623 0.000000 -0.444895 -0.110231 0.000000 -0.457278 -0.038165 0.000000 -0.437288 0.003299 0.000000 -0.446646 0.105018 0.000000 -0.402720 0.213290 0.000000 -0.366474 0.319189 0.000000 -0.276368 0.445241 0.000000 -0.154476 0.527175 0.000000 
0.000000 0.437669 0.000000 0.125030 0.406391 0.000000 0.226744 0.351064 0.000000 0.307056 0.261016 0.000000 0.347508 0.176150 0.000000 0.386851 0.087329 0.000000 0.393439 -0.009443 0.000000 0.410535 -0.069247 0.000000 0.451391 -0.157195 0.000000 0.479722 -0.208484 0.000000 0.495264 -0.221390 0.000000 0.411037 -0.454666 0.000000 0.453901 -0.665134 0.000000 0.828604 -0.474675 0.000000 1.257562 0.182016 0.000000 0.946043 0.452336 0.000000 0.000000 0.250195 0.000000 -0.946043 0.452336 0.000000 -1.257562 0.182016 0.000000 -0.828604 -0.474675 0.000000 -0.453901 -0.665134 0.000000 -0.411037 -0.454666 0.000000 -0.495264 -0.221390 0.000000 -0.479722 -0.208484 0.000000 -0.451391 -0.157195 0.000000 -0.410535 -0.069247 0.000000 -0.393439 -0.009443 0.000000 -0.386851 0.087329 0.000000 -0.347508 0.176150 0.000000 -0.307056 0.261016 0.000000 -0.226744 0.351064 0.000000 -0.125030 0.406391 0.000000 
-0.000000 0.322010 0.000000 0.101123 0.300432 0.000000 0.185665 0.263216 0.000000 0.257268 0.198424 0.000000 0.298118 0.133495 0.000000 0.335635 0.059087 0.000000 0.347558 -0.020385 0.000000 0.356846 -0.096117 0.000000 0.381341 -0.179419 0.000000 0.385184 -0.275496 0.000000 0.458658 -0.397869 0.000000 0.550334 -0.525252 0.000000 0.535029 -0.577650 0.000000 0.471979 -0.596177 0.000000 0.602360 -0.007440 0.000000 0.693040 0.935098 0.000000 0.000000 1.250095 0.000000 -0.693040 0.935098 0.000000 -0.602360 -0.007440 0.000000 -0.471979 -0.596177 0.000000 -0.535029 -0.577650 0.000000 -0.550334 -0.525252 0.000000 -0.458658 -0.397869 0.000000 -0.385184 -0.275496 0.000000 -0.381341 -0.179419 0.000000 -0.356846 -0.096117 0.000000 -0.347558 -0.020385 0.000000 -0.335635 0.059087 0.000000 -0.298118 0.133495 0.000000 -0.257268 0.198424 0.000000 -0.185665 0.263216 0.000000 -0.101123 0.300432 0.000000 
0.000000 0.235423 0.000000 0.080847 0.220726 0.000000 0.150200 0.194920 0.000000 0.211119 0.148562 0.000000 0.248720 0.097782 0.000000 0.281944 0.037890 0.000000 0.292953 -0.030655 0.000000 0.301696 -0.103031 0.000000 0.303456 -0.185532 0.000000 0.307219 -0.285801 0.000000 0.311878 -0.386540 0.000000 0.301516 -0.531037 0.000000 0.276930 -0.586778 0.000000 0.210787 -0.542005 0.000000 0.015631 -0.039045 0.000000 0.137370 1.054696 0.000000 0.000000 1.636275 0.000000 -0.137370 1.054696 0.000000 -0.015631 -0.039045 0.000000 -0.210787 -0.542005 0.000000 -0.276930 -0.586778 0.000000 -0.301516 -0.531037 0.000000 -0.311878 -0.386540 0.000000 -0.307219 -0.285801 0.000000 -0.303456 -0.185532 0.000000 -0.301696 -0.103031 0.000000 -0.292953 -0.030655 0.000000 -0.281944 0.037890 0.000000 -0.248720 0.097782 0.000000 -0.211119 0.148562 0.000000 -0.150200 0.194920 0.000000 -0.080847 0.220726 0.000000 
-0.000000 0.160315 0.000000 0.066920 0.150231 0.000000 0.125289 0.132944 0.000000 0.177455 0.099904 0.000000 0.210559 0.062670 0.000000 0.237062 0.014854 0.000000 0.243011 -0.040136 0.000000 0.240212 -0.106619 0.000000 0.223135 -0.184942 0.000000 0.197287 -0.283919 0.000000 0.157027 -0.392167 0.000000 0.107510 -0.490303 0.000000 -0.012561 -0.486921 0.000000 -0.131347 -0.334878 0.000000 -0.351891 0.065976 0.000000 -0.271442 0.950730 0.000000 0.000000 1.524836 0.000000 0.271442 0.950730 0.000000 0.351891 0.065976 0.000000 0.131347 -0.334878 0.000000 0.012561 -0.486921 0.000000 -0.107510 -0.490303 0.000000 -0.157027 -0.392167 0.000000 -0.197287 -0.283919 0.000000 -0.223135 -0.184942 0.000000 -0.240212 -0.106619 0.000000 -0.243011 -0.040136 0.000000 -0.237062 0.014854 0.000000 -0.210559 0.062670 0.000000 -0.177455 0.099904 0.000000 -0.125289 0.132944 0.000000 -0.066920 0.150231 0.000000 
0.000000 0.101582 0.000000 0.056109 0.095438 0.000000 0.105187 0.084385 0.000000 0.149325 0.063293 0.000000 0.175951 0.038176 0.000000 0.195482 0.005437 0.000000 0.191555 -0.033805 0.000000 0.176927 -0.083154 0.000000 0.133815 -0.142607 0.000000 0.074638 -0.219694 0.000000 -0.025095 -0.296764 0.000000 -0.149862 -0.361449 0.000000 -0.320909 -0.347920 0.000000 -0.460276 -0.202675 0.000000 -0.572197 0.101049 0.000000 -0.477965 0.702805 0.000000 -0.000000 1.093391 0.000000 0.477965 0.702805 0.000000 0.572197 0.101049 0.000000 0.460276 -0.202675 0.000000 0.320909 -0.347920 0.000000 0.149862 -0.361449 0.000000 0.025095 -0.296764 0.000000 -0.074638 -0.219694 0.000000 -0.133815 -0.142607 0.000000 -0.176927 -0.083154 0.000000 -0.191555 -0.033805 0.000000 -0.195482 0.005437 0.000000 -0.175951 0.038176 0.000000 -0.149325 0.063293 0.000000 -0.105187 0.084385 0.000000 -0.056109 0.095438 0.000000 
0.000000 0.048096 0.000000 0.050791 0.045045 0.000000 0.095438 0.039729 0.000000 0.135176 0.029141 0.000000 0.158730 0.016513 0.000000 0.173352 -0.000750 0.000000 0.164167 -0.021581 0.000000 0.139547 -0.048879 0.000000 0.081013 -0.082654 0.000000 -0.003061 -0.125010 0.000000 -0.138680 -0.167666 0.000000 -0.299824 -0.194489 0.000000 -0.500130 -0.176507 0.000000 -0.647745 -0.083590 0.000000 -0.702805 0.083665 0.000000 -0.546696 0.378533 0.000000 -0.000000 0.568906 0.000000 0.546696 0.378533 0.000000 0.702805 0.083665 0.000000 0.647745 -0.083590 0.000000 0.500130 -0.176507 0.000000 0.299824 -0.194489 0.000000 0.138680 -0.167666 0.000000 0.003061 -0.125010 0.000000 -0.081013 -0.082654 0.000000 -0.139547 -0.048879 0.000000 -0.164167 -0.021581 0.000000 -0.173352 -0.000750 0.000000 -0.158730 0.016513 0.000000 -0.135176 0.029141 0.000000 -0.095438 0.039729 0.000000 -0.050791 0.045045 0.000000 
