# vtk DataFile Version 2.0
Comment goes here
ASCII

DATASET STRUCTURED_POINTS
FIELD FieldData 1
TIME 1 1 double
0.86000000
DIMENSIONS    32   32   1

ORIGIN    0.000   0.000   0.000
SPACING   0.03125 0.03125   1.000

POINT_DATA   1024
VECTORS u double

0.000000 0.000000 0.000000 0.045067 -0.000000 0.000000 0.077795 -0.000000 0.000000 0.083739 -0.000000 0.000000 0.059384 -0.000000 0.000000 -0.011163 -0.000000 0.000000 -0.118011 -0.000000 0.000000 -0.279942 -0.000000 0.000000 -0.461645 -0.000000 0.000000 -0.684733 -0.000000 0.000000 -0.879436 -0.000000 0.000000 -1.071143 -0.000000 0.000000 -1.155579 0.000000 0.000000 -1.148557 -0.000000 0.000000 -0.944052 -0.000000 0.000000 -0.570046 0.000000 0.000000 0.000000 0.000000 0.000000 0.570046 -0.000000 0.000000 0.944052 -0.000000 0.000000 1.148557 0.000000 0.000000 1.155579 -0.000000 0.000000 1.071143 0.000000 0.000000 0.879436 0.000000 0.000000 0.684733 0.000000 0.000000 0.461645 0.000000 0.000000 0.279942 0.000000 0.000000 0.118011 0.000000 0.000000 0.011163 0.000000 0.000000 -0.059384 0.000000 0.000000 -0.083739 0.000000 0.000000 -0.077795 0.000000 0.000000 -0.045067 0.000000 0.000000 
0.000000 -0.045067 0.000000 0.051878 -0.038898 0.000000 0.091393 -0.019336 0.000000 0.104758 0.009206 0.000000 0.089138 0.047451 0.000000 0.030438 0.088697 0.000000 -0.061134 0.134389 0.000000 -0.203340 0.171817 0.000000 -0.362254 0.202396 0.000000 -0.561203 0.208896 0.000000 -0.731945 0.193205 0.000000 -0.909809 0.138072 0.000000 -0.990882 0.038707 0.000000 -1.008945 -0.105763 0.000000 -0.852074 -0.289255 0.000000 -0.531089 -0.472026 0.000000 0.000000 -0.570046 0.000000 0.531089 -0.472026 0.000000 0.852074 -0.289255 0.000000 1.008945 -0.105763 0.000000 0.990882 0.038707 0.000000 0.909809 0.138072 0.000000 0.731945 0.193205 0.000000 0.561203 0.208896 0.000000 0.362254 0.202396 0.000000 0.203340 0.171817 0.000000 0.061134 0.134389 0.000000 -0.030438 0.088697 0.000000 -0.089138 0.047451 0.000000 -0.104758 0.009206 0.000000 -0.091393 -0.019336 0.000000 -0.051878 -0.038898 0.000000 
0.000000 -0.103755 0.000000 0.068621 -0.091393 0.000000 0.123724 -0.052881 0.000000 0.152742 0.002255 0.000000 0.153274 0.074320 0.000000 0.116172 0.150273 0.000000 0.050943 0.233778 0.000000 -0.056299 0.301119 0.000000 -0.177409 0.357863 0.000000 -0.337167 0.369691 0.000000 -0.473999 0.348606 0.000000 -0.635465 0.258938 0.000000 -0.726282 0.099136 0.000000 -0.784692 -0.138808 0.000000 -0.702577 -0.477856 0.000000 -0.466182 -0.852074 0.000000 0.000000 -1.062177 0.000000 0.466182 -0.852074 0.000000 0.702577 -0.477856 0.000000 0.784692 -0.138808 0.000000 0.726282 0.099136 0.000000 0.635465 0.258938 0.000000 0.473999 0.348606 0.000000 0.337167 0.369691 0.000000 0.177409 0.357863 0.000000 0.056299 0.301119 0.000000 -0.050943 0.233778 0.000000 -0.116172 0.150273 0.000000 -0.153274 0.074320 0.000000 -0.152742 0.002255 0.000000 -0.123724 -0.052881 0.000000 -0.068621 -0.091393 0.000000 
-0.000000 -0.182308 0.000000 0.095778 -0.162622 0.000000 0.175922 -0.103458 0.000000 0.229086 -0.020345 0.000000 0.253710 0.084021 0.000000 0.248106 0.191029 0.000000 0.221574 0.306860 0.000000 0.168567 0.400168 0.000000 0.109091 0.483264 0.000000 0.018855 0.505487 0.000000 -0.048542 0.491503 0.000000 -0.166137 0.390354 0.000000 -0.232265 0.187934 0.000000 -0.354714 -0.129468 0.000000 -0.416975 -0.607766 0.000000 -0.328874 -1.174604 0.000000 0.000000 -1.502410 0.000000 0.328874 -1.174604 0.000000 0.416975 -0.607766 0.000000 0.354714 -0.129468 0.000000 0.232265 0.187934 0.000000 0.166137 0.390354 0.000000 0.048542 0.491503 0.000000 -0.018855 0.505487 0.000000 -0.109091 0.483264 0.000000 -0.168567 0.400168 0.000000 -0.221574 0.306860 0.000000 -0.248106 0.191029 0.000000 -0.253710 0.084021 0.000000 -0.229086 -0.020345 0.000000 -0.175922 -0.103458 0.000000 -0.095778 -0.162622 0.000000 
-0.000000 -0.295311 0.000000 0.129473 -0.267315 0.000000 0.239358 -0.186189 0.000000 0.318439 -0.075533 0.000000 0.364696 0.055301 0.000000 0.384786 0.182409 0.000000 0.386186 0.313317 0.000000 0.374948 0.413602 0.000000 0.359731 0.507575 0.000000 0.319194 0.527324 0.000000 0.299196 0.533598 0.000000 0.193061 0.442661 0.000000 0.122059 0.287713 0.000000 -0.010857 0.045901 0.000000 -0.110305 -0.503696 0.000000 -0.107108 -1.269049 0.000000 0.000000 -1.719926 0.000000 0.107108 -1.269049 0.000000 0.110305 -0.503696 0.000000 0.010857 0.045901 0.000000 -0.122059 0.287713 0.000000 -0.193061 0.442661 0.000000 -0.299196 0.533598 0.000000 -0.319194 0.527324 0.000000 -0.359731 0.507575 0.000000 -0.374948 0.413602 0.000000 -0.386186 0.313317 0.000000 -0.384786 0.182409 0.000000 -0.364696 0.055301 0.000000 -0.318439 -0.075533 0.000000 -0.239358 -0.186189 0.000000 -0.129473 -0.267315 0.000000 
-0.000000 -0.441254 0.000000 0.164543 -0.401979 0.000000 0.304924 -0.292423 0.000000 0.408270 -0.145683 0.000000 0.472557 0.017674 0.000000 0.512161 0.169539 0.000000 0.532541 0.316699 0.000000 0.558178 0.426623 0.000000 0.579877 0.539017 0.000000 0.604657 0.566021 0.000000 0.661944 0.617636 0.000000 0.632961 0.567491 0.000000 0.735983 0.391852 0.000000 0.586662 0.102896 0.000000 0.361020 -0.511515 0.000000 0.238470 -1.284909 0.000000 0.000000 -1.716626 0.000000 -0.238470 -1.284909 0.000000 -0.361020 -0.511515 0.000000 -0.586662 0.102896 0.000000 -0.735983 0.391852 0.000000 -0.632961 0.567491 0.000000 -0.661944 0.617636 0.000000 -0.604657 0.566021 0.000000 -0.579877 0.539017 0.000000 -0.558178 0.426623 0.000000 -0.532541 0.316699 0.000000 -0.512161 0.169539 0.000000 -0.472557 0.017674 0.000000 -0.408270 -0.145683 0.000000 -0.304924 -0.292423 0.000000 -0.164543 -0.401979 0.000000 
0.000000 -0.624397 0.000000 0.197564 -0.572240 0.000000 0.366909 -0.429916 0.000000 0.491844 -0.243166 0.000000 0.570799 -0.048591 0.000000 0.624050 0.122425 0.000000 0.653774 0.267300 0.000000 0.704164 0.366267 0.000000 0.740856 0.461096 0.000000 0.807327 0.445257 0.000000 0.911688 0.505294 0.000000 0.819068 0.368623 0.000000 0.795197 0.334013 0.000000 0.740749 0.420864 0.000000 1.015097 -0.155505 0.000000 0.919777 -0.908028 0.000000 -0.000000 -1.242986 0.000000 -0.919777 -0.908028 0.000000 -1.015097 -0.155505 0.000000 -0.740749 0.420864 0.000000 -0.795197 0.334013 0.000000 -0.819068 0.368623 0.000000 -0.911688 0.505294 0.000000 -0.807327 0.445257 0.000000 -0.740856 0.461096 0.000000 -0.704164 0.366267 0.000000 -0.653774 0.267300 0.000000 -0.624050 0.122425 0.000000 -0.570799 -0.048591 0.000000 -0.491844 -0.243166 0.000000 -0.366909 -0.429916 0.000000 -0.197564 -0.572240 0.000000 
0.000000 -0.836383 0.000000 0.215646 -0.768888 0.000000 0.401435 -0.586703 0.000000 0.534209 -0.349573 0.000000 0.617914 -0.114532 0.000000 0.670492 0.086564 0.000000 0.697192 0.236584 0.000000 0.758700 0.339541 0.000000 0.777360 0.435855 0.000000 0.886797 0.395189 0.000000 0.922506 0.605895 0.000000 0.992134 0.683983 0.000000 1.564619 0.470171 0.000000 2.046593 -0.117004 0.000000 1.936365 -0.690543 0.000000 1.112619 -0.269811 0.000000 0.000000 0.122929 0.000000 -1.112619 -0.269811 0.000000 -1.936365 -0.690543 0.000000 -2.046593 -0.117004 0.000000 -1.564619 0.470171 0.000000 -0.992134 0.683983 0.000000 -0.922506 0.605895 0.000000 -0.886797 0.395189 0.000000 -0.777360 0.435855 0.000000 -0.758700 0.339541 0.000000 -0.697192 0.236584 0.000000 -0.670492 0.086564 0.000000 -0.617914 -0.114532 0.000000 -0.534209 -0.349573 0.000000 -0.401435 -0.586703 0.000000 -0.215646 -0.768888 0.000000 
0.000000 -1.055688 0.000000 0.218583 -0.973674 0.000000 0.409746 -0.748479 0.000000 0.541204 -0.459646 0.000000 0.628287 -0.184874 0.000000 0.681394 0.043147 0.000000 0.713420 0.179092 0.000000 0.800631 0.286099 0.000000 0.807716 0.332999 0.000000 0.936377 0.300111 0.000000 1.116107 0.399957 0.000000 1.732096 -0.273491 0.000000 1.915405 -0.720446 0.000000 1.502410 0.049118 0.000000 0.670420 0.778469 0.000000 0.085720 1.028337 0.000000 0.000000 0.982253 0.000000 -0.085720 1.028337 0.000000 -0.670420 0.778469 0.000000 -1.502410 0.049118 0.000000 -1.915405 -0.720446 0.000000 -1.732096 -0.273491 0.000000 -1.116107 0.399957 0.000000 -0.936377 0.300111 0.000000 -0.807716 0.332999 0.000000 -0.800631 0.286099 0.000000 -0.713420 0.179092 0.000000 -0.681394 0.043147 0.000000 -0.628287 -0.184874 0.000000 -0.541204 -0.459646 0.000000 -0.409746 -0.748479 0.000000 -0.218583 -0.973674 0.000000 
0.000000 -1.273548 0.000000 0.193433 -1.178634 0.000000 0.365297 -0.909324 0.000000 0.470232 -0.568114 0.000000 0.546218 -0.254722 0.000000 0.572966 0.001431 0.000000 0.611716 0.117347 0.000000 0.690297 0.245245 0.000000 0.608661 0.300109 0.000000 0.527663 0.086798 0.000000 0.552498 -0.189824 0.000000 0.583133 -0.115315 0.000000 -0.372130 0.699857 0.000000 -0.909609 1.127980 0.000000 -0.744354 0.726147 0.000000 -0.282278 0.400609 0.000000 -0.000000 0.294368 0.000000 0.282278 0.400609 0.000000 0.744354 0.726147 0.000000 0.909609 1.127980 0.000000 0.372130 0.699857 0.000000 -0.583133 -0.115315 0.000000 -0.552498 -0.189824 0.000000 -0.527663 0.086798 0.000000 -0.608661 0.300109 0.000000 -0.690297 0.245245 0.000000 -0.611716 0.117347 0.000000 -0.572966 0.001431 0.000000 -0.546218 -0.254722 0.000000 -0.470232 -0.568114 0.000000 -0.365297 -0.909324 0.000000 -0.193433 -1.178634 0.000000 
0.000000 -1.442554 0.000000 0.146490 -1.338971 0.000000 0.281794 -1.025279 0.000000 0.347174 -0.640567 0.000000 0.414446 -0.287608 0.000000 0.417110 -0.022351 0.000000 0.479907 0.061761 0.000000 0.515606 0.289154 0.000000 0.003540 0.495633 0.000000 -0.120374 0.356274 0.000000 -0.145769 0.344487 0.000000 -0.593898 0.651136 0.000000 -0.554871 0.772296 0.000000 -0.065096 0.421342 0.000000 0.240626 0.151138 0.000000 0.231367 0.283982 0.000000 -0.000000 0.417696 0.000000 -0.231367 0.283982 0.000000 -0.240626 0.151138 0.000000 0.065096 0.421342 0.000000 0.554871 0.772296 0.000000 0.593898 0.651136 0.000000 0.145769 0.344487 0.000000 0.120374 0.356274 0.000000 -0.003540 0.495633 0.000000 -0.515606 0.289154 0.000000 -0.479907 0.061761 0.000000 -0.417110 -0.022351 0.000000 -0.414446 -0.287608 0.000000 -0.347174 -0.640567 0.000000 -0.281794 -1.025279 0.000000 -0.146490 -1.338971 0.000000 
0.000000 -1.566528 0.000000 0.067954 -1.460428 0.000000 0.133750 -1.110008 0.000000 0.137247 -0.700766 0.000000 0.173001 -0.324658 0.000000 0.103512 -0.064030 0.000000 0.158942 0.018851 0.000000 -0.271442 0.721612 0.000000 -1.105960 0.936088 0.000000 -0.447286 0.236107 0.000000 -0.287490 0.283700 0.000000 -0.516434 0.293787 0.000000 -0.103702 0.171055 0.000000 0.106466 0.332483 0.000000 0.105303 0.429684 0.000000 0.034116 0.641235 0.000000 -0.000000 0.757103 0.000000 -0.034116 0.641235 0.000000 -0.105303 0.429684 0.000000 -0.106466 0.332483 0.000000 0.103702 0.171055 0.000000 0.516434 0.293787 0.000000 0.287490 0.283700 0.000000 0.447286 0.236107 0.000000 1.105960 0.936088 0.000000 0.271442 0.721612 0.000000 -0.158942 0.018851 0.000000 -0.103512 -0.064030 0.000000 -0.173001 -0.324658 0.000000 -0.137247 -0.700766 0.000000 -0.133750 -1.110008 0.000000 -0.067954 -1.460428 0.000000 
0.000000 -1.578461 0.000000 -0.044307 -1.472721 0.000000 -0.076574 -1.094572 0.000000 -0.150332 -0.679818 0.000000 -0.145867 -0.253873 0.000000 -0.324608 -0.008292 0.000000 -0.262433 0.436715 0.000000 -1.287898 1.554057 0.000000 -1.048330 0.671477 0.000000 0.206456 -0.462197 0.000000 -0.449491 0.413635 0.000000 -0.505302 0.467349 0.000000 -0.517370 0.149397 0.000000 -0.380669 0.212337 0.000000 -0.285101 0.223488 0.000000 -0.161635 0.389286 0.000000 -0.000000 0.485928 0.000000 0.161635 0.389286 0.000000 0.285101 0.223488 0.000000 0.380669 0.212337 0.000000 0.517370 0.149397 0.000000 0.505302 0.467349 0.000000 0.449491 0.413635 0.000000 -0.206456 -0.462197 0.000000 1.048330 0.671477 0.000000 1.287898 1.554057 0.000000 0.262433 0.436715 0.000000 0.324608 -0.008292 0.000000 0.145867 -0.253873 0.000000 0.150332 -0.679818 0.000000 0.076574 -1.094572 0.000000 0.044307 -1.472721 0.000000 
-0.000000 -1.477914 0.000000 -0.198191 -1.383854 0.000000 -0.374712 -1.003984 0.000000 -0.522103 -0.631473 0.000000 -0.611899 -0.150381 0.000000 -0.773121 0.052537 0.000000 -0.868579 0.982141 0.000000 -1.487997 1.507508 0.000000 -0.053310 -0.558265 0.000000 0.287242 -0.362731 0.000000 -0.749144 0.995458 0.000000 -0.446182 0.361666 0.000000 -0.437680 0.046422 0.000000 -0.299404 0.100214 0.000000 -0.237808 0.210650 0.000000 -0.145231 0.356133 0.000000 -0.000000 0.433833 0.000000 0.145231 0.356133 0.000000 0.237808 0.210650 0.000000 0.299404 0.100214 0.000000 0.437680 0.046422 0.000000 0.446182 0.361666 0.000000 0.749144 0.995458 0.000000 -0.287242 -0.362731 0.000000 0.053310 -0.558265 0.000000 1.487997 1.507508 0.000000 0.868579 0.982141 0.000000 0.773121 0.052537 0.000000 0.611899 -0.150381 0.000000 0.522103 -0.631473 0.000000 0.374712 -1.003984 0.000000 0.198191 -1.383854 0.000000 
-0.000000 -1.182079 0.000000 -0.399036 -1.098010 0.000000 -0.763906 -0.770660 0.000000 -0.984794 -0.442630 0.000000 -1.185715 -0.002855 0.000000 -1.151485 0.248388 0.000000 -1.330432 1.151590 0.000000 -0.781053 0.738787 0.000000 0.035560 -1.103761 0.000000 -0.711092 0.233637 0.000000 -0.709198 1.147059 0.000000 -0.433353 0.155884 0.000000 -0.400729 0.002618 0.000000 -0.347434 0.012465 0.000000 -0.278405 0.069315 0.000000 -0.165841 0.151478 0.000000 -0.000000 0.195466 0.000000 0.165841 0.151478 0.000000 0.278405 0.069315 0.000000 0.347434 0.012465 0.000000 0.400729 0.002618 0.000000 0.433353 0.155884 0.000000 0.709198 1.147059 0.000000 0.711092 0.233637 0.000000 -0.035560 -1.103761 0.000000 0.781053 0.738787 0.000000 1.330432 1.151590 0.000000 1.151485 0.248388 0.000000 1.185715 -0.002855 0.000000 0.984794 -0.442630 0.000000 0.763906 -0.770660 0.000000 0.399036 -1.098010 0.000000 
-0.000000 -0.679843 0.000000 -0.591039 -0.619948 0.000000 -1.098010 -0.418226 0.000000 -1.361699 -0.209665 0.000000 -1.540639 0.016311 0.000000 -1.364554 0.197255 0.000000 -1.292252 0.611708 0.000000 -0.212964 0.141515 0.000000 -0.553464 -0.628226 0.000000 -1.316726 0.382027 0.000000 -0.319828 0.717718 0.000000 -0.169666 0.053197 0.000000 -0.163943 -0.039496 0.000000 -0.167048 -0.022110 0.000000 -0.151478 0.029057 0.000000 -0.097733 0.077728 0.000000 -0.000000 0.102151 0.000000 0.097733 0.077728 0.000000 0.151478 0.029057 0.000000 0.167048 -0.022110 0.000000 0.163943 -0.039496 0.000000 0.169666 0.053197 0.000000 0.319828 0.717718 0.000000 1.316726 0.382027 0.000000 0.553464 -0.628226 0.000000 0.212964 0.141515 0.000000 1.292252 0.611708 0.000000 1.364554 0.197255 0.000000 1.540639 0.016311 0.000000 1.361699 -0.209665 0.000000 1.098010 -0.418226 0.000000 0.591039 -0.619948 0.000000 
-0.000000 -0.000000 0.000000 -0.679843 -0.000000 0.000000 -1.239897 -0.000000 0.000000 -1.516295 -0.000000 0.000000 -1.659226 -0.000000 0.000000 -1.483673 -0.000000 0.000000 -1.264717 -0.000000 0.000000 -0.260256 0.000000 0.000000 -0.981686 -0.000000 0.000000 -1.516709 0.000000 0.000000 -0.217631 -0.000000 0.000000 -0.081273 0.000000 0.000000 -0.111236 0.000000 0.000000 -0.160265 0.000000 0.000000 -0.155456 -0.000000 0.000000 -0.102151 0.000000 0.000000 -0.000000 0.000000 0.000000 0.102151 0.000000 0.000000 0.155456 0.000000 0.000000 0.160265 0.000000 0.000000 0.111236 -0.000000 0.000000 0.081273 0.000000 0.000000 0.217631 0.000000 0.000000 1.516709 -0.000000 0.000000 0.981686 0.000000 0.000000 0.260256 0.000000 0.000000 1.264717 0.000000 0.000000 1.483673 0.000000 0.000000 1.659226 0.000000 0.000000 1.516295 0.000000 0.000000 1.239897 -0.000000 0.000000 0.679843 -0.000000 0.000000 
0.000000 0.679843 0.000000 -0.591039 0.619948 0.000000 -1.098010 0.418226 0.000000 -1.361699 0.209665 0.000000 -1.540639 -0.016311 0.000000 -1.364554 -0.197255 0.000000 -1.292252 -0.611708 0.000000 -0.212964 -0.141515 0.000000 -0.553464 0.628226 0.000000 -1.316726 -0.382027 0.000000 -0.319828 -0.717718 0.000000 -0.169666 -0.053197 0.000000 -0.163943 0.039496 0.000000 -0.167048 0.022110 0.000000 -0.151478 -0.029057 0.000000 -0.097733 -0.077728 0.000000 -0.000000 -0.102151 0.000000 0.097733 -0.077728 0.000000 0.151478 -0.029057 0.000000 0.167048 0.022110 0.000000 0.163943 0.039496 0.000000 0.169666 -0.053197 0.000000 0.319828 -0.717718 0.000000 1.316726 -0.382027 0.000000 0.553464 0.628226 0.000000 0.212964 -0.141515 0.000000 1.292252 -0.611708 0.000000 1.364554 -0.197255 0.000000 1.540639 -0.016311 0.000000 1.361699 0.209665 0.000000 1.098010 0.418226 0.000000 0.591039 0.619948 0.000000 
0.000000 1.182079 0.000000 -0.399036 1.098010 0.000000 -0.763906 0.770660 0.000000 -0.984794 0.442630 0.000000 -1.185715 0.002855 0.000000 -1.151485 -0.248388 0.000000 -1.330432 -1.151590 0.000000 -0.781053 -0.738787 0.000000 0.035560 1.103761 0.000000 -0.711092 -0.233637 0.000000 -0.709198 -1.147059 0.000000 -0.433353 -0.155884 0.000000 -0.400729 -0.002618 0.000000 -0.347434 -0.012465 0.000000 -0.278405 -0.069315 0.000000 -0.165841 -0.151478 0.000000 0.000000 -0.195466 0.000000 0.165841 -0.151478 0.000000 0.278405 -0.069315 0.000000 0.347434 -0.012465 0.000000 0.400729 -0.002618 0.000000 0.433353 -0.155884 0.000000 0.709198 -1.147059 0.000000 0.711092 -0.233637 0.000000 -0.035560 1.103761 0.000000 0.781053 -0.738787 0.000000 1.330432 -1.151590 0.000000 1.151485 -0.248388 0.000000 1.185715 0.002855 0.000000 0.984794 0.442630 0.000000 0.763906 0.770660 0.000000 0.399036 1.098010 0.000000 
-0.000000 1.477914 0.000000 -0.198191 1.383854 0.000000 -0.374712 1.003984 0.000000 -0.522103 0.631473 0.000000 -0.611899 0.150381 0.000000 -0.773121 -0.052537 0.000000 -0.868579 -0.982141 0.000000 -1.487997 -1.507508 0.000000 -0.053310 0.558265 0.000000 0.287242 0.362731 0.000000 -0.749144 -0.995458 0.000000 -0.446182 -0.361666 0.000000 -0.437680 -0.046422 0.000000 -0.299404 -0.100214 0.000000 -0.237808 -0.210650 0.000000 -0.145231 -0.356133 0.000000 -0.000000 -0.433833 0.000000 0.145231 -0.356133 0.000000 0.237808 -0.210650 0.000000 0.299404 -0.100214 0.000000 0.437680 -0.046422 0.000000 0.446182 -0.361666 0.000000 0.749144 -0.995458 0.000000 -0.287242 0.362731 0.000000 0.053310 0.558265 0.000000 1.487997 -1.507508 0.000000 0.868579 -0.982141 0.000000 0.773121 -0.052537 0.000000 0.611899 0.150381 0.000000 0.522103 0.631473 0.000000 0.374712 1.003984 0.000000 0.198191 1.383854 0.000000 
-0.000000 1.578461 0.000000 -0.044307 1.472721 0.000000 -0.076574 1.094572 0.000000 -0.150332 0.679818 0.000000 -0.145867 0.253873 0.000000 -0.324608 0.008292 0.000000 -0.262433 -0.436715 0.000000 -1.287898 -1.554057 0.000000 -1.048330 -0.671477 0.000000 0.206456 0.462197 0.000000 -0.449491 -0.413635 0.000000 -0.505302 -0.467349 0.000000 -0.517370 -0.149397 0.000000 -0.380669 -0.212337 0.000000 -0.285101 -0.223488 0.000000 -0.161635 -0.389286 0.000000 0.000000 -0.485928 0.000000 0.161635 -0.389286 0.000000 0.285101 -0.223488 0.000000 0.380669 -0.212337 0.000000 0.517370 -0.149397 0.000000 0.505302 -0.467349 0.000000 0.449491 -0.413635 0.000000 -0.206456 0.462197 0.000000 1.048330 -0.671477 0.000000 1.287898 -1.554057 0.000000 0.262433 -0.436715 0.000000 0.324608 0.008292 0.000000 0.145867 0.253873 0.000000 0.150332 0.679818 0.000000 0.076574 1.094572 0.000000 0.044307 1.472721 0.000000 
-0.000000 1.566528 0.000000 0.067954 1.460428 0.000000 0.133750 1.110008 0.000000 0.137247 0.700766 0.000000 0.173001 0.324658 0.000000 0.103512 0.064030 0.000000 0.158942 -0.018851 0.000000 -0.271442 -0.721612 0.000000 -1.105960 -0.936088 0.000000 -0.447286 -0.236107 0.000000 -0.287490 -0.283700 0.000000 -0.516434 -0.293787 0.000000 -0.103702 -0.171055 0.000000 0.106466 -0.332483 0.000000 0.105303 -0.429684 0.000000 0.034116 -0.641235 0.000000 -0.000000 -0.757103 0.000000 -0.034116 -0.641235 0.000000 -0.105303 -0.429684 0.000000 -0.106466 -0.332483 0.000000 0.103702 -0.171055 0.000000 0.516434 -0.293787 0.000000 0.287490 -0.283700 0.000000 0.447286 -0.236107 0.000000 1.105960 -0.936088 0.000000 0.271442 -0.721612 0.000000 -0.158942 -0.018851 0.000000 -0.103512 0.064030 0.000000 -0.173001 0.324658 0.000000 -0.137247 0.700766 0.000000 -0.133750 1.110008 0.000000 -0.067954 1.460428 0.000000 
-0.000000 1.442554 0.000000 0.146490 1.338971 0.000000 0.281794 1.025279 0.000000 0.347174 0.640567 0.000000 0.414446 0.287608 0.000000 0.417110 0.022351 0.000000 0.479907 -0.061761 0.000000 0.515606 -0.289154 0.000000 0.003540 -0.495633 0.000000 -0.120374 -0.356274 0.000000 -0.145769 -0.344487 0.000000 -0.593898 -0.651136 0.000000 -0.554871 -0.772296 0.000000 -0.065096 -0.421342 0.000000 0.240626 -0.151138 0.000000 0.231367 -0.283982 0.000000 0.000000 -0.417696 0.000000 -0.231367 -0.283982 0.000000 -0.240626 -0.151138 0.000000 0.065096 -0.421342 0.000000 0.554871 -0.772296 0.000000 0.593898 -0.651136 0.000000 0.145769 -0.344487 0.000000 0.120374 -0.356274 0.000000 -0.003540 -0.495633 0.000000 -0.515606 -0.289154 0.000000 -0.479907 -0.061761 0.000000 -0.417110 0.022351 0.000000 -0.414446 0.287608 0.000000 -0.347174 0.640567 0.000000 -0.281794 1.025279 0.000000 -0.146490 1.338971 0.000000 
-0.000000 1.273548 0.000000 0.193433 1.178634 0.000000 0.365297 0.909324 0.000000 0.470232 0.568114 0.000000 0.546218 0.254722 0.000000 0.572966 -0.001431 0.000000 0.611716 -0.117347 0.000000 0.690297 -0.245245 0.000000 0.608661 -0.300109 0.000000 0.527663 -0.086798 0.000000 0.552498 0.189824 0.000000 0.583133 0.115315 0.000000 -0.372130 -0.699857 0.000000 -0.909609 -1.127980 0.000000 -0.744354 -0.726147 0.000000 -0.282278 -0.400609 0.000000 0.000000 -0.294368 0.000000 0.282278 -0.400609 0.000000 0.744354 -0.726147 0.000000 0.909609 -1.127980 0.000000 0.372130 -0.699857 0.000000 -0.583133 0.115315 0.000000 -0.552498 0.189824 0.000000 -0.527663 -0.086798 0.000000 -0.608661 -0.300109 0.000000 -0.690297 -0.245245 0.000000 -0.611716 -0.117347 0.000000 -0.572966 -0.001431 0.000000 -0.546218 0.254722 0.000000 -0.470232 0.568114 0.000000 -0.365297 0.909324 0.000000 -0.193433 1.178634 0.000000 
-0.000000 1.055688 0.000000 0.218583 0.973674 0.000000 0.409746 0.748479 0.000000 0.541204 0.459646 0.000000 0.628287 0.184874 0.000000 0.681394 -0.043147 0.000000 0.713420 -0.179092 0.000000 0.800631 -0.286099 0.000000 0.807716 -0.332999 0.000000 0.936377 -0.300111 0.000000 1.116107 -0.399957 0.000000 1.732096 0.273491 0.000000 1.915405 0.720446 0.000000 1.502410 -0.049118 0.000000 0.670420 -0.778469 0.000000 0.085720 -1.028337 0.000000 0.000000 -0.982253 0.000000 -0.085720 -1.028337 0.000000 -0.670420 -0.778469 0.000000 -1.502410 -0.049118 0.000000 -1.915405 0.720446 0.000000 -1.732096 0.273491 0.000000 -1.116107 -0.399957 0.000000 -0.936377 -0.300111 0.000000 -0.807716 -0.332999 0.000000 -0.800631 -0.286099 0.000000 -0.713420 -0.179092 0.000000 -0.681394 -0.043147 0.000000 -0.628287 0.184874 0.000000 -0.541204 0.459646 0.000000 -0.409746 0.748479 0.000000 -0.218583 0.973674 0.000000 
0.000000 0.836383 0.000000 0.215646 0.768888 0.000000 0.401435 0.586703 0.000000 0.534209 0.349573 0.000000 0.617914 0.114532 0.000000 0.670492 -0.086564 0.000000 0.697192 -0.236584 0.000000 0.758700 -0.339541 0.000000 0.777360 -0.435855 0.000000 0.886797 -0.395189 0.000000 0.922506 -0.605895 0.000000 0.992134 -0.683983 0.000000 1.564619 -0.470171 0.000000 2.046593 0.117004 0.000000 1.936365 0.690543 0.000000 1.112619 0.269811 0.000000 -0.000000 -0.122929 0.000000 -1.112619 0.269811 0.000000 -1.936365 0.690543 0.000000 -2.046593 0.117004 0.000000 -1.564619 -0.470171 0.000000 -0.992134 -0.683983 0.000000 -0.922506 -0.605895 0.000000 -0.886797 -0.395189 0.000000 -0.777360 -0.435855 0.000000 -0.758700 -0.339541 0.000000 -0.697192 -0.236584 0.000000 -0.670492 -0.086564 0.000000 -0.617914 0.114532 0.000000 -0.534209 0.349573 0.000000 -0.401435 0.586703 0.000000 -0.215646 0.768888 0.000000 
0.000000 0.624397 0.000000 0.197564 0.572240 0.000000 0.366909 0.429916 0.000000 0.491844 0.243166 0.000000 0.570799 0.048591 0.000000 0.624050 -0.122425 0.000000 0.653774 -0.267300 0.000000 0.704164 -0.366267 0.000000 0.740856 -0.461096 0.000000 0.807327 -0.445257 0.000000 0.911688 -0.505294 0.000000 0.819068 -0.368623 0.000000 0.795197 -0.334013 0.000000 0.740749 -0.420864 0.000000 1.015097 0.155505 0.000000 0.919777 0.908028 0.000000 -0.000000 1.242986 0.000000 -0.919777 0.908028 0.000000 -1.015097 0.155505 0.000000 -0.740749 -0.420864 0.000000 -0.795197 -0.334013 0.000000 -0.819068 -0.368623 0.000000 -0.911688 -0.505294 0.000000 -0.807327 -0.445257 0.000000 -0.740856 -0.461096 0.000000 -0.704164 -0.366267 0.000000 -0.653774 -0.267300 0.000000 -0.624050 -0.122425 0.000000 -0.570799 0.048591 0.000000 -0.491844 0.243166 0.000000 -0.366909 0.429916 0.000000 -0.197564 0.572240 0.000000 
0.000000 0.441254 0.000000 0.164543 0.401979 0.000000 0.304924 0.292423 0.000000 0.408270 0.145683 0.000000 0.472557 -0.017674 0.000000 0.512161 -0.169539 0.000000 0.532541 -0.316699 0.000000 0.558178 -0.426623 0.000000 0.579877 -0.539017 0.000000 0.604657 -0.566021 0.000000 0.661944 -0.617636 0.000000 0.632961 -0.567491 0.000000 0.735983 -0.391852 0.000000 0.586662 -0.102896 0.000000 0.361020 0.511515 0.000000 0.238470 1.284909 0.000000 -0.000000 1.716626 0.000000 -0.238470 1.284909 0.000000 -0.361020 0.511515 0.000000 -0.586662 -0.102896 0.000000 -0.735983 -0.391852 0.000000 -0.632961 -0.567491 0.000000 -0.661944 -0.617636 0.000000 -0.604657 -0.566021 0.000000 -0.579877 -0.539017 0.000000 -0.558178 -0.426623 0.000000 -0.532541 -0.316699 0.000000 -0.512161 -0.169539 0.000000 -0.472557 -0.017674 0.000000 -0.408270 0.145683 0.000000 -0.304924 0.292423 0.000000 -0.164543 0.401979 0.000000 
0.000000 0.295311 0.000000 0.129473 0.267315 0.000000 0.239358 0.186189 0.000000 0.318439 0.075533 0.000000 0.364696 -0.055301 0.000000 0.384786 -0.182409 0.000000 0.386186 -0.313317 0.000000 0.374948 -0.413602 0.000000 0.359731 -0.507575 0.000000 0.319194 -0.527324 0.000000 0.299196 -0.533598 0.000000 0.193061 -0.442661 0.000000 0.122059 -0.287713 0.000000 -0.010857 -0.045901 0.000000 -0.110305 0.503696 0.000000 -0.107108 1.269049 0.000000 -0.000000 1.719926 0.000000 0.107108 1.269049 0.000000 0.110305 0.503696 0.000000 0.010857 -0.045901 0.000000 -0.122059 -0.287713 0.000000 -0.193061 -0.442661 0.000000 -0.299196 -0.533598 0.000000 -0.319194 -0.527324 0.000000 -0.359731 -0.507575 0.000000 -0.374948 -0.413602 0.000000 -0.386186 -0.313317 0.000000 -0.384786 -0.182409 0.000000 -0.364696 -0.055301 0.000000 -0.318439 0.075533 0.000000 -0.239358 0.186189 0.000000 -0.129473 0.267315 0.000000 
0.000000 0.182308 0.000000 0.095778 0.162622 0.000000 0.175922 0.103458 0.000000 0.229086 0.020345 0.000000 0.253710 -0.084021 0.000000 0.248106 -0.191029 0.000000 0.221574 -0.306860 0.000000 0.168567 -0.400168 0.000000 0.109091 -0.483264 0.000000 0.018855 -0.505487 0.000000 -0.048542 -0.491503 0.000000 -0.166137 -0.390354 0.000000 -0.232265 -0.187934 0.000000 -0.354714 0.129468 0.000000 -0.416975 0.607766 0.000000 -0.328874 1.174604 0.000000 -0.000000 1.502410 0.000000 0.328874 1.174604 0.000000 0.416975 0.607766 0.000000 0.354714 0.129468 0.000000 0.232265 -0.187934 0.000000 0.166137 -0.390354 0.000000 0.048542 -0.491503 0.000000 -0.018855 -0.505487 0.000000 -0.109091 -0.483264 0.000000 -0.168567 -0.400168 0.000000 -0.221574 -0.306860 0.000000 -0.248106 -0.191029 0.000000 -0.253710 -0.084021 0.000000 -0.229086 0.020345 0.000000 -0.175922 0.103458 0.000000 -0.095778 0.162622 0.000000 
0.000000 0.103755 0.000000 0.068621 0.091393 0.000000 0.123724 0.052881 0.000000 0.152742 -0.002255 0.000000 0.153274 -0.074320 0.000000 0.116172 -0.150273 0.000000 0.050943 -0.233778 0.000000 -0.056299 -0.301119 0.000000 -0.177409 -0.357863 0.000000 -0.337167 -0.369691 0.000000 -0.473999 -0.348606 0.000000 -0.635465 -0.258938 0.000000 -0.726282 -0.099136 0.000000 -0.784692 0.138808 0.000000 -0.702577 0.477856 0.000000 -0.466182 0.852074 0.000000 -0.000000 1.062177 0.000000 0.466182 0.852074 0.000000 0.702577 0.477856 0.000000 0.784692 0.138808 0.000000 0.726282 -0.099136 0.000000 0.635465 -0.258938 0.000000 0.473999 -0.348606 0.000000 0.337167 -0.369691 0.000000 0.177409 -0.357863 0.000000 0.056299 -0.301119 0.000000 -0.050943 -0.233778 0.000000 -0.116172 -0.150273 0.000000 -0.153274 -0.074320 0.000000 -0.152742 -0.002255 0.000000 -0.123724 0.052881 0.000000 -0.068621 0.091393 0.000000 
0.000000 0.045067 0.000000 0.051878 0.038898 0.000000 0.091393 0.019336 0.000000 0.104758 -0.009206 0.000000 0.089138 -0.047451 0.000000 0.030438 -0.088697 0.000000 -0.061134 -0.134389 0.000000 -0.203340 -0.171817 0.000000 -0.362254 -0.202396 0.000000 -0.561203 -0.208896 0.000000 -0.731945 -0.193205 0.000000 -0.909809 -0.138072 0.000000 -0.990882 -0.038707 0.000000 -1.008945 0.105763 0.000000 -0.852074 0.289255 0.000000 -0.531089 0.472026 0.000000 -0.000000 0.570046 0.000000 0.531089 0.472026 0.000000 0.852074 0.289255 0.000000 1.008945 0.105763 0.000000 0.990882 -0.038707 0.000000 0.909809 -0.138072 0.000000 0.731945 -0.193205 0.000000 0.561203 -0.208896 0.000000 0.362254 -0.202396 0.000000 0.203340 -0.171817 0.000000 0.061134 -0.134389 0.000000 -0.030438 -0.088697 0.000000 -0.089138 -0.047451 0.000000 -0.104758 -0.009206 0.000000 -0.091393 0.019336 0.000000 -0.051878 0.038898 0.000000 
