# vtk DataFile Version 2.0
Comment goes here
ASCII

DATASET STRUCTURED_POINTS
FIELD FieldData 1
TIME 1 1 double
1.28000000
DIMENSIONS    32   32   1

ORIGIN    0.000   0.000   0.000
SPACING   0.03125 0.03125   1.000

POINT_DATA   1024
VECTORS u double

-0.000000 -0.000000 0.000000 0.030892 -0.000000 0.000000 0.048064 -0.000000 0.000000 0.028497 -0.000000 0.000000 -0.021851 -0.000000 0.000000 -0.124049 -0.000000 0.000000 -0.254286 -0.000000 0.000000 -0.423917 -0.000000 0.000000 -0.599017 -0.000000 0.000000 -0.776155 0.000000 0.000000 -0.924735 0.000000 0.000000 -1.024408 0.000000 0.000000 -1.059751 0.000000 0.000000 -0.984038 0.000000 0.000000 -0.800510 0.000000 0.000000 -0.441608 0.000000 0.000000 0.000000 0.000000 0.000000 0.441608 -0.000000 0.000000 0.800510 -0.000000 0.000000 0.984038 -0.000000 0.000000 1.059751 -0.000000 0.000000 1.024408 -0.000000 0.000000 0.924735 -0.000000 0.000000 0.776155 -0.000000 0.000000 0.599017 -0.000000 0.000000 0.423917 -0.000000 0.000000 0.254286 0.000000 0.000000 0.124049 0.000000 0.000000 0.021851 0.000000 0.000000 -0.028497 0.000000 0.000000 -0.048064 -0.000000 0.000000 -0.030892 -0.000000 0.000000 
-0.000000 -0.030892 0.000000 0.038954 -0.024032 0.000000 0.064137 0.001197 0.000000 0.053738 0.034957 0.000000 0.012830 0.076273 0.000000 -0.076498 0.116218 0.000000 -0.194019 0.149934 0.000000 -0.345508 0.172366 0.000000 -0.505527 0.176119 0.000000 -0.662357 0.162859 0.000000 -0.798703 0.124126 0.000000 -0.886284 0.067508 0.000000 -0.921382 -0.020185 0.000000 -0.859036 -0.129620 0.000000 -0.701410 -0.271215 0.000000 -0.387504 -0.400255 0.000000 0.000000 -0.441608 0.000000 0.387504 -0.400255 0.000000 0.701410 -0.271215 0.000000 0.859036 -0.129620 0.000000 0.921382 -0.020185 0.000000 0.886284 0.067508 0.000000 0.798703 0.124126 0.000000 0.662357 0.162859 0.000000 0.505527 0.176119 0.000000 0.345508 0.172366 0.000000 0.194019 0.149934 0.000000 0.076498 0.116218 0.000000 -0.012830 0.076273 0.000000 -0.053738 0.034957 0.000000 -0.064137 0.001197 0.000000 -0.038954 -0.024032 0.000000 
-0.000000 -0.077908 0.000000 0.060151 -0.064137 0.000000 0.106882 -0.014783 0.000000 0.116642 0.051308 0.000000 0.099141 0.130236 0.000000 0.031855 0.206849 0.000000 -0.056701 0.269010 0.000000 -0.183474 0.311509 0.000000 -0.311618 0.316848 0.000000 -0.447459 0.293175 0.000000 -0.561367 0.223928 0.000000 -0.645541 0.122680 0.000000 -0.691057 -0.027248 0.000000 -0.664686 -0.219973 0.000000 -0.571118 -0.471532 0.000000 -0.307602 -0.701410 0.000000 0.000000 -0.775009 0.000000 0.307602 -0.701410 0.000000 0.571118 -0.471532 0.000000 0.664686 -0.219973 0.000000 0.691057 -0.027248 0.000000 0.645541 0.122680 0.000000 0.561367 0.223928 0.000000 0.447459 0.293175 0.000000 0.311618 0.316848 0.000000 0.183474 0.311509 0.000000 0.056701 0.269010 0.000000 -0.031855 0.206849 0.000000 -0.099141 0.130236 0.000000 -0.116642 0.051308 0.000000 -0.106882 -0.014783 0.000000 -0.060151 -0.064137 0.000000 
-0.000000 -0.151193 0.000000 0.091056 -0.130914 0.000000 0.168611 -0.055294 0.000000 0.208558 0.042699 0.000000 0.223776 0.161060 0.000000 0.192034 0.272059 0.000000 0.144297 0.365264 0.000000 0.063898 0.427283 0.000000 -0.017704 0.440103 0.000000 -0.101928 0.412609 0.000000 -0.177578 0.322208 0.000000 -0.227441 0.197197 0.000000 -0.267140 -0.001039 0.000000 -0.280455 -0.249559 0.000000 -0.276824 -0.628299 0.000000 -0.143209 -0.971373 0.000000 -0.000000 -1.056813 0.000000 0.143209 -0.971373 0.000000 0.276824 -0.628299 0.000000 0.280455 -0.249559 0.000000 0.267140 -0.001039 0.000000 0.227441 0.197197 0.000000 0.177578 0.322208 0.000000 0.101928 0.412609 0.000000 0.017704 0.440103 0.000000 -0.063898 0.427283 0.000000 -0.144297 0.365264 0.000000 -0.192034 0.272059 0.000000 -0.223776 0.161060 0.000000 -0.208558 0.042699 0.000000 -0.168611 -0.055294 0.000000 -0.091056 -0.130914 0.000000 
-0.000000 -0.260021 0.000000 0.126945 -0.232748 0.000000 0.239896 -0.132285 0.000000 0.312245 -0.003857 0.000000 0.362439 0.146760 0.000000 0.362876 0.286328 0.000000 0.356808 0.397145 0.000000 0.311786 0.473509 0.000000 0.276759 0.482675 0.000000 0.220137 0.453050 0.000000 0.174019 0.349441 0.000000 0.118512 0.212242 0.000000 0.055168 0.025766 0.000000 -0.037168 -0.210289 0.000000 -0.140866 -0.608778 0.000000 -0.038611 -0.978233 0.000000 0.000000 -1.061427 0.000000 0.038611 -0.978233 0.000000 0.140866 -0.608778 0.000000 0.037168 -0.210289 0.000000 -0.055168 0.025766 0.000000 -0.118512 0.212242 0.000000 -0.174019 0.349441 0.000000 -0.220137 0.453050 0.000000 -0.276759 0.482675 0.000000 -0.311786 0.473509 0.000000 -0.356808 0.397145 0.000000 -0.362876 0.286328 0.000000 -0.362439 0.146760 0.000000 -0.312245 -0.003857 0.000000 -0.239896 -0.132285 0.000000 -0.126945 -0.232748 0.000000 
-0.000000 -0.405083 0.000000 0.158659 -0.370810 0.000000 0.303037 -0.240594 0.000000 0.403078 -0.079844 0.000000 0.483818 0.110429 0.000000 0.511731 0.277690 0.000000 0.541901 0.416353 0.000000 0.534147 0.507332 0.000000 0.540611 0.531753 0.000000 0.534808 0.515348 0.000000 0.516684 0.423833 0.000000 0.513546 0.316048 0.000000 0.502944 0.154641 0.000000 0.450370 -0.053525 0.000000 0.310715 -0.626856 0.000000 0.223446 -1.112239 0.000000 0.000000 -1.134035 0.000000 -0.223446 -1.112239 0.000000 -0.310715 -0.626856 0.000000 -0.450370 -0.053525 0.000000 -0.502944 0.154641 0.000000 -0.513546 0.316048 0.000000 -0.516684 0.423833 0.000000 -0.534808 0.515348 0.000000 -0.540611 0.531753 0.000000 -0.534147 0.507332 0.000000 -0.541901 0.416353 0.000000 -0.511731 0.277690 0.000000 -0.483818 0.110429 0.000000 -0.403078 -0.079844 0.000000 -0.303037 -0.240594 0.000000 -0.158659 -0.370810 0.000000 
-0.000000 -0.577340 0.000000 0.185095 -0.535785 0.000000 0.354722 -0.376703 0.000000 0.478121 -0.184638 0.000000 0.583159 0.038107 0.000000 0.632767 0.228245 0.000000 0.694227 0.374730 0.000000 0.710781 0.474799 0.000000 0.763476 0.482014 0.000000 0.782847 0.476977 0.000000 0.810796 0.370703 0.000000 0.818382 0.225981 0.000000 0.760378 0.088941 0.000000 0.563135 -0.018060 0.000000 0.379864 -0.381854 0.000000 0.393260 -0.667518 0.000000 0.000000 -0.614534 0.000000 -0.393260 -0.667518 0.000000 -0.379864 -0.381854 0.000000 -0.563135 -0.018060 0.000000 -0.760378 0.088941 0.000000 -0.818382 0.225981 0.000000 -0.810796 0.370703 0.000000 -0.782847 0.476977 0.000000 -0.763476 0.482014 0.000000 -0.710781 0.474799 0.000000 -0.694227 0.374730 0.000000 -0.632767 0.228245 0.000000 -0.583159 0.038107 0.000000 -0.478121 -0.184638 0.000000 -0.354722 -0.376703 0.000000 -0.185095 -0.535785 0.000000 
-0.000000 -0.775273 0.000000 0.193194 -0.725532 0.000000 0.371382 -0.533620 0.000000 0.499535 -0.308282 0.000000 0.615858 -0.044217 0.000000 0.668726 0.166622 0.000000 0.752756 0.338339 0.000000 0.779792 0.438084 0.000000 0.869323 0.459687 0.000000 0.938218 0.468028 0.000000 0.944086 0.388298 0.000000 1.101170 0.366466 0.000000 1.157008 0.409888 0.000000 1.592730 0.326989 0.000000 1.676346 -0.456981 0.000000 0.989995 -0.732375 0.000000 0.000000 -0.347515 0.000000 -0.989995 -0.732375 0.000000 -1.676346 -0.456981 0.000000 -1.592730 0.326989 0.000000 -1.157008 0.409888 0.000000 -1.101170 0.366466 0.000000 -0.944086 0.388298 0.000000 -0.938218 0.468028 0.000000 -0.869323 0.459687 0.000000 -0.779792 0.438084 0.000000 -0.752756 0.338339 0.000000 -0.668726 0.166622 0.000000 -0.615858 -0.044217 0.000000 -0.499535 -0.308282 0.000000 -0.371382 -0.533620 0.000000 -0.193194 -0.725532 0.000000 
-0.000000 -0.963727 0.000000 0.188757 -0.907168 0.000000 0.361062 -0.683044 0.000000 0.488248 -0.429114 0.000000 0.602867 -0.131085 0.000000 0.661759 0.091347 0.000000 0.759781 0.263665 0.000000 0.800887 0.358232 0.000000 0.943861 0.323587 0.000000 1.050338 0.402214 0.000000 1.186529 0.207751 0.000000 1.699569 0.013059 0.000000 1.900040 -0.402618 0.000000 2.113164 -0.537398 0.000000 1.461664 0.220880 0.000000 0.414435 1.008827 0.000000 0.000000 1.365455 0.000000 -0.414435 1.008827 0.000000 -1.461664 0.220880 0.000000 -2.113164 -0.537398 0.000000 -1.900040 -0.402618 0.000000 -1.699569 0.013059 0.000000 -1.186529 0.207751 0.000000 -1.050338 0.402214 0.000000 -0.943861 0.323587 0.000000 -0.800887 0.358232 0.000000 -0.759781 0.263665 0.000000 -0.661759 0.091347 0.000000 -0.602867 -0.131085 0.000000 -0.488248 -0.429114 0.000000 -0.361062 -0.683044 0.000000 -0.188757 -0.907168 0.000000 
0.000000 -1.152786 0.000000 0.156992 -1.086594 0.000000 0.299447 -0.833111 0.000000 0.399144 -0.550086 0.000000 0.494142 -0.217728 0.000000 0.524753 0.009708 0.000000 0.630675 0.199211 0.000000 0.633332 0.254004 0.000000 0.875632 0.210237 0.000000 0.975218 0.225360 0.000000 1.067402 -0.260934 0.000000 0.727918 -0.347046 0.000000 0.448262 -0.003706 0.000000 -0.481511 0.765366 0.000000 -1.108985 1.241747 0.000000 -0.667127 0.729289 0.000000 -0.000000 0.481355 0.000000 0.667127 0.729289 0.000000 1.108985 1.241747 0.000000 0.481511 0.765366 0.000000 -0.448262 -0.003706 0.000000 -0.727918 -0.347046 0.000000 -1.067402 -0.260934 0.000000 -0.975218 0.225360 0.000000 -0.875632 0.210237 0.000000 -0.633332 0.254004 0.000000 -0.630675 0.199211 0.000000 -0.524753 0.009708 0.000000 -0.494142 -0.217728 0.000000 -0.399144 -0.550086 0.000000 -0.299447 -0.833111 0.000000 -0.156992 -1.086594 0.000000 
0.000000 -1.277711 0.000000 0.109336 -1.206615 0.000000 0.205997 -0.925197 0.000000 0.280232 -0.623808 0.000000 0.343236 -0.256694 0.000000 0.368310 -0.045186 0.000000 0.449063 0.155086 0.000000 0.440402 0.113275 0.000000 0.643769 -0.018299 0.000000 0.286986 0.210444 0.000000 0.023437 0.455052 0.000000 -0.276103 0.632199 0.000000 -0.439982 0.806811 0.000000 -0.585301 1.019849 0.000000 -0.070522 0.406496 0.000000 0.297028 -0.100158 0.000000 -0.000000 0.031201 0.000000 -0.297028 -0.100158 0.000000 0.070522 0.406496 0.000000 0.585301 1.019849 0.000000 0.439982 0.806811 0.000000 0.276103 0.632199 0.000000 -0.023437 0.455052 0.000000 -0.286986 0.210444 0.000000 -0.643769 -0.018299 0.000000 -0.440402 0.113275 0.000000 -0.449063 0.155086 0.000000 -0.368310 -0.045186 0.000000 -0.343236 -0.256694 0.000000 -0.280232 -0.623808 0.000000 -0.205997 -0.925197 0.000000 -0.109336 -1.206615 0.000000 
0.000000 -1.371457 0.000000 0.031186 -1.292591 0.000000 0.057093 -1.004008 0.000000 0.084118 -0.687325 0.000000 0.095034 -0.305806 0.000000 0.075925 -0.096119 0.000000 0.063991 0.127119 0.000000 -0.117586 0.059298 0.000000 -0.040078 0.363653 0.000000 -0.793602 0.845692 0.000000 -0.594700 0.302155 0.000000 -0.129014 0.116373 0.000000 -0.472753 0.305492 0.000000 0.019460 0.395906 0.000000 0.373894 0.359418 0.000000 0.248052 0.658767 0.000000 -0.000000 1.075412 0.000000 -0.248052 0.658767 0.000000 -0.373894 0.359418 0.000000 -0.019460 0.395906 0.000000 0.472753 0.305492 0.000000 0.129014 0.116373 0.000000 0.594700 0.302155 0.000000 0.793602 0.845692 0.000000 0.040078 0.363653 0.000000 0.117586 0.059298 0.000000 -0.063991 0.127119 0.000000 -0.075925 -0.096119 0.000000 -0.095034 -0.305806 0.000000 -0.084118 -0.687325 0.000000 -0.057093 -1.004008 0.000000 -0.031186 -1.292591 0.000000 
0.000000 -1.340083 0.000000 -0.066886 -1.263708 0.000000 -0.124868 -0.978128 0.000000 -0.137749 -0.661749 0.000000 -0.162382 -0.248502 0.000000 -0.139271 -0.014143 0.000000 -0.203690 0.348598 0.000000 -0.242647 0.217344 0.000000 -0.491978 0.657717 0.000000 -0.999803 0.765066 0.000000 -0.066329 -0.209537 0.000000 -0.231325 0.510252 0.000000 -0.731516 0.658337 0.000000 -0.380331 0.173202 0.000000 -0.340088 0.177904 0.000000 -0.253032 0.273736 0.000000 0.000000 0.527305 0.000000 0.253032 0.273736 0.000000 0.340088 0.177904 0.000000 0.380331 0.173202 0.000000 0.731516 0.658337 0.000000 0.231325 0.510252 0.000000 0.066329 -0.209537 0.000000 0.999803 0.765066 0.000000 0.491978 0.657717 0.000000 0.242647 0.217344 0.000000 0.203690 0.348598 0.000000 0.139271 -0.014143 0.000000 0.162382 -0.248502 0.000000 0.137749 -0.661749 0.000000 0.124868 -0.978128 0.000000 0.066886 -1.263708 0.000000 
0.000000 -1.237684 0.000000 -0.191155 -1.167723 0.000000 -0.356624 -0.933145 0.000000 -0.427329 -0.649811 0.000000 -0.495197 -0.304284 0.000000 -0.413580 -0.054811 0.000000 -0.532269 0.230495 0.000000 -0.333402 0.347585 0.000000 -1.055817 1.120810 0.000000 -0.674455 0.420043 0.000000 -0.006186 -0.466323 0.000000 -0.578402 0.781560 0.000000 -0.290192 0.454497 0.000000 -0.219156 0.004478 0.000000 -0.157072 0.232119 0.000000 -0.147040 0.318679 0.000000 0.000000 0.569348 0.000000 0.147040 0.318679 0.000000 0.157072 0.232119 0.000000 0.219156 0.004478 0.000000 0.290192 0.454497 0.000000 0.578402 0.781560 0.000000 0.006186 -0.466323 0.000000 0.674455 0.420043 0.000000 1.055817 1.120810 0.000000 0.333402 0.347585 0.000000 0.532269 0.230495 0.000000 0.413580 -0.054811 0.000000 0.495197 -0.304284 0.000000 0.427329 -0.649811 0.000000 0.356624 -0.933145 0.000000 0.191155 -1.167723 0.000000 
0.000000 -0.957772 0.000000 -0.344513 -0.907084 0.000000 -0.645476 -0.741955 0.000000 -0.839667 -0.523177 0.000000 -0.979828 -0.262251 0.000000 -0.985490 0.022929 0.000000 -1.076388 0.268420 0.000000 -0.972913 0.740891 0.000000 -1.249139 0.998770 0.000000 -0.224580 -0.284565 0.000000 -0.569835 -0.305590 0.000000 -0.866962 0.794259 0.000000 -0.298774 0.299091 0.000000 -0.426496 0.040082 0.000000 -0.258304 0.105788 0.000000 -0.219889 0.116664 0.000000 0.000000 0.233226 0.000000 0.219889 0.116664 0.000000 0.258304 0.105788 0.000000 0.426496 0.040082 0.000000 0.298774 0.299091 0.000000 0.866962 0.794259 0.000000 0.569835 -0.305590 0.000000 0.224580 -0.284565 0.000000 1.249139 0.998770 0.000000 0.972913 0.740891 0.000000 1.076388 0.268420 0.000000 0.985490 0.022929 0.000000 0.979828 -0.262251 0.000000 0.839667 -0.523177 0.000000 0.645476 -0.741955 0.000000 0.344513 -0.907084 0.000000 
0.000000 -0.548658 0.000000 -0.478886 -0.522247 0.000000 -0.907084 -0.437991 0.000000 -1.220841 -0.315459 0.000000 -1.430260 -0.158462 0.000000 -1.483092 0.041749 0.000000 -1.407331 0.217918 0.000000 -1.214672 0.520337 0.000000 -0.666440 0.372477 0.000000 -0.215902 -0.259261 0.000000 -0.951005 0.176059 0.000000 -0.521492 0.510499 0.000000 -0.156747 0.014030 0.000000 -0.222401 -0.035992 0.000000 -0.116664 0.025513 0.000000 -0.116613 0.060374 0.000000 0.000000 0.129570 0.000000 0.116613 0.060374 0.000000 0.116664 0.025513 0.000000 0.222401 -0.035992 0.000000 0.156747 0.014030 0.000000 0.521492 0.510499 0.000000 0.951005 0.176059 0.000000 0.215902 -0.259261 0.000000 0.666440 0.372477 0.000000 1.214672 0.520337 0.000000 1.407331 0.217918 0.000000 1.483092 0.041749 0.000000 1.430260 -0.158462 0.000000 1.220841 -0.315459 0.000000 0.907084 -0.437991 0.000000 0.478886 -0.522247 0.000000 
0.000000 0.000000 0.000000 -0.548658 0.000000 0.000000 -1.044494 0.000000 0.000000 -1.424640 -0.000000 0.000000 -1.675412 -0.000000 0.000000 -1.741564 -0.000000 0.000000 -1.591914 0.000000 0.000000 -1.305729 0.000000 0.000000 -0.551241 0.000000 0.000000 -0.560774 -0.000000 0.000000 -1.069764 0.000000 0.000000 -0.208656 0.000000 0.000000 -0.048766 0.000000 0.000000 -0.180595 0.000000 0.000000 -0.120749 0.000000 0.000000 -0.129570 0.000000 0.000000 -0.000000 -0.000000 0.000000 0.129570 -0.000000 0.000000 0.120749 -0.000000 0.000000 0.180595 -0.000000 0.000000 0.048766 -0.000000 0.000000 0.208656 0.000000 0.000000 1.069764 0.000000 0.000000 0.560774 0.000000 0.000000 0.551241 -0.000000 0.000000 1.305729 -0.000000 0.000000 1.591914 -0.000000 0.000000 1.741564 -0.000000 0.000000 1.675412 0.000000 0.000000 1.424640 0.000000 0.000000 1.044494 0.000000 0.000000 0.548658 0.000000 0.000000 
-0.000000 0.548658 0.000000 -0.478886 0.522247 0.000000 -0.907084 0.437991 0.000000 -1.220841 0.315459 0.000000 -1.430260 0.158462 0.000000 -1.483092 -0.041749 0.000000 -1.407331 -0.217918 0.000000 -1.214672 -0.520337 0.000000 -0.666440 -0.372477 0.000000 -0.215902 0.259261 0.000000 -0.951005 -0.176059 0.000000 -0.521492 -0.510499 0.000000 -0.156747 -0.014030 0.000000 -0.222401 0.035992 0.000000 -0.116664 -0.025513 0.000000 -0.116613 -0.060374 0.000000 -0.000000 -0.129570 0.000000 0.116613 -0.060374 0.000000 0.116664 -0.025513 0.000000 0.222401 0.035992 0.000000 0.156747 -0.014030 0.000000 0.521492 -0.510499 0.000000 0.951005 -0.176059 0.000000 0.215902 0.259261 0.000000 0.666440 -0.372477 0.000000 1.214672 -0.520337 0.000000 1.407331 -0.217918 0.000000 1.483092 -0.041749 0.000000 1.430260 0.158462 0.000000 1.220841 0.315459 0.000000 0.907084 0.437991 0.000000 0.478886 0.522247 0.000000 
-0.000000 0.957772 0.000000 -0.344513 0.907084 0.000000 -0.645476 0.741955 0.000000 -0.839667 0.523177 0.000000 -0.979828 0.262251 0.000000 -0.985490 -0.022929 0.000000 -1.076388 -0.268420 0.000000 -0.972913 -0.740891 0.000000 -1.249139 -0.998770 0.000000 -0.224580 0.284565 0.000000 -0.569835 0.305590 0.000000 -0.866962 -0.794259 0.000000 -0.298774 -0.299091 0.000000 -0.426496 -0.040082 0.000000 -0.258304 -0.105788 0.000000 -0.219889 -0.116664 0.000000 -0.000000 -0.233226 0.000000 0.219889 -0.116664 0.000000 0.258304 -0.105788 0.000000 0.426496 -0.040082 0.000000 0.298774 -0.299091 0.000000 0.866962 -0.794259 0.000000 0.569835 0.305590 0.000000 0.224580 0.284565 0.000000 1.249139 -0.998770 0.000000 0.972913 -0.740891 0.000000 1.076388 -0.268420 0.000000 0.985490 -0.022929 0.000000 0.979828 0.262251 0.000000 0.839667 0.523177 0.000000 0.645476 0.741955 0.000000 0.344513 0.907084 0.000000 
-0.000000 1.237684 0.000000 -0.191155 1.167723 0.000000 -0.356624 0.933145 0.000000 -0.427329 0.649811 0.000000 -0.495197 0.304284 0.000000 -0.413580 0.054811 0.000000 -0.532269 -0.230495 0.000000 -0.333402 -0.347585 0.000000 -1.055817 -1.120810 0.000000 -0.674455 -0.420043 0.000000 -0.006186 0.466323 0.000000 -0.578402 -0.781560 0.000000 -0.290192 -0.454497 0.000000 -0.219156 -0.004478 0.000000 -0.157072 -0.232119 0.000000 -0.147040 -0.318679 0.000000 -0.000000 -0.569348 0.000000 0.147040 -0.318679 0.000000 0.157072 -0.232119 0.000000 0.219156 -0.004478 0.000000 0.290192 -0.454497 0.000000 0.578402 -0.781560 0.000000 0.006186 0.466323 0.000000 0.674455 -0.420043 0.000000 1.055817 -1.120810 0.000000 0.333402 -0.347585 0.000000 0.532269 -0.230495 0.000000 0.413580 0.054811 0.000000 0.495197 0.304284 0.000000 0.427329 0.649811 0.000000 0.356624 0.933145 0.000000 0.191155 1.167723 0.000000 
-0.000000 1.340083 0.000000 -0.066886 1.263708 0.000000 -0.124868 0.978128 0.000000 -0.137749 0.661749 0.000000 -0.162382 0.248502 0.000000 -0.139271 0.014143 0.000000 -0.203690 -0.348598 0.000000 -0.242647 -0.217344 0.000000 -0.491978 -0.657717 0.000000 -0.999803 -0.765066 0.000000 -0.066329 0.209537 0.000000 -0.231325 -0.510252 0.000000 -0.731516 -0.658337 0.000000 -0.380331 -0.173202 0.000000 -0.340088 -0.177904 0.000000 -0.253032 -0.273736 0.000000 -0.000000 -0.527305 0.000000 0.253032 -0.273736 0.000000 0.340088 -0.177904 0.000000 0.380331 -0.173202 0.000000 0.731516 -0.658337 0.000000 0.231325 -0.510252 0.000000 0.066329 0.209537 0.000000 0.999803 -0.765066 0.000000 0.491978 -0.657717 0.000000 0.242647 -0.217344 0.000000 0.203690 -0.348598 0.000000 0.139271 0.014143 0.000000 0.162382 0.248502 0.000000 0.137749 0.661749 0.000000 0.124868 0.978128 0.000000 0.066886 1.263708 0.000000 
-0.000000 1.371457 0.000000 0.031186 1.292591 0.000000 0.057093 1.004008 0.000000 0.084118 0.687325 0.000000 0.095034 0.305806 0.000000 0.075925 0.096119 0.000000 0.063991 -0.127119 0.000000 -0.117586 -0.059298 0.000000 -0.040078 -0.363653 0.000000 -0.793602 -0.845692 0.000000 -0.594700 -0.302155 0.000000 -0.129014 -0.116373 0.000000 -0.472753 -0.305492 0.000000 0.019460 -0.395906 0.000000 0.373894 -0.359418 0.000000 0.248052 -0.658767 0.000000 0.000000 -1.075412 0.000000 -0.248052 -0.658767 0.000000 -0.373894 -0.359418 0.000000 -0.019460 -0.395906 0.000000 0.472753 -0.305492 0.000000 0.129014 -0.116373 0.000000 0.594700 -0.302155 0.000000 0.793602 -0.845692 0.000000 0.040078 -0.363653 0.000000 0.117586 -0.059298 0.000000 -0.063991 -0.127119 0.000000 -0.075925 0.096119 0.000000 -0.095034 0.305806 0.000000 -0.084118 0.687325 0.000000 -0.057093 1.004008 0.000000 -0.031186 1.292591 0.000000 
-0.000000 1.277711 0.000000 0.109336 1.206615 0.000000 0.205997 0.925197 0.000000 0.280232 0.623808 0.000000 0.343236 0.256694 0.000000 0.368310 0.045186 0.000000 0.449063 -0.155086 0.000000 0.440402 -0.113275 0.000000 0.643769 0.018299 0.000000 0.286986 -0.210444 0.000000 0.023437 -0.455052 0.000000 -0.276103 -0.632199 0.000000 -0.439982 -0.806811 0.000000 -0.585301 -1.019849 0.000000 -0.070522 -0.406496 0.000000 0.297028 0.100158 0.000000 0.000000 -0.031201 0.000000 -0.297028 0.100158 0.000000 0.070522 -0.406496 0.000000 0.585301 -1.019849 0.000000 0.439982 -0.806811 0.000000 0.276103 -0.632199 0.000000 -0.023437 -0.455052 0.000000 -0.286986 -0.210444 0.000000 -0.643769 0.018299 0.000000 -0.440402 -0.113275 0.000000 -0.449063 -0.155086 0.000000 -0.368310 0.045186 0.000000 -0.343236 0.256694 0.000000 -0.280232 0.623808 0.000000 -0.205997 0.925197 0.000000 -0.109336 1.206615 0.000000 
-0.000000 1.152786 0.000000 0.156992 1.086594 0.000000 0.299447 0.833111 0.000000 0.399144 0.550086 0.000000 0.494142 0.217728 0.000000 0.524753 -0.009708 0.000000 0.630675 -0.199211 0.000000 0.633332 -0.254004 0.000000 0.875632 -0.210237 0.000000 0.975218 -0.225360 0.000000 1.067402 0.260934 0.000000 0.727918 0.347046 0.000000 0.448262 0.003706 0.000000 -0.481511 -0.765366 0.000000 -1.108985 -1.241747 0.000000 -0.667127 -0.729289 0.000000 0.000000 -0.481355 0.000000 0.667127 -0.729289 0.000000 1.108985 -1.241747 0.000000 0.481511 -0.765366 0.000000 -0.448262 0.003706 0.000000 -0.727918 0.347046 0.000000 -1.067402 0.260934 0.000000 -0.975218 -0.225360 0.000000 -0.875632 -0.210237 0.000000 -0.633332 -0.254004 0.000000 -0.630675 -0.199211 0.000000 -0.524753 -0.009708 0.000000 -0.494142 0.217728 0.000000 -0.399144 0.550086 0.000000 -0.299447 0.833111 0.000000 -0.156992 1.086594 0.000000 
-0.000000 0.963727 0.000000 0.188757 0.907168 0.000000 0.361062 0.683044 0.000000 0.488248 0.429114 0.000000 0.602867 0.131085 0.000000 0.661759 -0.091347 0.000000 0.759781 -0.263665 0.000000 0.800887 -0.358232 0.000000 0.943861 -0.323587 0.000000 1.050338 -0.402214 0.000000 1.186529 -0.207751 0.000000 1.699569 -0.013059 0.000000 1.900040 0.402618 0.000000 2.113164 0.537398 0.000000 1.461664 -0.220880 0.000000 0.414435 -1.008827 0.000000 -0.000000 -1.365455 0.000000 -0.414435 -1.008827 0.000000 -1.461664 -0.220880 0.000000 -2.113164 0.537398 0.000000 -1.900040 0.402618 0.000000 -1.699569 -0.013059 0.000000 -1.186529 -0.207751 0.000000 -1.050338 -0.402214 0.000000 -0.943861 -0.323587 0.000000 -0.800887 -0.358232 0.000000 -0.759781 -0.263665 0.000000 -0.661759 -0.091347 0.000000 -0.602867 0.131085 0.000000 -0.488248 0.429114 0.000000 -0.361062 0.683044 0.000000 -0.188757 0.907168 0.000000 
-0.000000 0.775273 0.000000 0.193194 0.725532 0.000000 0.371382 0.533620 0.000000 0.499535 0.308282 0.000000 0.615858 0.044217 0.000000 0.668726 -0.166622 0.000000 0.752756 -0.338339 0.000000 0.779792 -0.438084 0.000000 0.869323 -0.459687 0.000000 0.938218 -0.468028 0.000000 0.944086 -0.388298 0.000000 1.101170 -0.366466 0.000000 1.157008 -0.409888 0.000000 1.592730 -0.326989 0.000000 1.676346 0.456981 0.000000 0.989995 0.732375 0.000000 -0.000000 0.347515 0.000000 -0.989995 0.732375 0.000000 -1.676346 0.456981 0.000000 -1.592730 -0.326989 0.000000 -1.157008 -0.409888 0.000000 -1.101170 -0.366466 0.000000 -0.944086 -0.388298 0.000000 -0.938218 -0.468028 0.000000 -0.869323 -0.459687 0.000000 -0.779792 -0.438084 0.000000 -0.752756 -0.338339 0.000000 -0.668726 -0.166622 0.000000 -0.615858 0.044217 0.000000 -0.499535 0.308282 0.000000 -0.371382 0.533620 0.000000 -0.193194 0.725532 0.000000 
-0.000000 0.577340 0.000000 0.185095 0.535785 0.000000 0.354722 0.376703 0.000000 0.478121 0.184638 0.000000 0.583159 -0.038107 0.000000 0.632767 -0.228245 0.000000 0.694227 -0.374730 0.000000 0.710781 -0.474799 0.000000 0.763476 -0.482014 0.000000 0.782847 -0.476977 0.000000 0.810796 -0.370703 0.000000 0.818382 -0.225981 0.000000 0.760378 -0.088941 0.000000 0.563135 0.018060 0.000000 0.379864 0.381854 0.000000 0.393260 0.667518 0.000000 -0.000000 0.614534 0.000000 -0.393260 0.667518 0.000000 -0.379864 0.381854 0.000000 -0.563135 0.018060 0.000000 -0.760378 -0.088941 0.000000 -0.818382 -0.225981 0.000000 -0.810796 -0.370703 0.000000 -0.782847 -0.476977 0.000000 -0.763476 -0.482014 0.000000 -0.710781 -0.474799 0.000000 -0.694227 -0.374730 0.000000 -0.632767 -0.228245 0.000000 -0.583159 -0.038107 0.000000 -0.478121 0.184638 0.000000 -0.354722 0.376703 0.000000 -0.185095 0.535785 0.000000 
0.000000 0.405083 0.000000 0.158659 0.370810 0.000000 0.303037 0.240594 0.000000 0.403078 0.079844 0.000000 0.483818 -0.110429 0.000000 0.511731 -0.277690 0.000000 0.541901 -0.416353 0.000000 0.534147 -0.507332 0.000000 0.540611 -0.531753 0.000000 0.534808 -0.515348 0.000000 0.516684 -0.423833 0.000000 0.513546 -0.316048 0.000000 0.502944 -0.154641 0.000000 0.450370 0.053525 0.000000 0.310715 0.626856 0.000000 0.223446 1.112239 0.000000 -0.000000 1.134035 0.000000 -0.223446 1.112239 0.000000 -0.310715 0.626856 0.000000 -0.450370 0.053525 0.000000 -0.502944 -0.154641 0.000000 -0.513546 -0.316048 0.000000 -0.516684 -0.423833 0.000000 -0.534808 -0.515348 0.000000 -0.540611 -0.531753 0.000000 -0.534147 -0.507332 0.000000 -0.541901 -0.416353 0.000000 -0.511731 -0.277690 0.000000 -0.483818 -0.110429 0.000000 -0.403078 0.079844 0.000000 -0.303037 0.240594 0.000000 -0.158659 0.370810 0.000000 
-0.000000 0.260021 0.000000 0.126945 0.232748 0.000000 0.239896 0.132285 0.000000 0.312245 0.003857 0.000000 0.362439 -0.146760 0.000000 0.362876 -0.286328 0.000000 0.356808 -0.397145 0.000000 0.311786 -0.473509 0.000000 0.276759 -0.482675 0.000000 0.220137 -0.453050 0.000000 0.174019 -0.349441 0.000000 0.118512 -0.212242 0.000000 0.055168 -0.025766 0.000000 -0.037168 0.210289 0.000000 -0.140866 0.608778 0.000000 -0.038611 0.978233 0.000000 -0.000000 1.061427 0.000000 0.038611 0.978233 0.000000 0.140866 0.608778 0.000000 0.037168 0.210289 0.000000 -0.055168 -0.025766 0.000000 -0.118512 -0.212242 0.000000 -0.174019 -0.349441 0.000000 -0.220137 -0.453050 0.000000 -0.276759 -0.482675 0.000000 -0.311786 -0.473509 0.000000 -0.356808 -0.397145 0.000000 -0.362876 -0.286328 0.000000 -0.362439 -0.146760 0.000000 -0.312245 0.003857 0.000000 -0.239896 0.132285 0.000000 -0.126945 0.232748 0.000000 
-0.000000 0.151193 0.000000 0.091056 0.130914 0.000000 0.168611 0.055294 0.000000 0.208558 -0.042699 0.000000 0.223776 -0.161060 0.000000 0.192034 -0.272059 0.000000 0.144297 -0.365264 0.000000 0.063898 -0.427283 0.000000 -0.017704 -0.440103 0.000000 -0.101928 -0.412609 0.000000 -0.177578 -0.322208 0.000000 -0.227441 -0.197197 0.000000 -0.267140 0.001039 0.000000 -0.280455 0.249559 0.000000 -0.276824 0.628299 0.000000 -0.143209 0.971373 0.000000 0.000000 1.056813 0.000000 0.143209 0.971373 0.000000 0.276824 0.628299 0.000000 0.280455 0.249559 0.000000 0.267140 0.001039 0.000000 0.227441 -0.197197 0.000000 0.177578 -0.322208 0.000000 0.101928 -0.412609 0.000000 0.017704 -0.440103 0.000000 -0.063898 -0.427283 0.000000 -0.144297 -0.365264 0.000000 -0.192034 -0.272059 0.000000 -0.223776 -0.161060 0.000000 -0.208558 -0.042699 0.000000 -0.168611 0.055294 0.000000 -0.091056 0.130914 0.000000 
-0.000000 0.077908 0.000000 0.060151 0.064137 0.000000 0.106882 0.014783 0.000000 0.116642 -0.051308 0.000000 0.099141 -0.130236 0.000000 0.031855 -0.206849 0.000000 -0.056701 -0.269010 0.000000 -0.183474 -0.311509 0.000000 -0.311618 -0.316848 0.000000 -0.447459 -0.293175 0.000000 -0.561367 -0.223928 0.000000 -0.645541 -0.122680 0.000000 -0.691057 0.027248 0.000000 -0.664686 0.219973 0.000000 -0.571118 0.471532 0.000000 -0.307602 0.701410 0.000000 0.000000 0.775009 0.000000 0.307602 0.701410 0.000000 0.571118 0.471532 0.000000 0.664686 0.219973 0.000000 0.691057 0.027248 0.000000 0.645541 -0.122680 0.000000 0.561367 -0.223928 0.000000 0.447459 -0.293175 0.000000 0.311618 -0.316848 0.000000 0.183474 -0.311509 0.000000 0.056701 -0.269010 0.000000 -0.031855 -0.206849 0.000000 -0.099141 -0.130236 0.000000 -0.116642 -0.051308 0.000000 -0.106882 0.014783 0.000000 -0.060151 0.064137 0.000000 
-0.000000 0.030892 0.000000 0.038954 0.024032 0.000000 0.064137 -0.001197 0.000000 0.053738 -0.034957 0.000000 0.012830 -0.076273 0.000000 -0.076498 -0.116218 0.000000 -0.194019 -0.149934 0.000000 -0.345508 -0.172366 0.000000 -0.505527 -0.176119 0.000000 -0.662357 -0.162859 0.000000 -0.798703 -0.124126 0.000000 -0.886284 -0.067508 0.000000 -0.921382 0.020185 0.000000 -0.859036 0.129620 0.000000 -0.701410 0.271215 0.000000 -0.387504 0.400255 0.000000 0.000000 0.441608 0.000000 0.387504 0.400255 0.000000 0.701410 0.271215 0.000000 0.859036 0.129620 0.000000 0.921382 0.020185 0.000000 0.886284 -0.067508 0.000000 0.798703 -0.124126 0.000000 0.662357 -0.162859 0.000000 0.505527 -0.176119 0.000000 0.345508 -0.172366 0.000000 0.194019 -0.149934 0.000000 0.076498 -0.116218 0.000000 -0.012830 -0.076273 0.000000 -0.053738 -0.034957 0.000000 -0.064137 -0.001197 0.000000 -0.038954 0.024032 0.000000 
