# vtk DataFile Version 2.0
Comment goes here
ASCII

DATASET STRUCTURED_POINTS
FIELD FieldData 1
TIME 1 1 double
1.18000000
DIMENSIONS    32   32   1

ORIGIN    0.000   0.000   0.000
SPACING   0.03125 0.03125   1.000

POINT_DATA   1024
VECTORS u double

-0.000000 -0.000000 0.000000 0.012948 -0.000000 0.000000 0.007691 -0.000000 0.000000 -0.026161 -0.000000 0.000000 -0.101637 -0.000000 0.000000 -0.218896 -0.000000 0.000000 -0.374079 -0.000000 0.000000 -0.565266 -0.000000 0.000000 -0.758099 0.000000 0.000000 -0.964812 0.000000 0.000000 -1.112164 0.000000 0.000000 -1.243786 0.000000 0.000000 -1.244434 0.000000 0.000000 -1.183771 0.000000 0.000000 -0.931159 0.000000 0.000000 -0.546573 0.000000 0.000000 0.000000 0.000000 0.000000 0.546573 -0.000000 0.000000 0.931159 -0.000000 0.000000 1.183771 -0.000000 0.000000 1.244434 -0.000000 0.000000 1.243786 -0.000000 0.000000 1.112164 -0.000000 0.000000 0.964812 -0.000000 0.000000 0.758099 -0.000000 0.000000 0.565266 -0.000000 0.000000 0.374079 -0.000000 0.000000 0.218896 -0.000000 0.000000 0.101637 -0.000000 0.000000 0.026161 -0.000000 0.000000 -0.007691 -0.000000 0.000000 -0.012948 -0.000000 0.000000 
-0.000000 -0.012948 0.000000 0.018940 -0.003845 0.000000 0.019468 0.019555 0.000000 -0.008602 0.054664 0.000000 -0.078055 0.096368 0.000000 -0.188206 0.136221 0.000000 -0.335758 0.173185 0.000000 -0.517766 0.192010 0.000000 -0.702525 0.199773 0.000000 -0.899233 0.177033 0.000000 -1.040434 0.139487 0.000000 -1.163951 0.066135 0.000000 -1.165804 -0.030008 0.000000 -1.109917 -0.156638 0.000000 -0.877113 -0.318599 0.000000 -0.518483 -0.465579 0.000000 0.000000 -0.546573 0.000000 0.518483 -0.465579 0.000000 0.877113 -0.318599 0.000000 1.109917 -0.156638 0.000000 1.165804 -0.030008 0.000000 1.163951 0.066135 0.000000 1.040434 0.139487 0.000000 0.899233 0.177033 0.000000 0.702525 0.199773 0.000000 0.517766 0.192010 0.000000 0.335758 0.173185 0.000000 0.188206 0.136221 0.000000 0.078055 0.096368 0.000000 0.008602 0.054664 0.000000 -0.019468 0.019555 0.000000 -0.018940 -0.003845 0.000000 
-0.000000 -0.037881 0.000000 0.042306 -0.019468 0.000000 0.064881 0.027542 0.000000 0.060673 0.097523 0.000000 0.013907 0.179604 0.000000 -0.067218 0.257703 0.000000 -0.185576 0.329560 0.000000 -0.331457 0.366767 0.000000 -0.481078 0.381467 0.000000 -0.643002 0.337909 0.000000 -0.751101 0.264719 0.000000 -0.862366 0.125370 0.000000 -0.860459 -0.054035 0.000000 -0.856578 -0.288692 0.000000 -0.702466 -0.591434 0.000000 -0.432684 -0.877113 0.000000 -0.000000 -1.036965 0.000000 0.432684 -0.877113 0.000000 0.702466 -0.591434 0.000000 0.856578 -0.288692 0.000000 0.860459 -0.054035 0.000000 0.862366 0.125370 0.000000 0.751101 0.264719 0.000000 0.643002 0.337909 0.000000 0.481078 0.381467 0.000000 0.331457 0.366767 0.000000 0.185576 0.329560 0.000000 0.067218 0.257703 0.000000 -0.013907 0.179604 0.000000 -0.060673 0.097523 0.000000 -0.064881 0.027542 0.000000 -0.042306 -0.019468 0.000000 
-0.000000 -0.097560 0.000000 0.072885 -0.068726 0.000000 0.123809 0.001188 0.000000 0.148119 0.105638 0.000000 0.127258 0.224258 0.000000 0.077286 0.335704 0.000000 -0.010393 0.437424 0.000000 -0.118363 0.487512 0.000000 -0.233758 0.511319 0.000000 -0.359726 0.447056 0.000000 -0.440624 0.358850 0.000000 -0.533867 0.175493 0.000000 -0.526948 -0.035796 0.000000 -0.556752 -0.314630 0.000000 -0.479545 -0.742493 0.000000 -0.313254 -1.168046 0.000000 -0.000000 -1.411941 0.000000 0.313254 -1.168046 0.000000 0.479545 -0.742493 0.000000 0.556752 -0.314630 0.000000 0.526948 -0.035796 0.000000 0.533867 0.175493 0.000000 0.440624 0.358850 0.000000 0.359726 0.447056 0.000000 0.233758 0.511319 0.000000 0.118363 0.487512 0.000000 0.010393 0.437424 0.000000 -0.077286 0.335704 0.000000 -0.127258 0.224258 0.000000 -0.148119 0.105638 0.000000 -0.123809 0.001188 0.000000 -0.072885 -0.068726 0.000000 
-0.000000 -0.183651 0.000000 0.111035 -0.143278 0.000000 0.196308 -0.047692 0.000000 0.256071 0.094074 0.000000 0.263678 0.250437 0.000000 0.251014 0.395355 0.000000 0.194808 0.525209 0.000000 0.133602 0.590133 0.000000 0.057089 0.622830 0.000000 -0.022648 0.544775 0.000000 -0.060693 0.438859 0.000000 -0.135386 0.211694 0.000000 -0.083052 -0.031149 0.000000 -0.189528 -0.336095 0.000000 -0.220147 -0.834932 0.000000 -0.164888 -1.356657 0.000000 -0.000000 -1.663473 0.000000 0.164888 -1.356657 0.000000 0.220147 -0.834932 0.000000 0.189528 -0.336095 0.000000 0.083052 -0.031149 0.000000 0.135386 0.211694 0.000000 0.060693 0.438859 0.000000 0.022648 0.544775 0.000000 -0.057089 0.622830 0.000000 -0.133602 0.590133 0.000000 -0.194808 0.525209 0.000000 -0.251014 0.395355 0.000000 -0.263678 0.250437 0.000000 -0.256071 0.094074 0.000000 -0.196308 -0.047692 0.000000 -0.111035 -0.143278 0.000000 
-0.000000 -0.319630 0.000000 0.146248 -0.265034 0.000000 0.262717 -0.143848 0.000000 0.352804 0.038267 0.000000 0.382679 0.229315 0.000000 0.396100 0.404574 0.000000 0.358403 0.554836 0.000000 0.323669 0.625231 0.000000 0.263208 0.667569 0.000000 0.200728 0.564838 0.000000 0.162787 0.471588 0.000000 0.085648 0.197852 0.000000 0.190820 0.018346 0.000000 0.117870 -0.177536 0.000000 0.112076 -0.767132 0.000000 0.063994 -1.388193 0.000000 0.000000 -1.741718 0.000000 -0.063994 -1.388193 0.000000 -0.112076 -0.767132 0.000000 -0.117870 -0.177536 0.000000 -0.190820 0.018346 0.000000 -0.085648 0.197852 0.000000 -0.162787 0.471588 0.000000 -0.200728 0.564838 0.000000 -0.263208 0.667569 0.000000 -0.323669 0.625231 0.000000 -0.358403 0.554836 0.000000 -0.396100 0.404574 0.000000 -0.382679 0.229315 0.000000 -0.352804 0.038267 0.000000 -0.262717 -0.143848 0.000000 -0.146248 -0.265034 0.000000 
-0.000000 -0.476147 0.000000 0.174748 -0.405994 0.000000 0.315406 -0.254247 0.000000 0.430994 -0.025888 0.000000 0.475541 0.207141 0.000000 0.513297 0.419630 0.000000 0.482067 0.597640 0.000000 0.478431 0.685328 0.000000 0.420270 0.745772 0.000000 0.399222 0.645196 0.000000 0.381668 0.553939 0.000000 0.343074 0.183661 0.000000 0.636986 -0.063371 0.000000 0.428559 -0.257352 0.000000 0.353398 -0.781056 0.000000 0.247622 -1.244581 0.000000 0.000000 -1.535484 0.000000 -0.247622 -1.244581 0.000000 -0.353398 -0.781056 0.000000 -0.428559 -0.257352 0.000000 -0.636986 -0.063371 0.000000 -0.343074 0.183661 0.000000 -0.381668 0.553939 0.000000 -0.399222 0.645196 0.000000 -0.420270 0.745772 0.000000 -0.478431 0.685328 0.000000 -0.482067 0.597640 0.000000 -0.513297 0.419630 0.000000 -0.475541 0.207141 0.000000 -0.430994 -0.025888 0.000000 -0.315406 -0.254247 0.000000 -0.174748 -0.405994 0.000000 
-0.000000 -0.669126 0.000000 0.189846 -0.580440 0.000000 0.343042 -0.400094 0.000000 0.472413 -0.121868 0.000000 0.523996 0.147012 0.000000 0.575984 0.398048 0.000000 0.546810 0.589702 0.000000 0.554284 0.687027 0.000000 0.488156 0.746778 0.000000 0.453637 0.603439 0.000000 0.345342 0.527735 0.000000 0.284763 -0.057466 0.000000 0.550079 -0.067139 0.000000 0.628365 0.106053 0.000000 1.034755 -0.586195 0.000000 0.763000 -1.034795 0.000000 0.000000 -1.246473 0.000000 -0.763000 -1.034795 0.000000 -1.034755 -0.586195 0.000000 -0.628365 0.106053 0.000000 -0.550079 -0.067139 0.000000 -0.284763 -0.057466 0.000000 -0.345342 0.527735 0.000000 -0.453637 0.603439 0.000000 -0.488156 0.746778 0.000000 -0.554284 0.687027 0.000000 -0.546810 0.589702 0.000000 -0.575984 0.398048 0.000000 -0.523996 0.147012 0.000000 -0.472413 -0.121868 0.000000 -0.343042 -0.400094 0.000000 -0.189846 -0.580440 0.000000 
0.000000 -0.855839 0.000000 0.185868 -0.749037 0.000000 0.335172 -0.536814 0.000000 0.462537 -0.206842 0.000000 0.508673 0.103569 0.000000 0.566456 0.396817 0.000000 0.522891 0.619340 0.000000 0.547774 0.743982 0.000000 0.422676 0.846418 0.000000 0.439946 0.788011 0.000000 0.198531 0.722813 0.000000 0.699334 -0.021077 0.000000 1.008554 -0.406973 0.000000 1.283345 -0.742028 0.000000 1.231001 -0.915692 0.000000 0.567500 -0.209826 0.000000 0.000000 -0.009484 0.000000 -0.567500 -0.209826 0.000000 -1.231001 -0.915692 0.000000 -1.283345 -0.742028 0.000000 -1.008554 -0.406973 0.000000 -0.699334 -0.021077 0.000000 -0.198531 0.722813 0.000000 -0.439946 0.788011 0.000000 -0.422676 0.846418 0.000000 -0.547774 0.743982 0.000000 -0.522891 0.619340 0.000000 -0.566456 0.396817 0.000000 -0.508673 0.103569 0.000000 -0.462537 -0.206842 0.000000 -0.335172 -0.536814 0.000000 -0.185868 -0.749037 0.000000 
0.000000 -1.040862 0.000000 0.163457 -0.915612 0.000000 0.294449 -0.676763 0.000000 0.408204 -0.295368 0.000000 0.443838 0.043093 0.000000 0.509062 0.383830 0.000000 0.463887 0.608384 0.000000 0.517260 0.787242 0.000000 0.438397 0.854607 0.000000 0.350272 0.827585 0.000000 0.408167 0.268347 0.000000 1.127106 -0.867489 0.000000 0.656152 -0.651149 0.000000 0.337385 -0.116393 0.000000 -0.238688 0.129649 0.000000 -0.288184 0.196206 0.000000 -0.000000 -0.111473 0.000000 0.288184 0.196206 0.000000 0.238688 0.129649 0.000000 -0.337385 -0.116393 0.000000 -0.656152 -0.651149 0.000000 -1.127106 -0.867489 0.000000 -0.408167 0.268347 0.000000 -0.350272 0.827585 0.000000 -0.438397 0.854607 0.000000 -0.517260 0.787242 0.000000 -0.463887 0.608384 0.000000 -0.509062 0.383830 0.000000 -0.443838 0.043093 0.000000 -0.408204 -0.295368 0.000000 -0.294449 -0.676763 0.000000 -0.163457 -0.915612 0.000000 
0.000000 -1.182753 0.000000 0.117329 -1.043486 0.000000 0.213143 -0.781560 0.000000 0.293383 -0.356231 0.000000 0.316119 0.002711 0.000000 0.366282 0.376767 0.000000 0.322178 0.611141 0.000000 0.343991 0.769472 0.000000 0.107015 1.013407 0.000000 -0.349420 0.818240 0.000000 0.339944 -0.054022 0.000000 0.138160 -0.269061 0.000000 -0.654647 0.382749 0.000000 -0.460085 0.152812 0.000000 -0.269271 -0.290123 0.000000 0.157885 -0.448513 0.000000 -0.000000 -0.585852 0.000000 -0.157885 -0.448513 0.000000 0.269271 -0.290123 0.000000 0.460085 0.152812 0.000000 0.654647 0.382749 0.000000 -0.138160 -0.269061 0.000000 -0.339944 -0.054022 0.000000 0.349420 0.818240 0.000000 -0.107015 1.013407 0.000000 -0.343991 0.769472 0.000000 -0.322178 0.611141 0.000000 -0.366282 0.376767 0.000000 -0.316119 0.002711 0.000000 -0.293383 -0.356231 0.000000 -0.213143 -0.781560 0.000000 -0.117329 -1.043486 0.000000 
0.000000 -1.275519 0.000000 0.051896 -1.128756 0.000000 0.098898 -0.852817 0.000000 0.138736 -0.398343 0.000000 0.146131 -0.029806 0.000000 0.195514 0.377770 0.000000 0.084730 0.630675 0.000000 0.220243 1.002405 0.000000 -0.446237 1.548017 0.000000 -0.540633 0.594656 0.000000 0.390280 -0.219233 0.000000 -0.168287 0.127102 0.000000 0.339157 -0.052904 0.000000 0.594370 -0.501769 0.000000 0.524794 -0.488321 0.000000 0.395779 -0.073065 0.000000 -0.000000 0.204298 0.000000 -0.395779 -0.073065 0.000000 -0.524794 -0.488321 0.000000 -0.594370 -0.501769 0.000000 -0.339157 -0.052904 0.000000 0.168287 0.127102 0.000000 -0.390280 -0.219233 0.000000 0.540633 0.594656 0.000000 0.446237 1.548017 0.000000 -0.220243 1.002405 0.000000 -0.084730 0.630675 0.000000 -0.195514 0.377770 0.000000 -0.146131 -0.029806 0.000000 -0.138736 -0.398343 0.000000 -0.098898 -0.852817 0.000000 -0.051896 -1.128756 0.000000 
0.000000 -1.286545 0.000000 -0.040968 -1.142384 0.000000 -0.062966 -0.868400 0.000000 -0.076406 -0.403463 0.000000 -0.061121 -0.054067 0.000000 -0.018369 0.438169 0.000000 -0.076246 0.586412 0.000000 -0.036383 1.300438 0.000000 -1.146109 1.774283 0.000000 0.045628 -0.018276 0.000000 0.633622 -0.426367 0.000000 0.043329 -0.217938 0.000000 0.528856 -0.379909 0.000000 0.207560 -0.032826 0.000000 0.096435 -0.091532 0.000000 -0.062385 0.076281 0.000000 0.000000 0.205706 0.000000 0.062385 0.076281 0.000000 -0.096435 -0.091532 0.000000 -0.207560 -0.032826 0.000000 -0.528856 -0.379909 0.000000 -0.043329 -0.217938 0.000000 -0.633622 -0.426367 0.000000 -0.045628 -0.018276 0.000000 1.146109 1.774283 0.000000 0.036383 1.300438 0.000000 0.076246 0.586412 0.000000 0.018369 0.438169 0.000000 0.061121 -0.054067 0.000000 0.076406 -0.403463 0.000000 0.062966 -0.868400 0.000000 0.040968 -1.142384 0.000000 
0.000000 -1.193584 0.000000 -0.164350 -1.065790 0.000000 -0.275285 -0.817380 0.000000 -0.369519 -0.400189 0.000000 -0.314110 -0.087843 0.000000 -0.350273 0.392895 0.000000 -0.109678 0.648689 0.000000 -0.578731 2.072269 0.000000 -0.723897 1.466006 0.000000 1.046956 -1.185076 0.000000 0.609166 -0.216934 0.000000 0.213735 0.231868 0.000000 -0.028789 -0.217135 0.000000 -0.067927 -0.069348 0.000000 -0.040737 -0.218375 0.000000 -0.076217 0.023370 0.000000 0.000000 0.079528 0.000000 0.076217 0.023370 0.000000 0.040737 -0.218375 0.000000 0.067927 -0.069348 0.000000 0.028789 -0.217135 0.000000 -0.213735 0.231868 0.000000 -0.609166 -0.216934 0.000000 -1.046956 -1.185076 0.000000 0.723897 1.466006 0.000000 0.578731 2.072269 0.000000 0.109678 0.648689 0.000000 0.350273 0.392895 0.000000 0.314110 -0.087843 0.000000 0.369519 -0.400189 0.000000 0.275285 -0.817380 0.000000 0.164350 -1.065790 0.000000 
0.000000 -0.957845 0.000000 -0.323465 -0.867099 0.000000 -0.572059 -0.663231 0.000000 -0.775226 -0.364639 0.000000 -0.779387 -0.073313 0.000000 -0.876437 0.233737 0.000000 -0.562248 0.814869 0.000000 -0.926512 1.914658 0.000000 0.539933 0.148597 0.000000 0.853196 -1.351339 0.000000 -0.140515 0.406853 0.000000 0.160841 0.420017 0.000000 -0.055538 -0.098246 0.000000 0.065348 -0.020878 0.000000 -0.043601 -0.083242 0.000000 -0.049266 0.035544 0.000000 0.000000 0.053272 0.000000 0.049266 0.035544 0.000000 0.043601 -0.083242 0.000000 -0.065348 -0.020878 0.000000 0.055538 -0.098246 0.000000 -0.160841 0.420017 0.000000 0.140515 0.406853 0.000000 -0.853196 -1.351339 0.000000 -0.539933 0.148597 0.000000 0.926512 1.914658 0.000000 0.562248 0.814869 0.000000 0.876437 0.233737 0.000000 0.779387 -0.073313 0.000000 0.775226 -0.364639 0.000000 0.572059 -0.663231 0.000000 0.323465 -0.867099 0.000000 
0.000000 -0.546654 0.000000 -0.478923 -0.493731 0.000000 -0.867099 -0.365619 0.000000 -1.142154 -0.192861 0.000000 -1.231738 0.013369 0.000000 -1.215467 0.175757 0.000000 -0.998001 0.698764 0.000000 -0.400597 0.970087 0.000000 0.916657 -0.313703 0.000000 -0.252001 -0.504628 0.000000 -0.434683 0.475421 0.000000 0.154852 0.146892 0.000000 -0.014666 -0.121642 0.000000 0.056606 -0.081285 0.000000 -0.035544 -0.103761 0.000000 -0.026636 -0.020232 0.000000 -0.000000 -0.019004 0.000000 0.026636 -0.020232 0.000000 0.035544 -0.103761 0.000000 -0.056606 -0.081285 0.000000 0.014666 -0.121642 0.000000 -0.154852 0.146892 0.000000 0.434683 0.475421 0.000000 0.252001 -0.504628 0.000000 -0.916657 -0.313703 0.000000 0.400597 0.970087 0.000000 0.998001 0.698764 0.000000 1.215467 0.175757 0.000000 1.231738 0.013369 0.000000 1.142154 -0.192861 0.000000 0.867099 -0.365619 0.000000 0.478923 -0.493731 0.000000 
0.000000 0.000000 0.000000 -0.546654 0.000000 0.000000 -0.987462 -0.000000 0.000000 -1.277891 -0.000000 0.000000 -1.373183 -0.000000 0.000000 -1.251154 -0.000000 0.000000 -1.021670 0.000000 0.000000 0.146374 0.000000 0.000000 0.918505 0.000000 0.000000 -0.481031 -0.000000 0.000000 -0.090750 0.000000 0.000000 0.469811 0.000000 0.000000 0.203033 0.000000 0.000000 0.226526 0.000000 0.000000 0.040463 0.000000 0.000000 0.019004 -0.000000 0.000000 -0.000000 -0.000000 0.000000 -0.019004 -0.000000 0.000000 -0.040463 -0.000000 0.000000 -0.226526 -0.000000 0.000000 -0.203033 -0.000000 0.000000 -0.469811 -0.000000 0.000000 0.090750 0.000000 0.000000 0.481031 0.000000 0.000000 -0.918505 0.000000 0.000000 -0.146374 -0.000000 0.000000 1.021670 -0.000000 0.000000 1.251154 -0.000000 0.000000 1.373183 -0.000000 0.000000 1.277891 0.000000 0.000000 0.987462 0.000000 0.000000 0.546654 0.000000 0.000000 
-0.000000 0.546654 0.000000 -0.478923 0.493731 0.000000 -0.867099 0.365619 0.000000 -1.142154 0.192861 0.000000 -1.231738 -0.013369 0.000000 -1.215467 -0.175757 0.000000 -0.998001 -0.698764 0.000000 -0.400597 -0.970087 0.000000 0.916657 0.313703 0.000000 -0.252001 0.504628 0.000000 -0.434683 -0.475421 0.000000 0.154852 -0.146892 0.000000 -0.014666 0.121642 0.000000 0.056606 0.081285 0.000000 -0.035544 0.103761 0.000000 -0.026636 0.020232 0.000000 -0.000000 0.019004 0.000000 0.026636 0.020232 0.000000 0.035544 0.103761 0.000000 -0.056606 0.081285 0.000000 0.014666 0.121642 0.000000 -0.154852 -0.146892 0.000000 0.434683 -0.475421 0.000000 0.252001 0.504628 0.000000 -0.916657 0.313703 0.000000 0.400597 -0.970087 0.000000 0.998001 -0.698764 0.000000 1.215467 -0.175757 0.000000 1.231738 -0.013369 0.000000 1.142154 0.192861 0.000000 0.867099 0.365619 0.000000 0.478923 0.493731 0.000000 
-0.000000 0.957845 0.000000 -0.323465 0.867099 0.000000 -0.572059 0.663231 0.000000 -0.775226 0.364639 0.000000 -0.779387 0.073313 0.000000 -0.876437 -0.233737 0.000000 -0.562248 -0.814869 0.000000 -0.926512 -1.914658 0.000000 0.539933 -0.148597 0.000000 0.853196 1.351339 0.000000 -0.140515 -0.406853 0.000000 0.160841 -0.420017 0.000000 -0.055538 0.098246 0.000000 0.065348 0.020878 0.000000 -0.043601 0.083242 0.000000 -0.049266 -0.035544 0.000000 -0.000000 -0.053272 0.000000 0.049266 -0.035544 0.000000 0.043601 0.083242 0.000000 -0.065348 0.020878 0.000000 0.055538 0.098246 0.000000 -0.160841 -0.420017 0.000000 0.140515 -0.406853 0.000000 -0.853196 1.351339 0.000000 -0.539933 -0.148597 0.000000 0.926512 -1.914658 0.000000 0.562248 -0.814869 0.000000 0.876437 -0.233737 0.000000 0.779387 0.073313 0.000000 0.775226 0.364639 0.000000 0.572059 0.663231 0.000000 0.323465 0.867099 0.000000 
-0.000000 1.193584 0.000000 -0.164350 1.065790 0.000000 -0.275285 0.817380 0.000000 -0.369519 0.400189 0.000000 -0.314110 0.087843 0.000000 -0.350273 -0.392895 0.000000 -0.109678 -0.648689 0.000000 -0.578731 -2.072269 0.000000 -0.723897 -1.466006 0.000000 1.046956 1.185076 0.000000 0.609166 0.216934 0.000000 0.213735 -0.231868 0.000000 -0.028789 0.217135 0.000000 -0.067927 0.069348 0.000000 -0.040737 0.218375 0.000000 -0.076217 -0.023370 0.000000 -0.000000 -0.079528 0.000000 0.076217 -0.023370 0.000000 0.040737 0.218375 0.000000 0.067927 0.069348 0.000000 0.028789 0.217135 0.000000 -0.213735 -0.231868 0.000000 -0.609166 0.216934 0.000000 -1.046956 1.185076 0.000000 0.723897 -1.466006 0.000000 0.578731 -2.072269 0.000000 0.109678 -0.648689 0.000000 0.350273 -0.392895 0.000000 0.314110 0.087843 0.000000 0.369519 0.400189 0.000000 0.275285 0.817380 0.000000 0.164350 1.065790 0.000000 
-0.000000 1.286545 0.000000 -0.040968 1.142384 0.000000 -0.062966 0.868400 0.000000 -0.076406 0.403463 0.000000 -0.061121 0.054067 0.000000 -0.018369 -0.438169 0.000000 -0.076246 -0.586412 0.000000 -0.036383 -1.300438 0.000000 -1.146109 -1.774283 0.000000 0.045628 0.018276 0.000000 0.633622 0.426367 0.000000 0.043329 0.217938 0.000000 0.528856 0.379909 0.000000 0.207560 0.032826 0.000000 0.096435 0.091532 0.000000 -0.062385 -0.076281 0.000000 0.000000 -0.205706 0.000000 0.062385 -0.076281 0.000000 -0.096435 0.091532 0.000000 -0.207560 0.032826 0.000000 -0.528856 0.379909 0.000000 -0.043329 0.217938 0.000000 -0.633622 0.426367 0.000000 -0.045628 0.018276 0.000000 1.146109 -1.774283 0.000000 0.036383 -1.300438 0.000000 0.076246 -0.586412 0.000000 0.018369 -0.438169 0.000000 0.061121 0.054067 0.000000 0.076406 0.403463 0.000000 0.062966 0.868400 0.000000 0.040968 1.142384 0.000000 
-0.000000 1.275519 0.000000 0.051896 1.128756 0.000000 0.098898 0.852817 0.000000 0.138736 0.398343 0.000000 0.146131 0.029806 0.000000 0.195514 -0.377770 0.000000 0.084730 -0.630675 0.000000 0.220243 -1.002405 0.000000 -0.446237 -1.548017 0.000000 -0.540633 -0.594656 0.000000 0.390280 0.219233 0.000000 -0.168287 -0.127102 0.000000 0.339157 0.052904 0.000000 0.594370 0.501769 0.000000 0.524794 0.488321 0.000000 0.395779 0.073065 0.000000 0.000000 -0.204298 0.000000 -0.395779 0.073065 0.000000 -0.524794 0.488321 0.000000 -0.594370 0.501769 0.000000 -0.339157 0.052904 0.000000 0.168287 -0.127102 0.000000 -0.390280 0.219233 0.000000 0.540633 -0.594656 0.000000 0.446237 -1.548017 0.000000 -0.220243 -1.002405 0.000000 -0.084730 -0.630675 0.000000 -0.195514 -0.377770 0.000000 -0.146131 0.029806 0.000000 -0.138736 0.398343 0.000000 -0.098898 0.852817 0.000000 -0.051896 1.128756 0.000000 
-0.000000 1.182753 0.000000 0.117329 1.043486 0.000000 0.213143 0.781560 0.000000 0.293383 0.356231 0.000000 0.316119 -0.002711 0.000000 0.366282 -0.376767 0.000000 0.322178 -0.611141 0.000000 0.343991 -0.769472 0.000000 0.107015 -1.013407 0.000000 -0.349420 -0.818240 0.000000 0.339944 0.054022 0.000000 0.138160 0.269061 0.000000 -0.654647 -0.382749 0.000000 -0.460085 -0.152812 0.000000 -0.269271 0.290123 0.000000 0.157885 0.448513 0.000000 0.000000 0.585852 0.000000 -0.157885 0.448513 0.000000 0.269271 0.290123 0.000000 0.460085 -0.152812 0.000000 0.654647 -0.382749 0.000000 -0.138160 0.269061 0.000000 -0.339944 0.054022 0.000000 0.349420 -0.818240 0.000000 -0.107015 -1.013407 0.000000 -0.343991 -0.769472 0.000000 -0.322178 -0.611141 0.000000 -0.366282 -0.376767 0.000000 -0.316119 -0.002711 0.000000 -0.293383 0.356231 0.000000 -0.213143 0.781560 0.000000 -0.117329 1.043486 0.000000 
-0.000000 1.040862 0.000000 0.163457 0.915612 0.000000 0.294449 0.676763 0.000000 0.408204 0.295368 0.000000 0.443838 -0.043093 0.000000 0.509062 -0.383830 0.000000 0.463887 -0.608384 0.000000 0.517260 -0.787242 0.000000 0.438397 -0.854607 0.000000 0.350272 -0.827585 0.000000 0.408167 -0.268347 0.000000 1.127106 0.867489 0.000000 0.656152 0.651149 0.000000 0.337385 0.116393 0.000000 -0.238688 -0.129649 0.000000 -0.288184 -0.196206 0.000000 -0.000000 0.111473 0.000000 0.288184 -0.196206 0.000000 0.238688 -0.129649 0.000000 -0.337385 0.116393 0.000000 -0.656152 0.651149 0.000000 -1.127106 0.867489 0.000000 -0.408167 -0.268347 0.000000 -0.350272 -0.827585 0.000000 -0.438397 -0.854607 0.000000 -0.517260 -0.787242 0.000000 -0.463887 -0.608384 0.000000 -0.509062 -0.383830 0.000000 -0.443838 -0.043093 0.000000 -0.408204 0.295368 0.000000 -0.294449 0.676763 0.000000 -0.163457 0.915612 0.000000 
-0.000000 0.855839 0.000000 0.185868 0.749037 0.000000 0.335172 0.536814 0.000000 0.462537 0.206842 0.000000 0.508673 -0.103569 0.000000 0.566456 -0.396817 0.000000 0.522891 -0.619340 0.000000 0.547774 -0.743982 0.000000 0.422676 -0.846418 0.000000 0.439946 -0.788011 0.000000 0.198531 -0.722813 0.000000 0.699334 0.021077 0.000000 1.008554 0.406973 0.000000 1.283345 0.742028 0.000000 1.231001 0.915692 0.000000 0.567500 0.209826 0.000000 -0.000000 0.009484 0.000000 -0.567500 0.209826 0.000000 -1.231001 0.915692 0.000000 -1.283345 0.742028 0.000000 -1.008554 0.406973 0.000000 -0.699334 0.021077 0.000000 -0.198531 -0.722813 0.000000 -0.439946 -0.788011 0.000000 -0.422676 -0.846418 0.000000 -0.547774 -0.743982 0.000000 -0.522891 -0.619340 0.000000 -0.566456 -0.396817 0.000000 -0.508673 -0.103569 0.000000 -0.462537 0.206842 0.000000 -0.335172 0.536814 0.000000 -0.185868 0.749037 0.000000 
-0.000000 0.669126 0.000000 0.189846 0.580440 0.000000 0.343042 0.400094 0.000000 0.472413 0.121868 0.000000 0.523996 -0.147012 0.000000 0.575984 -0.398048 0.000000 0.546810 -0.589702 0.000000 0.554284 -0.687027 0.000000 0.488156 -0.746778 0.000000 0.453637 -0.603439 0.000000 0.345342 -0.527735 0.000000 0.284763 0.057466 0.000000 0.550079 0.067139 0.000000 0.628365 -0.106053 0.000000 1.034755 0.586195 0.000000 0.763000 1.034795 0.000000 -0.000000 1.246473 0.000000 -0.763000 1.034795 0.000000 -1.034755 0.586195 0.000000 -0.628365 -0.106053 0.000000 -0.550079 0.067139 0.000000 -0.284763 0.057466 0.000000 -0.345342 -0.527735 0.000000 -0.453637 -0.603439 0.000000 -0.488156 -0.746778 0.000000 -0.554284 -0.687027 0.000000 -0.546810 -0.589702 0.000000 -0.575984 -0.398048 0.000000 -0.523996 -0.147012 0.000000 -0.472413 0.121868 0.000000 -0.343042 0.400094 0.000000 -0.189846 0.580440 0.000000 
-0.000000 0.476147 0.000000 0.174748 0.405994 0.000000 0.315406 0.254247 0.000000 0.430994 0.025888 0.000000 0.475541 -0.207141 0.000000 0.513297 -0.419630 0.000000 0.482067 -0.597640 0.000000 0.478431 -0.685328 0.000000 0.420270 -0.745772 0.000000 0.399222 -0.645196 0.000000 0.381668 -0.553939 0.000000 0.343074 -0.183661 0.000000 0.636986 0.063371 0.000000 0.428559 0.257352 0.000000 0.353398 0.781056 0.000000 0.247622 1.244581 0.000000 -0.000000 1.535484 0.000000 -0.247622 1.244581 0.000000 -0.353398 0.781056 0.000000 -0.428559 0.257352 0.000000 -0.636986 0.063371 0.000000 -0.343074 -0.183661 0.000000 -0.381668 -0.553939 0.000000 -0.399222 -0.645196 0.000000 -0.420270 -0.745772 0.000000 -0.478431 -0.685328 0.000000 -0.482067 -0.597640 0.000000 -0.513297 -0.419630 0.000000 -0.475541 -0.207141 0.000000 -0.430994 0.025888 0.000000 -0.315406 0.254247 0.000000 -0.174748 0.405994 0.000000 
-0.000000 0.319630 0.000000 0.146248 0.265034 0.000000 0.262717 0.143848 0.000000 0.352804 -0.038267 0.000000 0.382679 -0.229315 0.000000 0.396100 -0.404574 0.000000 0.358403 -0.554836 0.000000 0.323669 -0.625231 0.000000 0.263208 -0.667569 0.000000 0.200728 -0.564838 0.000000 0.162787 -0.471588 0.000000 0.085648 -0.197852 0.000000 0.190820 -0.018346 0.000000 0.117870 0.177536 0.000000 0.112076 0.767132 0.000000 0.063994 1.388193 0.000000 -0.000000 1.741718 0.000000 -0.063994 1.388193 0.000000 -0.112076 0.767132 0.000000 -0.117870 0.177536 0.000000 -0.190820 -0.018346 0.000000 -0.085648 -0.197852 0.000000 -0.162787 -0.471588 0.000000 -0.200728 -0.564838 0.000000 -0.263208 -0.667569 0.000000 -0.323669 -0.625231 0.000000 -0.358403 -0.554836 0.000000 -0.396100 -0.404574 0.000000 -0.382679 -0.229315 0.000000 -0.352804 -0.038267 0.000000 -0.262717 0.143848 0.000000 -0.146248 0.265034 0.000000 
-0.000000 0.183651 0.000000 0.111035 0.143278 0.000000 0.196308 0.047692 0.000000 0.256071 -0.094074 0.000000 0.263678 -0.250437 0.000000 0.251014 -0.395355 0.000000 0.194808 -0.525209 0.000000 0.133602 -0.590133 0.000000 0.057089 -0.622830 0.000000 -0.022648 -0.544775 0.000000 -0.060693 -0.438859 0.000000 -0.135386 -0.211694 0.000000 -0.083052 0.031149 0.000000 -0.189528 0.336095 0.000000 -0.220147 0.834932 0.000000 -0.164888 1.356657 0.000000 0.000000 1.663473 0.000000 0.164888 1.356657 0.000000 0.220147 0.834932 0.000000 0.189528 0.336095 0.000000 0.083052 0.031149 0.000000 0.135386 -0.211694 0.000000 0.060693 -0.438859 0.000000 0.022648 -0.544775 0.000000 -0.057089 -0.622830 0.000000 -0.133602 -0.590133 0.000000 -0.194808 -0.525209 0.000000 -0.251014 -0.395355 0.000000 -0.263678 -0.250437 0.000000 -0.256071 -0.094074 0.000000 -0.196308 0.047692 0.000000 -0.111035 0.143278 0.000000 
-0.000000 0.097560 0.000000 0.072885 0.068726 0.000000 0.123809 -0.001188 0.000000 0.148119 -0.105638 0.000000 0.127258 -0.224258 0.000000 0.077286 -0.335704 0.000000 -0.010393 -0.437424 0.000000 -0.118363 -0.487512 0.000000 -0.233758 -0.511319 0.000000 -0.359726 -0.447056 0.000000 -0.440624 -0.358850 0.000000 -0.533867 -0.175493 0.000000 -0.526948 0.035796 0.000000 -0.556752 0.314630 0.000000 -0.479545 0.742493 0.000000 -0.313254 1.168046 0.000000 0.000000 1.411941 0.000000 0.313254 1.168046 0.000000 0.479545 0.742493 0.000000 0.556752 0.314630 0.000000 0.526948 0.035796 0.000000 0.533867 -0.175493 0.000000 0.440624 -0.358850 0.000000 0.359726 -0.447056 0.000000 0.233758 -0.511319 0.000000 0.118363 -0.487512 0.000000 0.010393 -0.437424 0.000000 -0.077286 -0.335704 0.000000 -0.127258 -0.224258 0.000000 -0.148119 -0.105638 0.000000 -0.123809 -0.001188 0.000000 -0.072885 0.068726 0.000000 
-0.000000 0.037881 0.000000 0.042306 0.019468 0.000000 0.064881 -0.027542 0.000000 0.060673 -0.097523 0.000000 0.013907 -0.179604 0.000000 -0.067218 -0.257703 0.000000 -0.185576 -0.329560 0.000000 -0.331457 -0.366767 0.000000 -0.481078 -0.381467 0.000000 -0.643002 -0.337909 0.000000 -0.751101 -0.264719 0.000000 -0.862366 -0.125370 0.000000 -0.860459 0.054035 0.000000 -0.856578 0.288692 0.000000 -0.702466 0.591434 0.000000 -0.432684 0.877113 0.000000 0.000000 1.036965 0.000000 0.432684 0.877113 0.000000 0.702466 0.591434 0.000000 0.856578 0.288692 0.000000 0.860459 0.054035 0.000000 0.862366 -0.125370 0.000000 0.751101 -0.264719 0.000000 0.643002 -0.337909 0.000000 0.481078 -0.381467 0.000000 0.331457 -0.366767 0.000000 0.185576 -0.329560 0.000000 0.067218 -0.257703 0.000000 -0.013907 -0.179604 0.000000 -0.060673 -0.097523 0.000000 -0.064881 -0.027542 0.000000 -0.042306 0.019468 0.000000 
-0.000000 0.012948 0.000000 0.018940 0.003845 0.000000 0.019468 -0.019555 0.000000 -0.008602 -0.054664 0.000000 -0.078055 -0.096368 0.000000 -0.188206 -0.136221 0.000000 -0.335758 -0.173185 0.000000 -0.517766 -0.192010 0.000000 -0.702525 -0.199773 0.000000 -0.899233 -0.177033 0.000000 -1.040434 -0.139487 0.000000 -1.163951 -0.066135 0.000000 -1.165804 0.030008 0.000000 -1.109917 0.156638 0.000000 -0.877113 0.318599 0.000000 -0.518483 0.465579 0.000000 0.000000 0.546573 0.000000 0.518483 0.465579 0.000000 0.877113 0.318599 0.000000 1.109917 0.156638 0.000000 1.165804 0.030008 0.000000 1.163951 -0.066135 0.000000 1.040434 -0.139487 0.000000 0.899233 -0.177033 0.000000 0.702525 -0.199773 0.000000 0.517766 -0.192010 0.000000 0.335758 -0.173185 0.000000 0.188206 -0.136221 0.000000 0.078055 -0.096368 0.000000 0.008602 -0.054664 0.000000 -0.019468 -0.019555 0.000000 -0.018940 0.003845 0.000000 
