# vtk DataFile Version 2.0
Comment goes here
ASCII

DATASET STRUCTURED_POINTS
FIELD FieldData 1
TIME 1 1 double
0.94000000
DIMENSIONS    32   32   1

ORIGIN    0.000   0.000   0.000
SPACING   0.03125 0.03125   1.000

POINT_DATA   1024
VECTORS u double

0.000000 -0.000000 0.000000 -0.014047 -0.000000 0.000000 -0.043664 -0.000000 0.000000 -0.098515 -0.000000 0.000000 -0.191388 -0.000000 0.000000 -0.323439 -0.000000 0.000000 -0.497585 -0.000000 0.000000 -0.704616 -0.000000 0.000000 -0.927259 -0.000000 0.000000 -1.145994 0.000000 0.000000 -1.326707 -0.000000 0.000000 -1.450545 0.000000 0.000000 -1.474265 0.000000 0.000000 -1.375784 0.000000 0.000000 -1.103093 0.000000 0.000000 -0.633000 0.000000 0.000000 0.000000 0.000000 0.000000 0.633000 0.000000 0.000000 1.103093 0.000000 0.000000 1.375784 -0.000000 0.000000 1.474265 -0.000000 0.000000 1.450545 -0.000000 0.000000 1.326707 -0.000000 0.000000 1.145994 -0.000000 0.000000 0.927259 -0.000000 0.000000 0.704616 -0.000000 0.000000 0.497585 -0.000000 0.000000 0.323439 -0.000000 0.000000 0.191388 -0.000000 0.000000 0.098515 -0.000000 0.000000 0.043664 -0.000000 0.000000 0.014047 -0.000000 0.000000 
-0.000000 0.014047 0.000000 -0.006968 0.021832 0.000000 -0.029609 0.042234 0.000000 -0.076808 0.073862 0.000000 -0.161048 0.112462 0.000000 -0.281984 0.153098 0.000000 -0.442888 0.190589 0.000000 -0.634755 0.214837 0.000000 -0.842057 0.220689 0.000000 -1.048148 0.199724 0.000000 -1.219663 0.152275 0.000000 -1.342683 0.073779 0.000000 -1.369985 -0.037380 0.000000 -1.285634 -0.185586 0.000000 -1.035603 -0.371392 0.000000 -0.585260 -0.551546 0.000000 0.000000 -0.633000 0.000000 0.585260 -0.551546 0.000000 1.035603 -0.371392 0.000000 1.285634 -0.185586 0.000000 1.369985 -0.037380 0.000000 1.342683 0.073779 0.000000 1.219663 0.152275 0.000000 1.048148 0.199724 0.000000 0.842057 0.220689 0.000000 0.634755 0.214837 0.000000 0.442888 0.190589 0.000000 0.281984 0.153098 0.000000 0.161048 0.112462 0.000000 0.076808 0.073862 0.000000 0.029609 0.042234 0.000000 0.006968 0.021832 0.000000 
0.000000 0.013936 0.000000 0.012019 0.029609 0.000000 0.007385 0.069840 0.000000 -0.021348 0.131440 0.000000 -0.086041 0.205176 0.000000 -0.182188 0.281839 0.000000 -0.313259 0.352770 0.000000 -0.468498 0.399169 0.000000 -0.635491 0.413393 0.000000 -0.798498 0.377606 0.000000 -0.928553 0.294535 0.000000 -1.014561 0.150323 0.000000 -1.016923 -0.057049 0.000000 -0.933779 -0.334383 0.000000 -0.731122 -0.700375 0.000000 -0.402123 -1.035603 0.000000 0.000000 -1.170519 0.000000 0.402123 -1.035603 0.000000 0.731122 -0.700375 0.000000 0.933779 -0.334383 0.000000 1.016923 -0.057049 0.000000 1.014561 0.150323 0.000000 0.928553 0.294535 0.000000 0.798498 0.377606 0.000000 0.635491 0.413393 0.000000 0.468498 0.399169 0.000000 0.313259 0.352770 0.000000 0.182188 0.281839 0.000000 0.086041 0.205176 0.000000 0.021348 0.131440 0.000000 -0.007385 0.069840 0.000000 -0.012019 0.029609 0.000000 
-0.000000 -0.009990 0.000000 0.041624 0.014447 0.000000 0.064417 0.075600 0.000000 0.062958 0.167288 0.000000 0.025341 0.273302 0.000000 -0.036854 0.380316 0.000000 -0.128060 0.476899 0.000000 -0.233991 0.537069 0.000000 -0.348009 0.550689 0.000000 -0.458430 0.492786 0.000000 -0.543360 0.368338 0.000000 -0.607105 0.162150 0.000000 -0.600483 -0.118162 0.000000 -0.560979 -0.471388 0.000000 -0.441153 -0.903048 0.000000 -0.218632 -1.282668 0.000000 0.000000 -1.437246 0.000000 0.218632 -1.282668 0.000000 0.441153 -0.903048 0.000000 0.560979 -0.471388 0.000000 0.600483 -0.118162 0.000000 0.607105 0.162150 0.000000 0.543360 0.368338 0.000000 0.458430 0.492786 0.000000 0.348009 0.550689 0.000000 0.233991 0.537069 0.000000 0.128060 0.476899 0.000000 0.036854 0.380316 0.000000 -0.025341 0.273302 0.000000 -0.062958 0.167288 0.000000 -0.064417 0.075600 0.000000 -0.041624 0.014447 0.000000 
0.000000 -0.069311 0.000000 0.078617 -0.034808 0.000000 0.134281 0.048505 0.000000 0.162747 0.170516 0.000000 0.150353 0.304989 0.000000 0.116758 0.435240 0.000000 0.056211 0.549907 0.000000 -0.012129 0.619119 0.000000 -0.086040 0.637833 0.000000 -0.156380 0.572957 0.000000 -0.204150 0.443210 0.000000 -0.235638 0.207446 0.000000 -0.184267 -0.103175 0.000000 -0.084698 -0.493713 0.000000 0.018753 -1.042722 0.000000 0.036605 -1.476755 0.000000 0.000000 -1.607783 0.000000 -0.036605 -1.476755 0.000000 -0.018753 -1.042722 0.000000 0.084698 -0.493713 0.000000 0.184267 -0.103175 0.000000 0.235638 0.207446 0.000000 0.204150 0.443210 0.000000 0.156380 0.572957 0.000000 0.086040 0.637833 0.000000 0.012129 0.619119 0.000000 -0.056211 0.549907 0.000000 -0.116758 0.435240 0.000000 -0.150353 0.304989 0.000000 -0.162747 0.170516 0.000000 -0.134281 0.048505 0.000000 -0.078617 -0.034808 0.000000 
-0.000000 -0.167224 0.000000 0.117700 -0.119834 0.000000 0.207222 -0.008530 0.000000 0.265584 0.151215 0.000000 0.274937 0.319291 0.000000 0.265664 0.474459 0.000000 0.228473 0.605786 0.000000 0.193268 0.679320 0.000000 0.153945 0.694940 0.000000 0.121647 0.610896 0.000000 0.092122 0.447596 0.000000 0.052417 0.142267 0.000000 0.134867 -0.269102 0.000000 0.179976 -0.674408 0.000000 0.206101 -1.024352 0.000000 0.182006 -1.263915 0.000000 0.000000 -1.364036 0.000000 -0.182006 -1.263915 0.000000 -0.206101 -1.024352 0.000000 -0.179976 -0.674408 0.000000 -0.134867 -0.269102 0.000000 -0.052417 0.142267 0.000000 -0.092122 0.447596 0.000000 -0.121647 0.610896 0.000000 -0.153945 0.694940 0.000000 -0.193268 0.679320 0.000000 -0.228473 0.605786 0.000000 -0.265664 0.474459 0.000000 -0.274937 0.319291 0.000000 -0.265584 0.151215 0.000000 -0.207222 -0.008530 0.000000 -0.117700 -0.119834 0.000000 
0.000000 -0.304711 0.000000 0.156442 -0.242030 0.000000 0.278972 -0.099379 0.000000 0.365637 0.102800 0.000000 0.391238 0.304908 0.000000 0.396061 0.481704 0.000000 0.362829 0.622303 0.000000 0.329917 0.693647 0.000000 0.285943 0.709454 0.000000 0.236670 0.634780 0.000000 0.179736 0.512441 0.000000 0.151316 0.164701 0.000000 0.468021 -0.230735 0.000000 0.994580 -0.564948 0.000000 1.229247 -1.044752 0.000000 0.719179 -1.270654 0.000000 0.000000 -1.243771 0.000000 -0.719179 -1.270654 0.000000 -1.229247 -1.044752 0.000000 -0.994580 -0.564948 0.000000 -0.468021 -0.230735 0.000000 -0.151316 0.164701 0.000000 -0.179736 0.512441 0.000000 -0.236670 0.634780 0.000000 -0.285943 0.709454 0.000000 -0.329917 0.693647 0.000000 -0.362829 0.622303 0.000000 -0.396061 0.481704 0.000000 -0.391238 0.304908 0.000000 -0.365637 0.102800 0.000000 -0.278972 -0.099379 0.000000 -0.156442 -0.242030 0.000000 
0.000000 -0.480107 0.000000 0.183904 -0.398806 0.000000 0.329079 -0.217725 0.000000 0.435630 0.038950 0.000000 0.469790 0.288867 0.000000 0.483904 0.502868 0.000000 0.450100 0.671930 0.000000 0.426333 0.756206 0.000000 0.403684 0.788187 0.000000 0.409197 0.717102 0.000000 0.377573 0.532951 0.000000 0.805829 -0.146018 0.000000 1.505828 -1.112366 0.000000 1.700785 -1.435634 0.000000 1.094795 -0.748951 0.000000 0.333005 -0.034668 0.000000 -0.000000 0.074322 0.000000 -0.333005 -0.034668 0.000000 -1.094795 -0.748951 0.000000 -1.700785 -1.435634 0.000000 -1.505828 -1.112366 0.000000 -0.805829 -0.146018 0.000000 -0.377573 0.532951 0.000000 -0.409197 0.717102 0.000000 -0.403684 0.788187 0.000000 -0.426333 0.756206 0.000000 -0.450100 0.671930 0.000000 -0.483904 0.502868 0.000000 -0.469790 0.288867 0.000000 -0.435630 0.038950 0.000000 -0.329079 -0.217725 0.000000 -0.183904 -0.398806 0.000000 
0.000000 -0.672520 0.000000 0.201694 -0.571108 0.000000 0.362045 -0.351104 0.000000 0.486014 -0.037911 0.000000 0.529150 0.256635 0.000000 0.558634 0.501394 0.000000 0.520360 0.679873 0.000000 0.488685 0.740063 0.000000 0.432072 0.726591 0.000000 0.367348 0.660891 0.000000 0.442206 0.115808 0.000000 1.035706 -0.963554 0.000000 0.797275 -1.125691 0.000000 -0.399901 -0.153914 0.000000 -1.219205 0.323028 0.000000 -0.779782 -0.175860 0.000000 -0.000000 -0.577760 0.000000 0.779782 -0.175860 0.000000 1.219205 0.323028 0.000000 0.399901 -0.153914 0.000000 -0.797275 -1.125691 0.000000 -1.035706 -0.963554 0.000000 -0.442206 0.115808 0.000000 -0.367348 0.660891 0.000000 -0.432072 0.726591 0.000000 -0.488685 0.740063 0.000000 -0.520360 0.679873 0.000000 -0.558634 0.501394 0.000000 -0.529150 0.256635 0.000000 -0.486014 -0.037911 0.000000 -0.362045 -0.351104 0.000000 -0.201694 -0.571108 0.000000 
0.000000 -0.883495 0.000000 0.194523 -0.760851 0.000000 0.348365 -0.502045 0.000000 0.470905 -0.128155 0.000000 0.507305 0.216247 0.000000 0.534545 0.511658 0.000000 0.464715 0.741879 0.000000 0.384376 0.844494 0.000000 0.378355 0.909524 0.000000 0.174817 0.706968 0.000000 0.217159 -0.135408 0.000000 0.209314 -0.501087 0.000000 -0.512099 0.323242 0.000000 -0.723746 0.580846 0.000000 -0.132708 -0.369070 0.000000 0.233671 -1.253873 0.000000 0.000000 -1.485243 0.000000 -0.233671 -1.253873 0.000000 0.132708 -0.369070 0.000000 0.723746 0.580846 0.000000 0.512099 0.323242 0.000000 -0.209314 -0.501087 0.000000 -0.217159 -0.135408 0.000000 -0.174817 0.706968 0.000000 -0.378355 0.909524 0.000000 -0.384376 0.844494 0.000000 -0.464715 0.741879 0.000000 -0.534545 0.511658 0.000000 -0.507305 0.216247 0.000000 -0.470905 -0.128155 0.000000 -0.348365 -0.502045 0.000000 -0.194523 -0.760851 0.000000 
0.000000 -1.061567 0.000000 0.166591 -0.919474 0.000000 0.301729 -0.627486 0.000000 0.424295 -0.196850 0.000000 0.470594 0.192995 0.000000 0.544482 0.543983 0.000000 0.496209 0.830042 0.000000 0.537139 0.826423 0.000000 0.627756 0.936150 0.000000 -0.018059 0.822087 0.000000 0.369536 0.081311 0.000000 0.203803 -0.234296 0.000000 0.247548 -0.192631 0.000000 0.893564 -0.533306 0.000000 1.140963 -0.634389 0.000000 0.768228 -0.308568 0.000000 -0.000000 -0.110417 0.000000 -0.768228 -0.308568 0.000000 -1.140963 -0.634389 0.000000 -0.893564 -0.533306 0.000000 -0.247548 -0.192631 0.000000 -0.203803 -0.234296 0.000000 -0.369536 0.081311 0.000000 0.018059 0.822087 0.000000 -0.627756 0.936150 0.000000 -0.537139 0.826423 0.000000 -0.496209 0.830042 0.000000 -0.544482 0.543983 0.000000 -0.470594 0.192995 0.000000 -0.424295 -0.196850 0.000000 -0.301729 -0.627486 0.000000 -0.166591 -0.919474 0.000000 
0.000000 -1.216678 0.000000 0.101827 -1.062581 0.000000 0.190321 -0.759749 0.000000 0.294166 -0.297020 0.000000 0.336177 0.096061 0.000000 0.449099 0.486043 0.000000 0.313201 0.749222 0.000000 0.474944 0.712947 0.000000 -0.099556 1.464721 0.000000 -0.399577 0.965188 0.000000 0.593943 -0.357270 0.000000 0.247127 -0.379098 0.000000 0.308156 -0.366519 0.000000 0.382450 -0.312568 0.000000 0.191264 -0.243733 0.000000 0.052558 -0.112911 0.000000 0.000000 0.051213 0.000000 -0.052558 -0.112911 0.000000 -0.191264 -0.243733 0.000000 -0.382450 -0.312568 0.000000 -0.308156 -0.366519 0.000000 -0.247127 -0.379098 0.000000 -0.593943 -0.357270 0.000000 0.399577 0.965188 0.000000 0.099556 1.464721 0.000000 -0.474944 0.712947 0.000000 -0.313201 0.749222 0.000000 -0.449099 0.486043 0.000000 -0.336177 0.096061 0.000000 -0.294166 -0.297020 0.000000 -0.190321 -0.759749 0.000000 -0.101827 -1.062581 0.000000 
0.000000 -1.265220 0.000000 -0.002081 -1.109795 0.000000 0.013984 -0.819826 0.000000 0.075935 -0.342706 0.000000 0.126686 0.038063 0.000000 0.260280 0.566959 0.000000 0.106367 0.804197 0.000000 0.365805 1.239180 0.000000 -0.905936 1.810671 0.000000 0.244559 0.128588 0.000000 0.763497 -0.565393 0.000000 0.019599 0.051491 0.000000 0.077411 -0.327953 0.000000 -0.057138 -0.416414 0.000000 0.001976 -0.304497 0.000000 -0.057404 -0.117303 0.000000 0.000000 -0.005302 0.000000 0.057404 -0.117303 0.000000 -0.001976 -0.304497 0.000000 0.057138 -0.416414 0.000000 -0.077411 -0.327953 0.000000 -0.019599 0.051491 0.000000 -0.763497 -0.565393 0.000000 -0.244559 0.128588 0.000000 0.905936 1.810671 0.000000 -0.365805 1.239180 0.000000 -0.106367 0.804197 0.000000 -0.260280 0.566959 0.000000 -0.126686 0.038063 0.000000 -0.075935 -0.342706 0.000000 -0.013984 -0.819826 0.000000 0.002081 -1.109795 0.000000 
-0.000000 -1.212515 0.000000 -0.142317 -1.076565 0.000000 -0.224613 -0.837765 0.000000 -0.232978 -0.409722 0.000000 -0.138359 -0.088285 0.000000 -0.005668 0.506362 0.000000 0.121665 0.643697 0.000000 0.090535 1.725250 0.000000 -0.501030 1.585967 0.000000 0.835012 -0.704245 0.000000 0.481660 -0.132310 0.000000 0.156110 0.306988 0.000000 0.261431 -0.289783 0.000000 0.045124 -0.237134 0.000000 0.010405 -0.243467 0.000000 -0.044624 -0.110934 0.000000 0.000000 -0.063595 0.000000 0.044624 -0.110934 0.000000 -0.010405 -0.243467 0.000000 -0.045124 -0.237134 0.000000 -0.261431 -0.289783 0.000000 -0.156110 0.306988 0.000000 -0.481660 -0.132310 0.000000 -0.835012 -0.704245 0.000000 0.501030 1.585967 0.000000 -0.090535 1.725250 0.000000 -0.121665 0.643697 0.000000 0.005668 0.506362 0.000000 0.138359 -0.088285 0.000000 0.232978 -0.409722 0.000000 0.224613 -0.837765 0.000000 0.142317 -1.076565 0.000000 
-0.000000 -0.980585 0.000000 -0.319153 -0.885182 0.000000 -0.544481 -0.729165 0.000000 -0.695431 -0.428960 0.000000 -0.636309 -0.189247 0.000000 -0.636994 0.306936 0.000000 -0.309920 0.707993 0.000000 -0.681488 1.861875 0.000000 0.274659 1.066194 0.000000 0.626506 -0.854102 0.000000 0.035980 0.113508 0.000000 0.258851 0.271720 0.000000 0.173541 -0.216967 0.000000 0.108182 -0.165388 0.000000 0.039711 -0.214749 0.000000 -0.002555 -0.106899 0.000000 0.000000 -0.094550 0.000000 0.002555 -0.106899 0.000000 -0.039711 -0.214749 0.000000 -0.108182 -0.165388 0.000000 -0.173541 -0.216967 0.000000 -0.258851 0.271720 0.000000 -0.035980 0.113508 0.000000 -0.626506 -0.854102 0.000000 -0.274659 1.066194 0.000000 0.681488 1.861875 0.000000 0.309920 0.707993 0.000000 0.636994 0.306936 0.000000 0.636309 -0.189247 0.000000 0.695431 -0.428960 0.000000 0.544481 -0.729165 0.000000 0.319153 -0.885182 0.000000 
-0.000000 -0.574210 0.000000 -0.490293 -0.532084 0.000000 -0.885182 -0.461487 0.000000 -1.219457 -0.317894 0.000000 -1.314142 -0.146722 0.000000 -1.408704 0.179974 0.000000 -1.007207 0.688192 0.000000 -0.700711 1.140671 0.000000 0.854668 0.277973 0.000000 0.365483 -0.465566 0.000000 0.000566 0.235345 0.000000 0.478991 0.169427 0.000000 0.272287 -0.139113 0.000000 0.262024 -0.103304 0.000000 0.106899 -0.132730 0.000000 0.047275 -0.071223 0.000000 -0.000000 -0.068706 0.000000 -0.047275 -0.071223 0.000000 -0.106899 -0.132730 0.000000 -0.262024 -0.103304 0.000000 -0.272287 -0.139113 0.000000 -0.478991 0.169427 0.000000 -0.000566 0.235345 0.000000 -0.365483 -0.465566 0.000000 -0.854668 0.277973 0.000000 0.700711 1.140671 0.000000 1.007207 0.688192 0.000000 1.408704 0.179974 0.000000 1.314142 -0.146722 0.000000 1.219457 -0.317894 0.000000 0.885182 -0.461487 0.000000 0.490293 -0.532084 0.000000 
-0.000000 -0.000000 0.000000 -0.574210 -0.000000 0.000000 -1.064168 -0.000000 0.000000 -1.497183 -0.000000 0.000000 -1.699956 -0.000000 0.000000 -1.790628 -0.000000 0.000000 -1.340009 0.000000 0.000000 -0.414244 0.000000 0.000000 0.941332 0.000000 0.000000 0.141702 -0.000000 0.000000 0.010201 0.000000 0.000000 0.612392 0.000000 0.000000 0.349055 0.000000 0.000000 0.334165 0.000000 0.000000 0.142446 0.000000 0.000000 0.068706 -0.000000 0.000000 -0.000000 -0.000000 0.000000 -0.068706 -0.000000 0.000000 -0.142446 -0.000000 0.000000 -0.334165 -0.000000 0.000000 -0.349055 -0.000000 0.000000 -0.612392 -0.000000 0.000000 -0.010201 0.000000 0.000000 -0.141702 0.000000 0.000000 -0.941332 -0.000000 0.000000 0.414244 -0.000000 0.000000 1.340009 -0.000000 0.000000 1.790628 0.000000 0.000000 1.699956 0.000000 0.000000 1.497183 0.000000 0.000000 1.064168 0.000000 0.000000 0.574210 -0.000000 0.000000 
0.000000 0.574210 0.000000 -0.490293 0.532084 0.000000 -0.885182 0.461487 0.000000 -1.219457 0.317894 0.000000 -1.314142 0.146722 0.000000 -1.408704 -0.179974 0.000000 -1.007207 -0.688192 0.000000 -0.700711 -1.140671 0.000000 0.854668 -0.277973 0.000000 0.365483 0.465566 0.000000 0.000566 -0.235345 0.000000 0.478991 -0.169427 0.000000 0.272287 0.139113 0.000000 0.262024 0.103304 0.000000 0.106899 0.132730 0.000000 0.047275 0.071223 0.000000 -0.000000 0.068706 0.000000 -0.047275 0.071223 0.000000 -0.106899 0.132730 0.000000 -0.262024 0.103304 0.000000 -0.272287 0.139113 0.000000 -0.478991 -0.169427 0.000000 -0.000566 -0.235345 0.000000 -0.365483 0.465566 0.000000 -0.854668 -0.277973 0.000000 0.700711 -1.140671 0.000000 1.007207 -0.688192 0.000000 1.408704 -0.179974 0.000000 1.314142 0.146722 0.000000 1.219457 0.317894 0.000000 0.885182 0.461487 0.000000 0.490293 0.532084 0.000000 
0.000000 0.980585 0.000000 -0.319153 0.885182 0.000000 -0.544481 0.729165 0.000000 -0.695431 0.428960 0.000000 -0.636309 0.189247 0.000000 -0.636994 -0.306936 0.000000 -0.309920 -0.707993 0.000000 -0.681488 -1.861875 0.000000 0.274659 -1.066194 0.000000 0.626506 0.854102 0.000000 0.035980 -0.113508 0.000000 0.258851 -0.271720 0.000000 0.173541 0.216967 0.000000 0.108182 0.165388 0.000000 0.039711 0.214749 0.000000 -0.002555 0.106899 0.000000 -0.000000 0.094550 0.000000 0.002555 0.106899 0.000000 -0.039711 0.214749 0.000000 -0.108182 0.165388 0.000000 -0.173541 0.216967 0.000000 -0.258851 -0.271720 0.000000 -0.035980 -0.113508 0.000000 -0.626506 0.854102 0.000000 -0.274659 -1.066194 0.000000 0.681488 -1.861875 0.000000 0.309920 -0.707993 0.000000 0.636994 -0.306936 0.000000 0.636309 0.189247 0.000000 0.695431 0.428960 0.000000 0.544481 0.729165 0.000000 0.319153 0.885182 0.000000 
0.000000 1.212515 0.000000 -0.142317 1.076565 0.000000 -0.224613 0.837765 0.000000 -0.232978 0.409722 0.000000 -0.138359 0.088285 0.000000 -0.005668 -0.506362 0.000000 0.121665 -0.643697 0.000000 0.090535 -1.725250 0.000000 -0.501030 -1.585967 0.000000 0.835012 0.704245 0.000000 0.481660 0.132310 0.000000 0.156110 -0.306988 0.000000 0.261431 0.289783 0.000000 0.045124 0.237134 0.000000 0.010405 0.243467 0.000000 -0.044624 0.110934 0.000000 -0.000000 0.063595 0.000000 0.044624 0.110934 0.000000 -0.010405 0.243467 0.000000 -0.045124 0.237134 0.000000 -0.261431 0.289783 0.000000 -0.156110 -0.306988 0.000000 -0.481660 0.132310 0.000000 -0.835012 0.704245 0.000000 0.501030 -1.585967 0.000000 -0.090535 -1.725250 0.000000 -0.121665 -0.643697 0.000000 0.005668 -0.506362 0.000000 0.138359 0.088285 0.000000 0.232978 0.409722 0.000000 0.224613 0.837765 0.000000 0.142317 1.076565 0.000000 
-0.000000 1.265220 0.000000 -0.002081 1.109795 0.000000 0.013984 0.819826 0.000000 0.075935 0.342706 0.000000 0.126686 -0.038063 0.000000 0.260280 -0.566959 0.000000 0.106367 -0.804197 0.000000 0.365805 -1.239180 0.000000 -0.905936 -1.810671 0.000000 0.244559 -0.128588 0.000000 0.763497 0.565393 0.000000 0.019599 -0.051491 0.000000 0.077411 0.327953 0.000000 -0.057138 0.416414 0.000000 0.001976 0.304497 0.000000 -0.057404 0.117303 0.000000 -0.000000 0.005302 0.000000 0.057404 0.117303 0.000000 -0.001976 0.304497 0.000000 0.057138 0.416414 0.000000 -0.077411 0.327953 0.000000 -0.019599 -0.051491 0.000000 -0.763497 0.565393 0.000000 -0.244559 -0.128588 0.000000 0.905936 -1.810671 0.000000 -0.365805 -1.239180 0.000000 -0.106367 -0.804197 0.000000 -0.260280 -0.566959 0.000000 -0.126686 -0.038063 0.000000 -0.075935 0.342706 0.000000 -0.013984 0.819826 0.000000 0.002081 1.109795 0.000000 
-0.000000 1.216678 0.000000 0.101827 1.062581 0.000000 0.190321 0.759749 0.000000 0.294166 0.297020 0.000000 0.336177 -0.096061 0.000000 0.449099 -0.486043 0.000000 0.313201 -0.749222 0.000000 0.474944 -0.712947 0.000000 -0.099556 -1.464721 0.000000 -0.399577 -0.965188 0.000000 0.593943 0.357270 0.000000 0.247127 0.379098 0.000000 0.308156 0.366519 0.000000 0.382450 0.312568 0.000000 0.191264 0.243733 0.000000 0.052558 0.112911 0.000000 -0.000000 -0.051213 0.000000 -0.052558 0.112911 0.000000 -0.191264 0.243733 0.000000 -0.382450 0.312568 0.000000 -0.308156 0.366519 0.000000 -0.247127 0.379098 0.000000 -0.593943 0.357270 0.000000 0.399577 -0.965188 0.000000 0.099556 -1.464721 0.000000 -0.474944 -0.712947 0.000000 -0.313201 -0.749222 0.000000 -0.449099 -0.486043 0.000000 -0.336177 -0.096061 0.000000 -0.294166 0.297020 0.000000 -0.190321 0.759749 0.000000 -0.101827 1.062581 0.000000 
-0.000000 1.061567 0.000000 0.166591 0.919474 0.000000 0.301729 0.627486 0.000000 0.424295 0.196850 0.000000 0.470594 -0.192995 0.000000 0.544482 -0.543983 0.000000 0.496209 -0.830042 0.000000 0.537139 -0.826423 0.000000 0.627756 -0.936150 0.000000 -0.018059 -0.822087 0.000000 0.369536 -0.081311 0.000000 0.203803 0.234296 0.000000 0.247548 0.192631 0.000000 0.893564 0.533306 0.000000 1.140963 0.634389 0.000000 0.768228 0.308568 0.000000 -0.000000 0.110417 0.000000 -0.768228 0.308568 0.000000 -1.140963 0.634389 0.000000 -0.893564 0.533306 0.000000 -0.247548 0.192631 0.000000 -0.203803 0.234296 0.000000 -0.369536 -0.081311 0.000000 0.018059 -0.822087 0.000000 -0.627756 -0.936150 0.000000 -0.537139 -0.826423 0.000000 -0.496209 -0.830042 0.000000 -0.544482 -0.543983 0.000000 -0.470594 -0.192995 0.000000 -0.424295 0.196850 0.000000 -0.301729 0.627486 0.000000 -0.166591 0.919474 0.000000 
-0.000000 0.883495 0.000000 0.194523 0.760851 0.000000 0.348365 0.502045 0.000000 0.470905 0.128155 0.000000 0.507305 -0.216247 0.000000 0.534545 -0.511658 0.000000 0.464715 -0.741879 0.000000 0.384376 -0.844494 0.000000 0.378355 -0.909524 0.000000 0.174817 -0.706968 0.000000 0.217159 0.135408 0.000000 0.209314 0.501087 0.000000 -0.512099 -0.323242 0.000000 -0.723746 -0.580846 0.000000 -0.132708 0.369070 0.000000 0.233671 1.253873 0.000000 -0.000000 1.485243 0.000000 -0.233671 1.253873 0.000000 0.132708 0.369070 0.000000 0.723746 -0.580846 0.000000 0.512099 -0.323242 0.000000 -0.209314 0.501087 0.000000 -0.217159 0.135408 0.000000 -0.174817 -0.706968 0.000000 -0.378355 -0.909524 0.000000 -0.384376 -0.844494 0.000000 -0.464715 -0.741879 0.000000 -0.534545 -0.511658 0.000000 -0.507305 -0.216247 0.000000 -0.470905 0.128155 0.000000 -0.348365 0.502045 0.000000 -0.194523 0.760851 0.000000 
-0.000000 0.672520 0.000000 0.201694 0.571108 0.000000 0.362045 0.351104 0.000000 0.486014 0.037911 0.000000 0.529150 -0.256635 0.000000 0.558634 -0.501394 0.000000 0.520360 -0.679873 0.000000 0.488685 -0.740063 0.000000 0.432072 -0.726591 0.000000 0.367348 -0.660891 0.000000 0.442206 -0.115808 0.000000 1.035706 0.963554 0.000000 0.797275 1.125691 0.000000 -0.399901 0.153914 0.000000 -1.219205 -0.323028 0.000000 -0.779782 0.175860 0.000000 0.000000 0.577760 0.000000 0.779782 0.175860 0.000000 1.219205 -0.323028 0.000000 0.399901 0.153914 0.000000 -0.797275 1.125691 0.000000 -1.035706 0.963554 0.000000 -0.442206 -0.115808 0.000000 -0.367348 -0.660891 0.000000 -0.432072 -0.726591 0.000000 -0.488685 -0.740063 0.000000 -0.520360 -0.679873 0.000000 -0.558634 -0.501394 0.000000 -0.529150 -0.256635 0.000000 -0.486014 0.037911 0.000000 -0.362045 0.351104 0.000000 -0.201694 0.571108 0.000000 
-0.000000 0.480107 0.000000 0.183904 0.398806 0.000000 0.329079 0.217725 0.000000 0.435630 -0.038950 0.000000 0.469790 -0.288867 0.000000 0.483904 -0.502868 0.000000 0.450100 -0.671930 0.000000 0.426333 -0.756206 0.000000 0.403684 -0.788187 0.000000 0.409197 -0.717102 0.000000 0.377573 -0.532951 0.000000 0.805829 0.146018 0.000000 1.505828 1.112366 0.000000 1.700785 1.435634 0.000000 1.094795 0.748951 0.000000 0.333005 0.034668 0.000000 0.000000 -0.074322 0.000000 -0.333005 0.034668 0.000000 -1.094795 0.748951 0.000000 -1.700785 1.435634 0.000000 -1.505828 1.112366 0.000000 -0.805829 0.146018 0.000000 -0.377573 -0.532951 0.000000 -0.409197 -0.717102 0.000000 -0.403684 -0.788187 0.000000 -0.426333 -0.756206 0.000000 -0.450100 -0.671930 0.000000 -0.483904 -0.502868 0.000000 -0.469790 -0.288867 0.000000 -0.435630 -0.038950 0.000000 -0.329079 0.217725 0.000000 -0.183904 0.398806 0.000000 
0.000000 0.304711 0.000000 0.156442 0.242030 0.000000 0.278972 0.099379 0.000000 0.365637 -0.102800 0.000000 0.391238 -0.304908 0.000000 0.396061 -0.481704 0.000000 0.362829 -0.622303 0.000000 0.329917 -0.693647 0.000000 0.285943 -0.709454 0.000000 0.236670 -0.634780 0.000000 0.179736 -0.512441 0.000000 0.151316 -0.164701 0.000000 0.468021 0.230735 0.000000 0.994580 0.564948 0.000000 1.229247 1.044752 0.000000 0.719179 1.270654 0.000000 -0.000000 1.243771 0.000000 -0.719179 1.270654 0.000000 -1.229247 1.044752 0.000000 -0.994580 0.564948 0.000000 -0.468021 0.230735 0.000000 -0.151316 -0.164701 0.000000 -0.179736 -0.512441 0.000000 -0.236670 -0.634780 0.000000 -0.285943 -0.709454 0.000000 -0.329917 -0.693647 0.000000 -0.362829 -0.622303 0.000000 -0.396061 -0.481704 0.000000 -0.391238 -0.304908 0.000000 -0.365637 -0.102800 0.000000 -0.278972 0.099379 0.000000 -0.156442 0.242030 0.000000 
-0.000000 0.167224 0.000000 0.117700 0.119834 0.000000 0.207222 0.008530 0.000000 0.265584 -0.151215 0.000000 0.274937 -0.319291 0.000000 0.265664 -0.474459 0.000000 0.228473 -0.605786 0.000000 0.193268 -0.679320 0.000000 0.153945 -0.694940 0.000000 0.121647 -0.610896 0.000000 0.092122 -0.447596 0.000000 0.052417 -0.142267 0.000000 0.134867 0.269102 0.000000 0.179976 0.674408 0.000000 0.206101 1.024352 0.000000 0.182006 1.263915 0.000000 -0.000000 1.364036 0.000000 -0.182006 1.263915 0.000000 -0.206101 1.024352 0.000000 -0.179976 0.674408 0.000000 -0.134867 0.269102 0.000000 -0.052417 -0.142267 0.000000 -0.092122 -0.447596 0.000000 -0.121647 -0.610896 0.000000 -0.153945 -0.694940 0.000000 -0.193268 -0.679320 0.000000 -0.228473 -0.605786 0.000000 -0.265664 -0.474459 0.000000 -0.274937 -0.319291 0.000000 -0.265584 -0.151215 0.000000 -0.207222 0.008530 0.000000 -0.117700 0.119834 0.000000 
0.000000 0.069311 0.000000 0.078617 0.034808 0.000000 0.134281 -0.048505 0.000000 0.162747 -0.170516 0.000000 0.150353 -0.304989 0.000000 0.116758 -0.435240 0.000000 0.056211 -0.549907 0.000000 -0.012129 -0.619119 0.000000 -0.086040 -0.637833 0.000000 -0.156380 -0.572957 0.000000 -0.204150 -0.443210 0.000000 -0.235638 -0.207446 0.000000 -0.184267 0.103175 0.000000 -0.084698 0.493713 0.000000 0.018753 1.042722 0.000000 0.036605 1.476755 0.000000 0.000000 1.607783 0.000000 -0.036605 1.476755 0.000000 -0.018753 1.042722 0.000000 0.084698 0.493713 0.000000 0.184267 0.103175 0.000000 0.235638 -0.207446 0.000000 0.204150 -0.443210 0.000000 0.156380 -0.572957 0.000000 0.086040 -0.637833 0.000000 0.012129 -0.619119 0.000000 -0.056211 -0.549907 0.000000 -0.116758 -0.435240 0.000000 -0.150353 -0.304989 0.000000 -0.162747 -0.170516 0.000000 -0.134281 -0.048505 0.000000 -0.078617 0.034808 0.000000 
-0.000000 0.009990 0.000000 0.041624 -0.014447 0.000000 0.064417 -0.075600 0.000000 0.062958 -0.167288 0.000000 0.025341 -0.273302 0.000000 -0.036854 -0.380316 0.000000 -0.128060 -0.476899 0.000000 -0.233991 -0.537069 0.000000 -0.348009 -0.550689 0.000000 -0.458430 -0.492786 0.000000 -0.543360 -0.368338 0.000000 -0.607105 -0.162150 0.000000 -0.600483 0.118162 0.000000 -0.560979 0.471388 0.000000 -0.441153 0.903048 0.000000 -0.218632 1.282668 0.000000 0.000000 1.437246 0.000000 0.218632 1.282668 0.000000 0.441153 0.903048 0.000000 0.560979 0.471388 0.000000 0.600483 0.118162 0.000000 0.607105 -0.162150 0.000000 0.543360 -0.368338 0.000000 0.458430 -0.492786 0.000000 0.348009 -0.550689 0.000000 0.233991 -0.537069 0.000000 0.128060 -0.476899 0.000000 0.036854 -0.380316 0.000000 -0.025341 -0.273302 0.000000 -0.062958 -0.167288 0.000000 -0.064417 -0.075600 0.000000 -0.041624 -0.014447 0.000000 
0.000000 -0.013936 0.000000 0.012019 -0.029609 0.000000 0.007385 -0.069840 0.000000 -0.021348 -0.131440 0.000000 -0.086041 -0.205176 0.000000 -0.182188 -0.281839 0.000000 -0.313259 -0.352770 0.000000 -0.468498 -0.399169 0.000000 -0.635491 -0.413393 0.000000 -0.798498 -0.377606 0.000000 -0.928553 -0.294535 0.000000 -1.014561 -0.150323 0.000000 -1.016923 0.057049 0.000000 -0.933779 0.334383 0.000000 -0.731122 0.700375 0.000000 -0.402123 1.035603 0.000000 0.000000 1.170519 0.000000 0.402123 1.035603 0.000000 0.731122 0.700375 0.000000 0.933779 0.334383 0.000000 1.016923 0.057049 0.000000 1.014561 -0.150323 0.000000 0.928553 -0.294535 0.000000 0.798498 -0.377606 0.000000 0.635491 -0.413393 0.000000 0.468498 -0.399169 0.000000 0.313259 -0.352770 0.000000 0.182188 -0.281839 0.000000 0.086041 -0.205176 0.000000 0.021348 -0.131440 0.000000 -0.007385 -0.069840 0.000000 -0.012019 -0.029609 0.000000 
-0.000000 -0.014047 0.000000 -0.006968 -0.021832 0.000000 -0.029609 -0.042234 0.000000 -0.076808 -0.073862 0.000000 -0.161048 -0.112462 0.000000 -0.281984 -0.153098 0.000000 -0.442888 -0.190589 0.000000 -0.634755 -0.214837 0.000000 -0.842057 -0.220689 0.000000 -1.048148 -0.199724 0.000000 -1.219663 -0.152275 0.000000 -1.342683 -0.073779 0.000000 -1.369985 0.037380 0.000000 -1.285634 0.185586 0.000000 -1.035603 0.371392 0.000000 -0.585260 0.551546 0.000000 0.000000 0.633000 0.000000 0.585260 0.551546 0.000000 1.035603 0.371392 0.000000 1.285634 0.185586 0.000000 1.369985 0.037380 0.000000 1.342683 -0.073779 0.000000 1.219663 -0.152275 0.000000 1.048148 -0.199724 0.000000 0.842057 -0.220689 0.000000 0.634755 -0.214837 0.000000 0.442888 -0.190589 0.000000 0.281984 -0.153098 0.000000 0.161048 -0.112462 0.000000 0.076808 -0.073862 0.000000 0.029609 -0.042234 0.000000 0.006968 -0.021832 0.000000 
