# vtk DataFile Version 2.0
Comment goes here
ASCII

DATASET STRUCTURED_POINTS
FIELD FieldData 1
TIME 1 1 double
0.22000000
DIMENSIONS    32   32   1

ORIGIN    0.000   0.000   0.000
SPACING   0.03125 0.03125   1.000

POINT_DATA   1024
VECTORS u double

0.000000 -0.000000 0.000000 0.147785 -0.000000 0.000000 0.293234 -0.000000 0.000000 0.432074 -0.000000 0.000000 0.562863 -0.000000 0.000000 0.677190 -0.000000 0.000000 0.773285 -0.000000 0.000000 0.837437 -0.000000 0.000000 0.865657 -0.000000 0.000000 0.840081 -0.000000 0.000000 0.759649 -0.000000 0.000000 0.594686 -0.000000 0.000000 0.363864 0.000000 0.000000 0.041718 -0.000000 0.000000 -0.235949 -0.000000 0.000000 -0.436532 -0.000000 0.000000 -0.000000 -0.000000 0.000000 0.436532 0.000000 0.000000 0.235949 0.000000 0.000000 -0.041718 0.000000 0.000000 -0.363864 -0.000000 0.000000 -0.594686 0.000000 0.000000 -0.759649 0.000000 0.000000 -0.840081 0.000000 0.000000 -0.865657 0.000000 0.000000 -0.837437 0.000000 0.000000 -0.773285 0.000000 0.000000 -0.677190 0.000000 0.000000 -0.562863 0.000000 0.000000 -0.432074 0.000000 0.000000 -0.293234 -0.000000 0.000000 -0.147785 0.000000 0.000000 
0.000000 -0.147785 0.000000 0.149194 -0.146617 0.000000 0.296168 -0.142145 0.000000 0.436807 -0.134814 0.000000 0.570080 -0.122558 0.000000 0.686995 -0.105211 0.000000 0.787582 -0.080123 0.000000 0.855393 -0.046186 0.000000 0.890611 -0.001322 0.000000 0.870714 0.053004 0.000000 0.801300 0.122697 0.000000 0.645973 0.197892 0.000000 0.421755 0.276484 0.000000 0.108372 0.299906 0.000000 -0.201835 0.239125 0.000000 -0.458159 -0.117974 0.000000 -0.000000 -0.436532 0.000000 0.458159 -0.117974 0.000000 0.201835 0.239125 0.000000 -0.108372 0.299906 0.000000 -0.421755 0.276484 0.000000 -0.645973 0.197892 0.000000 -0.801300 0.122697 0.000000 -0.870714 0.053004 0.000000 -0.890611 -0.001322 0.000000 -0.855393 -0.046186 0.000000 -0.787582 -0.080123 0.000000 -0.686995 -0.105211 0.000000 -0.570080 -0.122558 0.000000 -0.436807 -0.134814 0.000000 -0.296168 -0.142145 0.000000 -0.149194 -0.146617 0.000000 
0.000000 -0.298388 0.000000 0.153507 -0.296168 0.000000 0.305128 -0.287613 0.000000 0.451838 -0.273912 0.000000 0.592418 -0.250188 0.000000 0.719355 -0.217502 0.000000 0.831401 -0.168398 0.000000 0.914171 -0.103029 0.000000 0.962325 -0.015321 0.000000 0.961743 0.089311 0.000000 0.906458 0.224740 0.000000 0.773519 0.379546 0.000000 0.527670 0.537601 0.000000 0.168225 0.623590 0.000000 -0.265698 0.566532 0.000000 -0.468675 -0.201835 0.000000 -0.000000 -0.916319 0.000000 0.468675 -0.201835 0.000000 0.265698 0.566532 0.000000 -0.168225 0.623590 0.000000 -0.527670 0.537601 0.000000 -0.773519 0.379546 0.000000 -0.906458 0.224740 0.000000 -0.961743 0.089311 0.000000 -0.962325 -0.015321 0.000000 -0.914171 -0.103029 0.000000 -0.831401 -0.168398 0.000000 -0.719355 -0.217502 0.000000 -0.592418 -0.250188 0.000000 -0.451838 -0.273912 0.000000 -0.305128 -0.287613 0.000000 -0.153507 -0.296168 0.000000 
0.000000 -0.454800 0.000000 0.160110 -0.451745 0.000000 0.318568 -0.440476 0.000000 0.474387 -0.422104 0.000000 0.625876 -0.390075 0.000000 0.767108 -0.344194 0.000000 0.897735 -0.274939 0.000000 0.999807 -0.177110 0.000000 1.073438 -0.048894 0.000000 1.098830 0.108871 0.000000 1.086157 0.310921 0.000000 1.005025 0.576680 0.000000 0.832505 0.881779 0.000000 0.573604 1.093275 0.000000 -0.038486 0.876024 0.000000 -0.100475 -0.383672 0.000000 -0.000000 -1.373881 0.000000 0.100475 -0.383672 0.000000 0.038486 0.876024 0.000000 -0.573604 1.093275 0.000000 -0.832505 0.881779 0.000000 -1.005025 0.576680 0.000000 -1.086157 0.310921 0.000000 -1.098830 0.108871 0.000000 -1.073438 -0.048894 0.000000 -0.999807 -0.177110 0.000000 -0.897735 -0.274939 0.000000 -0.767108 -0.344194 0.000000 -0.625876 -0.390075 0.000000 -0.474387 -0.422104 0.000000 -0.318568 -0.440476 0.000000 -0.160110 -0.451745 0.000000 
0.000000 -0.618607 0.000000 0.167961 -0.614736 0.000000 0.334721 -0.601890 0.000000 0.501701 -0.581220 0.000000 0.667225 -0.542909 0.000000 0.827874 -0.489361 0.000000 0.983132 -0.401097 0.000000 1.112491 -0.278732 0.000000 1.225855 -0.114344 0.000000 1.294467 0.076592 0.000000 1.350227 0.318546 0.000000 1.360486 0.633198 0.000000 1.328461 0.969022 0.000000 0.943433 1.494580 0.000000 0.617308 1.240610 0.000000 0.846225 -0.240321 0.000000 -0.000000 -1.117268 0.000000 -0.846225 -0.240321 0.000000 -0.617308 1.240610 0.000000 -0.943433 1.494580 0.000000 -1.328461 0.969022 0.000000 -1.360486 0.633198 0.000000 -1.350227 0.318546 0.000000 -1.294467 0.076592 0.000000 -1.225855 -0.114344 0.000000 -1.112491 -0.278732 0.000000 -0.983132 -0.401097 0.000000 -0.827874 -0.489361 0.000000 -0.667225 -0.542909 0.000000 -0.501701 -0.581220 0.000000 -0.334721 -0.601890 0.000000 -0.167961 -0.614736 0.000000 
0.000000 -0.790721 0.000000 0.176659 -0.786467 0.000000 0.351090 -0.774216 0.000000 0.529945 -0.754608 0.000000 0.707392 -0.716247 0.000000 0.888092 -0.660101 0.000000 1.067930 -0.559557 0.000000 1.217842 -0.419833 0.000000 1.405153 -0.230870 0.000000 1.496553 -0.015501 0.000000 1.633966 0.244903 0.000000 1.515918 0.598446 0.000000 1.386607 1.298832 0.000000 1.394449 1.804428 0.000000 1.819570 0.973232 0.000000 1.581072 0.233636 0.000000 -0.000000 0.318570 0.000000 -1.581072 0.233636 0.000000 -1.819570 0.973232 0.000000 -1.394449 1.804428 0.000000 -1.386607 1.298832 0.000000 -1.515918 0.598446 0.000000 -1.633966 0.244903 0.000000 -1.496553 -0.015501 0.000000 -1.405153 -0.230870 0.000000 -1.217842 -0.419833 0.000000 -1.067930 -0.559557 0.000000 -0.888092 -0.660101 0.000000 -0.707392 -0.716247 0.000000 -0.529945 -0.754608 0.000000 -0.351090 -0.774216 0.000000 -0.176659 -0.786467 0.000000 
0.000000 -0.971926 0.000000 0.183281 -0.965826 0.000000 0.362606 -0.955176 0.000000 0.548563 -0.937522 0.000000 0.734569 -0.901056 0.000000 0.933409 -0.849900 0.000000 1.144110 -0.730847 0.000000 1.338946 -0.615955 0.000000 1.632537 -0.393055 0.000000 1.723118 -0.152221 0.000000 1.680648 0.299181 0.000000 1.601868 0.880557 0.000000 1.822427 1.090491 0.000000 2.218931 1.061617 0.000000 2.127983 1.053987 0.000000 1.152871 1.579250 0.000000 -0.000000 2.044876 0.000000 -1.152871 1.579250 0.000000 -2.127983 1.053987 0.000000 -2.218931 1.061617 0.000000 -1.822427 1.090491 0.000000 -1.601868 0.880557 0.000000 -1.680648 0.299181 0.000000 -1.723118 -0.152221 0.000000 -1.632537 -0.393055 0.000000 -1.338946 -0.615955 0.000000 -1.144110 -0.730847 0.000000 -0.933409 -0.849900 0.000000 -0.734569 -0.901056 0.000000 -0.548563 -0.937522 0.000000 -0.362606 -0.955176 0.000000 -0.183281 -0.965826 0.000000 
0.000000 -1.157283 0.000000 0.189205 -1.149072 0.000000 0.367780 -1.139499 0.000000 0.556422 -1.126571 0.000000 0.738965 -1.101093 0.000000 0.964615 -1.069642 0.000000 1.209801 -0.965094 0.000000 1.542722 -0.908260 0.000000 1.784491 -0.615042 0.000000 1.674165 -0.063613 0.000000 1.532447 0.366153 0.000000 1.438586 0.456668 0.000000 1.279775 0.681769 0.000000 0.883755 1.498871 0.000000 0.291645 2.039291 0.000000 0.029155 2.361619 0.000000 0.000000 2.624312 0.000000 -0.029155 2.361619 0.000000 -0.291645 2.039291 0.000000 -0.883755 1.498871 0.000000 -1.279775 0.681769 0.000000 -1.438586 0.456668 0.000000 -1.532447 0.366153 0.000000 -1.674165 -0.063613 0.000000 -1.784491 -0.615042 0.000000 -1.542722 -0.908260 0.000000 -1.209801 -0.965094 0.000000 -0.964615 -1.069642 0.000000 -0.738965 -1.101093 0.000000 -0.556422 -1.126571 0.000000 -0.367780 -1.139499 0.000000 -0.189205 -1.149072 0.000000 
0.000000 -1.350336 0.000000 0.188948 -1.333606 0.000000 0.357076 -1.322393 0.000000 0.532991 -1.308707 0.000000 0.704435 -1.309249 0.000000 0.963160 -1.320736 0.000000 1.295957 -1.308954 0.000000 1.724158 -1.190645 0.000000 1.540348 -0.524498 0.000000 1.046521 0.099823 0.000000 0.668406 0.534759 0.000000 0.194278 1.133230 0.000000 -0.478440 1.645323 0.000000 -0.910259 2.049746 0.000000 -0.805146 1.908587 0.000000 -0.414927 1.870895 0.000000 0.000000 2.103185 0.000000 0.414927 1.870895 0.000000 0.805146 1.908587 0.000000 0.910259 2.049746 0.000000 0.478440 1.645323 0.000000 -0.194278 1.133230 0.000000 -0.668406 0.534759 0.000000 -1.046521 0.099823 0.000000 -1.540348 -0.524498 0.000000 -1.724158 -1.190645 0.000000 -1.295957 -1.308954 0.000000 -0.963160 -1.320736 0.000000 -0.704435 -1.309249 0.000000 -0.532991 -1.308707 0.000000 -0.357076 -1.322393 0.000000 -0.188948 -1.333606 0.000000 
-0.000000 -1.535178 0.000000 0.184992 -1.506148 0.000000 0.331685 -1.483542 0.000000 0.482534 -1.473930 0.000000 0.629868 -1.531262 0.000000 0.923947 -1.661163 0.000000 1.325951 -1.726092 0.000000 1.342709 -1.152652 0.000000 0.546373 0.062595 0.000000 0.040280 0.808330 0.000000 -0.445612 1.218396 0.000000 -0.749022 1.603514 0.000000 -0.532297 1.786306 0.000000 -0.269753 1.825576 0.000000 0.050326 1.543959 0.000000 0.032430 1.556474 0.000000 -0.000000 1.794458 0.000000 -0.032430 1.556474 0.000000 -0.050326 1.543959 0.000000 0.269753 1.825576 0.000000 0.532297 1.786306 0.000000 0.749022 1.603514 0.000000 0.445612 1.218396 0.000000 -0.040280 0.808330 0.000000 -0.546373 0.062595 0.000000 -1.342709 -1.152652 0.000000 -1.325951 -1.726092 0.000000 -0.923947 -1.661163 0.000000 -0.629868 -1.531262 0.000000 -0.482534 -1.473930 0.000000 -0.331685 -1.483542 0.000000 -0.184992 -1.506148 0.000000 
0.000000 -1.720320 0.000000 0.159926 -1.665290 0.000000 0.260604 -1.619935 0.000000 0.352435 -1.606890 0.000000 0.434342 -1.750663 0.000000 0.711299 -2.016820 0.000000 0.862780 -1.727715 0.000000 0.022885 -0.411067 0.000000 -0.711298 0.777931 0.000000 -0.914516 1.091807 0.000000 -1.292622 1.324061 0.000000 -1.122850 1.219916 0.000000 -0.496566 1.166054 0.000000 -0.102328 1.467123 0.000000 0.142734 1.606404 0.000000 0.048951 1.921221 0.000000 -0.000000 2.168046 0.000000 -0.048951 1.921221 0.000000 -0.142734 1.606404 0.000000 0.102328 1.467123 0.000000 0.496566 1.166054 0.000000 1.122850 1.219916 0.000000 1.292622 1.324061 0.000000 0.914516 1.091807 0.000000 0.711298 0.777931 0.000000 -0.022885 -0.411067 0.000000 -0.862780 -1.727715 0.000000 -0.711299 -2.016820 0.000000 -0.434342 -1.750663 0.000000 -0.352435 -1.606890 0.000000 -0.260604 -1.619935 0.000000 -0.159926 -1.665290 0.000000 
-0.000000 -1.855029 0.000000 0.101903 -1.766753 0.000000 0.125845 -1.676052 0.000000 0.130419 -1.647669 0.000000 0.082309 -1.890125 0.000000 0.244376 -2.089601 0.000000 -0.310384 -1.037678 0.000000 -1.412198 0.421426 0.000000 -1.710283 0.999996 0.000000 -2.067886 1.389654 0.000000 -2.375311 1.426731 0.000000 -1.865806 0.807459 0.000000 -1.374114 0.765783 0.000000 -0.927787 1.186276 0.000000 -0.556817 1.392681 0.000000 -0.304520 1.699208 0.000000 -0.000000 1.892360 0.000000 0.304520 1.699208 0.000000 0.556817 1.392681 0.000000 0.927787 1.186276 0.000000 1.374114 0.765783 0.000000 1.865806 0.807459 0.000000 2.375311 1.426731 0.000000 2.067886 1.389654 0.000000 1.710283 0.999996 0.000000 1.412198 0.421426 0.000000 0.310384 -1.037678 0.000000 -0.244376 -2.089601 0.000000 -0.082309 -1.890125 0.000000 -0.130419 -1.647669 0.000000 -0.125845 -1.676052 0.000000 -0.101903 -1.766753 0.000000 
0.000000 -1.924126 0.000000 -0.026203 -1.791136 0.000000 -0.128837 -1.648450 0.000000 -0.282586 -1.563354 0.000000 -0.514090 -1.864620 0.000000 -0.770335 -1.624126 0.000000 -1.811217 -0.071141 0.000000 -2.298222 0.988832 0.000000 -2.435609 1.433619 0.000000 -2.922221 1.756835 0.000000 -2.644805 1.121980 0.000000 -2.050774 0.218718 0.000000 -1.722762 0.228036 0.000000 -1.274824 0.649826 0.000000 -0.839861 0.983136 0.000000 -0.445484 1.364404 0.000000 -0.000000 1.559006 0.000000 0.445484 1.364404 0.000000 0.839861 0.983136 0.000000 1.274824 0.649826 0.000000 1.722762 0.228036 0.000000 2.050774 0.218718 0.000000 2.644805 1.121980 0.000000 2.922221 1.756835 0.000000 2.435609 1.433619 0.000000 2.298222 0.988832 0.000000 1.811217 -0.071141 0.000000 0.770335 -1.624126 0.000000 0.514090 -1.864620 0.000000 0.282586 -1.563354 0.000000 0.128837 -1.648450 0.000000 0.026203 -1.791136 0.000000 
0.000000 -1.802623 0.000000 -0.233627 -1.637916 0.000000 -0.496225 -1.419670 0.000000 -0.858961 -1.262415 0.000000 -1.224826 -1.402376 0.000000 -1.950448 -0.792473 0.000000 -2.502322 0.490209 0.000000 -2.224024 1.045817 0.000000 -2.302852 1.623995 0.000000 -2.340806 1.598850 0.000000 -1.827717 0.555283 0.000000 -1.597481 -0.114584 0.000000 -1.489470 -0.010166 0.000000 -1.237018 0.303375 0.000000 -0.906093 0.563340 0.000000 -0.504263 0.859347 0.000000 0.000000 1.001392 0.000000 0.504263 0.859347 0.000000 0.906093 0.563340 0.000000 1.237018 0.303375 0.000000 1.489470 -0.010166 0.000000 1.597481 -0.114584 0.000000 1.827717 0.555283 0.000000 2.340806 1.598850 0.000000 2.302852 1.623995 0.000000 2.224024 1.045817 0.000000 2.502322 0.490209 0.000000 1.950448 -0.792473 0.000000 1.224826 -1.402376 0.000000 0.858961 -1.262415 0.000000 0.496225 -1.419670 0.000000 0.233627 -1.637916 0.000000 
0.000000 -1.456872 0.000000 -0.492155 -1.294911 0.000000 -0.936341 -1.023116 0.000000 -1.417826 -0.834753 0.000000 -1.832399 -0.773134 0.000000 -2.529044 -0.346630 0.000000 -2.496943 0.202435 0.000000 -2.022279 0.789363 0.000000 -1.856958 1.550401 0.000000 -1.359663 1.281700 0.000000 -0.968037 0.378656 0.000000 -0.981472 -0.119528 0.000000 -1.005373 -0.132428 0.000000 -0.886941 0.066449 0.000000 -0.690153 0.250382 0.000000 -0.395861 0.458311 0.000000 0.000000 0.550480 0.000000 0.395861 0.458311 0.000000 0.690153 0.250382 0.000000 0.886941 0.066449 0.000000 1.005373 -0.132428 0.000000 0.981472 -0.119528 0.000000 0.968037 0.378656 0.000000 1.359663 1.281700 0.000000 1.856958 1.550401 0.000000 2.022279 0.789363 0.000000 2.496943 0.202435 0.000000 2.529044 -0.346630 0.000000 1.832399 -0.773134 0.000000 1.417826 -0.834753 0.000000 0.936341 -1.023116 0.000000 0.492155 -1.294911 0.000000 
0.000000 -0.818313 0.000000 -0.728436 -0.701575 0.000000 -1.294911 -0.493998 0.000000 -1.751552 -0.366357 0.000000 -2.129664 -0.291158 0.000000 -2.524686 -0.127930 0.000000 -2.476294 -0.016556 0.000000 -2.322251 0.405832 0.000000 -1.686932 0.961379 0.000000 -0.771850 0.709929 0.000000 -0.405232 0.177093 0.000000 -0.393194 -0.077248 0.000000 -0.524760 -0.104698 0.000000 -0.525622 -0.011845 0.000000 -0.458311 0.072261 0.000000 -0.275240 0.169193 0.000000 0.000000 0.209669 0.000000 0.275240 0.169193 0.000000 0.458311 0.072261 0.000000 0.525622 -0.011845 0.000000 0.524760 -0.104698 0.000000 0.393194 -0.077248 0.000000 0.405232 0.177093 0.000000 0.771850 0.709929 0.000000 1.686932 0.961379 0.000000 2.322251 0.405832 0.000000 2.476294 -0.016556 0.000000 2.524686 -0.127930 0.000000 2.129664 -0.291158 0.000000 1.751552 -0.366357 0.000000 1.294911 -0.493998 0.000000 0.728436 -0.701575 0.000000 
0.000000 0.000000 0.000000 -0.818313 0.000000 0.000000 -1.403150 0.000000 0.000000 -1.806310 0.000000 0.000000 -2.135864 0.000000 0.000000 -2.388627 -0.000000 0.000000 -2.391723 -0.000000 0.000000 -2.421739 -0.000000 0.000000 -1.580059 -0.000000 0.000000 -0.498981 -0.000000 0.000000 -0.160201 -0.000000 0.000000 -0.144795 0.000000 0.000000 -0.314698 0.000000 0.000000 -0.354191 0.000000 0.000000 -0.338387 -0.000000 0.000000 -0.209669 -0.000000 0.000000 0.000000 -0.000000 0.000000 0.209669 -0.000000 0.000000 0.338387 0.000000 0.000000 0.354191 -0.000000 0.000000 0.314698 -0.000000 0.000000 0.144795 0.000000 0.000000 0.160201 -0.000000 0.000000 0.498981 -0.000000 0.000000 1.580059 -0.000000 0.000000 2.421739 -0.000000 0.000000 2.391723 0.000000 0.000000 2.388627 0.000000 0.000000 2.135864 -0.000000 0.000000 1.806310 0.000000 0.000000 1.403150 0.000000 0.000000 0.818313 0.000000 0.000000 
-0.000000 0.818313 0.000000 -0.728436 0.701575 0.000000 -1.294911 0.493998 0.000000 -1.751552 0.366357 0.000000 -2.129664 0.291158 0.000000 -2.524686 0.127930 0.000000 -2.476294 0.016556 0.000000 -2.322251 -0.405832 0.000000 -1.686932 -0.961379 0.000000 -0.771850 -0.709929 0.000000 -0.405232 -0.177093 0.000000 -0.393194 0.077248 0.000000 -0.524760 0.104698 0.000000 -0.525622 0.011845 0.000000 -0.458311 -0.072261 0.000000 -0.275240 -0.169193 0.000000 0.000000 -0.209669 0.000000 0.275240 -0.169193 0.000000 0.458311 -0.072261 0.000000 0.525622 0.011845 0.000000 0.524760 0.104698 0.000000 0.393194 0.077248 0.000000 0.405232 -0.177093 0.000000 0.771850 -0.709929 0.000000 1.686932 -0.961379 0.000000 2.322251 -0.405832 0.000000 2.476294 0.016556 0.000000 2.524686 0.127930 0.000000 2.129664 0.291158 0.000000 1.751552 0.366357 0.000000 1.294911 0.493998 0.000000 0.728436 0.701575 0.000000 
-0.000000 1.456872 0.000000 -0.492155 1.294911 0.000000 -0.936341 1.023116 0.000000 -1.417826 0.834753 0.000000 -1.832399 0.773134 0.000000 -2.529044 0.346630 0.000000 -2.496943 -0.202435 0.000000 -2.022279 -0.789363 0.000000 -1.856958 -1.550401 0.000000 -1.359663 -1.281700 0.000000 -0.968037 -0.378656 0.000000 -0.981472 0.119528 0.000000 -1.005373 0.132428 0.000000 -0.886941 -0.066449 0.000000 -0.690153 -0.250382 0.000000 -0.395861 -0.458311 0.000000 0.000000 -0.550480 0.000000 0.395861 -0.458311 0.000000 0.690153 -0.250382 0.000000 0.886941 -0.066449 0.000000 1.005373 0.132428 0.000000 0.981472 0.119528 0.000000 0.968037 -0.378656 0.000000 1.359663 -1.281700 0.000000 1.856958 -1.550401 0.000000 2.022279 -0.789363 0.000000 2.496943 -0.202435 0.000000 2.529044 0.346630 0.000000 1.832399 0.773134 0.000000 1.417826 0.834753 0.000000 0.936341 1.023116 0.000000 0.492155 1.294911 0.000000 
-0.000000 1.802623 0.000000 -0.233627 1.637916 0.000000 -0.496225 1.419670 0.000000 -0.858961 1.262415 0.000000 -1.224826 1.402376 0.000000 -1.950448 0.792473 0.000000 -2.502322 -0.490209 0.000000 -2.224024 -1.045817 0.000000 -2.302852 -1.623995 0.000000 -2.340806 -1.598850 0.000000 -1.827717 -0.555283 0.000000 -1.597481 0.114584 0.000000 -1.489470 0.010166 0.000000 -1.237018 -0.303375 0.000000 -0.906093 -0.563340 0.000000 -0.504263 -0.859347 0.000000 0.000000 -1.001392 0.000000 0.504263 -0.859347 0.000000 0.906093 -0.563340 0.000000 1.237018 -0.303375 0.000000 1.489470 0.010166 0.000000 1.597481 0.114584 0.000000 1.827717 -0.555283 0.000000 2.340806 -1.598850 0.000000 2.302852 -1.623995 0.000000 2.224024 -1.045817 0.000000 2.502322 -0.490209 0.000000 1.950448 0.792473 0.000000 1.224826 1.402376 0.000000 0.858961 1.262415 0.000000 0.496225 1.419670 0.000000 0.233627 1.637916 0.000000 
-0.000000 1.924126 0.000000 -0.026203 1.791136 0.000000 -0.128837 1.648450 0.000000 -0.282586 1.563354 0.000000 -0.514090 1.864620 0.000000 -0.770335 1.624126 0.000000 -1.811217 0.071141 0.000000 -2.298222 -0.988832 0.000000 -2.435609 -1.433619 0.000000 -2.922221 -1.756835 0.000000 -2.644805 -1.121980 0.000000 -2.050774 -0.218718 0.000000 -1.722762 -0.228036 0.000000 -1.274824 -0.649826 0.000000 -0.839861 -0.983136 0.000000 -0.445484 -1.364404 0.000000 -0.000000 -1.559006 0.000000 0.445484 -1.364404 0.000000 0.839861 -0.983136 0.000000 1.274824 -0.649826 0.000000 1.722762 -0.228036 0.000000 2.050774 -0.218718 0.000000 2.644805 -1.121980 0.000000 2.922221 -1.756835 0.000000 2.435609 -1.433619 0.000000 2.298222 -0.988832 0.000000 1.811217 0.071141 0.000000 0.770335 1.624126 0.000000 0.514090 1.864620 0.000000 0.282586 1.563354 0.000000 0.128837 1.648450 0.000000 0.026203 1.791136 0.000000 
-0.000000 1.855029 0.000000 0.101903 1.766753 0.000000 0.125845 1.676052 0.000000 0.130419 1.647669 0.000000 0.082309 1.890125 0.000000 0.244376 2.089601 0.000000 -0.310384 1.037678 0.000000 -1.412198 -0.421426 0.000000 -1.710283 -0.999996 0.000000 -2.067886 -1.389654 0.000000 -2.375311 -1.426731 0.000000 -1.865806 -0.807459 0.000000 -1.374114 -0.765783 0.000000 -0.927787 -1.186276 0.000000 -0.556817 -1.392681 0.000000 -0.304520 -1.699208 0.000000 -0.000000 -1.892360 0.000000 0.304520 -1.699208 0.000000 0.556817 -1.392681 0.000000 0.927787 -1.186276 0.000000 1.374114 -0.765783 0.000000 1.865806 -0.807459 0.000000 2.375311 -1.426731 0.000000 2.067886 -1.389654 0.000000 1.710283 -0.999996 0.000000 1.412198 -0.421426 0.000000 0.310384 1.037678 0.000000 -0.244376 2.089601 0.000000 -0.082309 1.890125 0.000000 -0.130419 1.647669 0.000000 -0.125845 1.676052 0.000000 -0.101903 1.766753 0.000000 
-0.000000 1.720320 0.000000 0.159926 1.665290 0.000000 0.260604 1.619935 0.000000 0.352435 1.606890 0.000000 0.434342 1.750663 0.000000 0.711299 2.016820 0.000000 0.862780 1.727715 0.000000 0.022885 0.411067 0.000000 -0.711298 -0.777931 0.000000 -0.914516 -1.091807 0.000000 -1.292622 -1.324061 0.000000 -1.122850 -1.219916 0.000000 -0.496566 -1.166054 0.000000 -0.102328 -1.467123 0.000000 0.142734 -1.606404 0.000000 0.048951 -1.921221 0.000000 -0.000000 -2.168046 0.000000 -0.048951 -1.921221 0.000000 -0.142734 -1.606404 0.000000 0.102328 -1.467123 0.000000 0.496566 -1.166054 0.000000 1.122850 -1.219916 0.000000 1.292622 -1.324061 0.000000 0.914516 -1.091807 0.000000 0.711298 -0.777931 0.000000 -0.022885 0.411067 0.000000 -0.862780 1.727715 0.000000 -0.711299 2.016820 0.000000 -0.434342 1.750663 0.000000 -0.352435 1.606890 0.000000 -0.260604 1.619935 0.000000 -0.159926 1.665290 0.000000 
-0.000000 1.535178 0.000000 0.184992 1.506148 0.000000 0.331685 1.483542 0.000000 0.482534 1.473930 0.000000 0.629868 1.531262 0.000000 0.923947 1.661163 0.000000 1.325951 1.726092 0.000000 1.342709 1.152652 0.000000 0.546373 -0.062595 0.000000 0.040280 -0.808330 0.000000 -0.445612 -1.218396 0.000000 -0.749022 -1.603514 0.000000 -0.532297 -1.786306 0.000000 -0.269753 -1.825576 0.000000 0.050326 -1.543959 0.000000 0.032430 -1.556474 0.000000 0.000000 -1.794458 0.000000 -0.032430 -1.556474 0.000000 -0.050326 -1.543959 0.000000 0.269753 -1.825576 0.000000 0.532297 -1.786306 0.000000 0.749022 -1.603514 0.000000 0.445612 -1.218396 0.000000 -0.040280 -0.808330 0.000000 -0.546373 -0.062595 0.000000 -1.342709 1.152652 0.000000 -1.325951 1.726092 0.000000 -0.923947 1.661163 0.000000 -0.629868 1.531262 0.000000 -0.482534 1.473930 0.000000 -0.331685 1.483542 0.000000 -0.184992 1.506148 0.000000 
-0.000000 1.350336 0.000000 0.188948 1.333606 0.000000 0.357076 1.322393 0.000000 0.532991 1.308707 0.000000 0.704435 1.309249 0.000000 0.963160 1.320736 0.000000 1.295957 1.308954 0.000000 1.724158 1.190645 0.000000 1.540348 0.524498 0.000000 1.046521 -0.099823 0.000000 0.668406 -0.534759 0.000000 0.194278 -1.133230 0.000000 -0.478440 -1.645323 0.000000 -0.910259 -2.049746 0.000000 -0.805146 -1.908587 0.000000 -0.414927 -1.870895 0.000000 0.000000 -2.103185 0.000000 0.414927 -1.870895 0.000000 0.805146 -1.908587 0.000000 0.910259 -2.049746 0.000000 0.478440 -1.645323 0.000000 -0.194278 -1.133230 0.000000 -0.668406 -0.534759 0.000000 -1.046521 -0.099823 0.000000 -1.540348 0.524498 0.000000 -1.724158 1.190645 0.000000 -1.295957 1.308954 0.000000 -0.963160 1.320736 0.000000 -0.704435 1.309249 0.000000 -0.532991 1.308707 0.000000 -0.357076 1.322393 0.000000 -0.188948 1.333606 0.000000 
-0.000000 1.157283 0.000000 0.189205 1.149072 0.000000 0.367780 1.139499 0.000000 0.556422 1.126571 0.000000 0.738965 1.101093 0.000000 0.964615 1.069642 0.000000 1.209801 0.965094 0.000000 1.542722 0.908260 0.000000 1.784491 0.615042 0.000000 1.674165 0.063613 0.000000 1.532447 -0.366153 0.000000 1.438586 -0.456668 0.000000 1.279775 -0.681769 0.000000 0.883755 -1.498871 0.000000 0.291645 -2.039291 0.000000 0.029155 -2.361619 0.000000 0.000000 -2.624312 0.000000 -0.029155 -2.361619 0.000000 -0.291645 -2.039291 0.000000 -0.883755 -1.498871 0.000000 -1.279775 -0.681769 0.000000 -1.438586 -0.456668 0.000000 -1.532447 -0.366153 0.000000 -1.674165 0.063613 0.000000 -1.784491 0.615042 0.000000 -1.542722 0.908260 0.000000 -1.209801 0.965094 0.000000 -0.964615 1.069642 0.000000 -0.738965 1.101093 0.000000 -0.556422 1.126571 0.000000 -0.367780 1.139499 0.000000 -0.189205 1.149072 0.000000 
-0.000000 0.971926 0.000000 0.183281 0.965826 0.000000 0.362606 0.955176 0.000000 0.548563 0.937522 0.000000 0.734569 0.901056 0.000000 0.933409 0.849900 0.000000 1.144110 0.730847 0.000000 1.338946 0.615955 0.000000 1.632537 0.393055 0.000000 1.723118 0.152221 0.000000 1.680648 -0.299181 0.000000 1.601868 -0.880557 0.000000 1.822427 -1.090491 0.000000 2.218931 -1.061617 0.000000 2.127983 -1.053987 0.000000 1.152871 -1.579250 0.000000 -0.000000 -2.044876 0.000000 -1.152871 -1.579250 0.000000 -2.127983 -1.053987 0.000000 -2.218931 -1.061617 0.000000 -1.822427 -1.090491 0.000000 -1.601868 -0.880557 0.000000 -1.680648 -0.299181 0.000000 -1.723118 0.152221 0.000000 -1.632537 0.393055 0.000000 -1.338946 0.615955 0.000000 -1.144110 0.730847 0.000000 -0.933409 0.849900 0.000000 -0.734569 0.901056 0.000000 -0.548563 0.937522 0.000000 -0.362606 0.955176 0.000000 -0.183281 0.965826 0.000000 
-0.000000 0.790721 0.000000 0.176659 0.786467 0.000000 0.351090 0.774216 0.000000 0.529945 0.754608 0.000000 0.707392 0.716247 0.000000 0.888092 0.660101 0.000000 1.067930 0.559557 0.000000 1.217842 0.419833 0.000000 1.405153 0.230870 0.000000 1.496553 0.015501 0.000000 1.633966 -0.244903 0.000000 1.515918 -0.598446 0.000000 1.386607 -1.298832 0.000000 1.394449 -1.804428 0.000000 1.819570 -0.973232 0.000000 1.581072 -0.233636 0.000000 -0.000000 -0.318570 0.000000 -1.581072 -0.233636 0.000000 -1.819570 -0.973232 0.000000 -1.394449 -1.804428 0.000000 -1.386607 -1.298832 0.000000 -1.515918 -0.598446 0.000000 -1.633966 -0.244903 0.000000 -1.496553 0.015501 0.000000 -1.405153 0.230870 0.000000 -1.217842 0.419833 0.000000 -1.067930 0.559557 0.000000 -0.888092 0.660101 0.000000 -0.707392 0.716247 0.000000 -0.529945 0.754608 0.000000 -0.351090 0.774216 0.000000 -0.176659 0.786467 0.000000 
-0.000000 0.618607 0.000000 0.167961 0.614736 0.000000 0.334721 0.601890 0.000000 0.501701 0.581220 0.000000 0.667225 0.542909 0.000000 0.827874 0.489361 0.000000 0.983132 0.401097 0.000000 1.112491 0.278732 0.000000 1.225855 0.114344 0.000000 1.294467 -0.076592 0.000000 1.350227 -0.318546 0.000000 1.360486 -0.633198 0.000000 1.328461 -0.969022 0.000000 0.943433 -1.494580 0.000000 0.617308 -1.240610 0.000000 0.846225 0.240321 0.000000 0.000000 1.117268 0.000000 -0.846225 0.240321 0.000000 -0.617308 -1.240610 0.000000 -0.943433 -1.494580 0.000000 -1.328461 -0.969022 0.000000 -1.360486 -0.633198 0.000000 -1.350227 -0.318546 0.000000 -1.294467 -0.076592 0.000000 -1.225855 0.114344 0.000000 -1.112491 0.278732 0.000000 -0.983132 0.401097 0.000000 -0.827874 0.489361 0.000000 -0.667225 0.542909 0.000000 -0.501701 0.581220 0.000000 -0.334721 0.601890 0.000000 -0.167961 0.614736 0.000000 
-0.000000 0.454800 0.000000 0.160110 0.451745 0.000000 0.318568 0.440476 0.000000 0.474387 0.422104 0.000000 0.625876 0.390075 0.000000 0.767108 0.344194 0.000000 0.897735 0.274939 0.000000 0.999807 0.177110 0.000000 1.073438 0.048894 0.000000 1.098830 -0.108871 0.000000 1.086157 -0.310921 0.000000 1.005025 -0.576680 0.000000 0.832505 -0.881779 0.000000 0.573604 -1.093275 0.000000 -0.038486 -0.876024 0.000000 -0.100475 0.383672 0.000000 -0.000000 1.373881 0.000000 0.100475 0.383672 0.000000 0.038486 -0.876024 0.000000 -0.573604 -1.093275 0.000000 -0.832505 -0.881779 0.000000 -1.005025 -0.576680 0.000000 -1.086157 -0.310921 0.000000 -1.098830 -0.108871 0.000000 -1.073438 0.048894 0.000000 -0.999807 0.177110 0.000000 -0.897735 0.274939 0.000000 -0.767108 0.344194 0.000000 -0.625876 0.390075 0.000000 -0.474387 0.422104 0.000000 -0.318568 0.440476 0.000000 -0.160110 0.451745 0.000000 
-0.000000 0.298388 0.000000 0.153507 0.296168 0.000000 0.305128 0.287613 0.000000 0.451838 0.273912 0.000000 0.592418 0.250188 0.000000 0.719355 0.217502 0.000000 0.831401 0.168398 0.000000 0.914171 0.103029 0.000000 0.962325 0.015321 0.000000 0.961743 -0.089311 0.000000 0.906458 -0.224740 0.000000 0.773519 -0.379546 0.000000 0.527670 -0.537601 0.000000 0.168225 -0.623590 0.000000 -0.265698 -0.566532 0.000000 -0.468675 0.201835 0.000000 -0.000000 0.916319 0.000000 0.468675 0.201835 0.000000 0.265698 -0.566532 0.000000 -0.168225 -0.623590 0.000000 -0.527670 -0.537601 0.000000 -0.773519 -0.379546 0.000000 -0.906458 -0.224740 0.000000 -0.961743 -0.089311 0.000000 -0.962325 0.015321 0.000000 -0.914171 0.103029 0.000000 -0.831401 0.168398 0.000000 -0.719355 0.217502 0.000000 -0.592418 0.250188 0.000000 -0.451838 0.273912 0.000000 -0.305128 0.287613 0.000000 -0.153507 0.296168 0.000000 
-0.000000 0.147785 0.000000 0.149194 0.146617 0.000000 0.296168 0.142145 0.000000 0.436807 0.134814 0.000000 0.570080 0.122558 0.000000 0.686995 0.105211 0.000000 0.787582 0.080123 0.000000 0.855393 0.046186 0.000000 0.890611 0.001322 0.000000 0.870714 -0.053004 0.000000 0.801300 -0.122697 0.000000 0.645973 -0.197892 0.000000 0.421755 -0.276484 0.000000 0.108372 -0.299906 0.000000 -0.201835 -0.239125 0.000000 -0.458159 0.117974 0.000000 -0.000000 0.436532 0.000000 0.458159 0.117974 0.000000 0.201835 -0.239125 0.000000 -0.108372 -0.299906 0.000000 -0.421755 -0.276484 0.000000 -0.645973 -0.197892 0.000000 -0.801300 -0.122697 0.000000 -0.870714 -0.053004 0.000000 -0.890611 0.001322 0.000000 -0.855393 0.046186 0.000000 -0.787582 0.080123 0.000000 -0.686995 0.105211 0.000000 -0.570080 0.122558 0.000000 -0.436807 0.134814 0.000000 -0.296168 0.142145 0.000000 -0.149194 0.146617 0.000000 
