# vtk DataFile Version 2.0
Comment goes here
ASCII

DATASET STRUCTURED_POINTS
FIELD FieldData 1
TIME 1 1 double
0.80000000
DIMENSIONS    32   32   1

ORIGIN    0.000   0.000   0.000
SPACING   0.03125 0.03125   1.000

POINT_DATA   1024
SCALARS uMag double
LOOKUP_TABLE default

1.346577e-15 5.454068e-03 1.025197e-03 2.874622e-02 8.702437e-02 1.827268e-01 3.170866e-01 4.927139e-01 6.893241e-01 9.005768e-01 1.086433e+00 1.238682e+00 1.304427e+00 1.251815e+00 1.026346e+00 5.758533e-01 1.733631e-14 5.758533e-01 1.026346e+00 1.251815e+00 1.304427e+00 1.238682e+00 1.086433e+00 9.005768e-01 6.893241e-01 4.927139e-01 3.170866e-01 1.827268e-01 8.702437e-02 2.874622e-02 1.025197e-03 5.454068e-03 
5.454068e-03 9.366292e-03 1.826162e-02 4.621398e-02 1.044489e-01 1.958269e-01 3.229963e-01 4.828498e-01 6.602477e-01 8.470675e-01 1.007091e+00 1.135357e+00 1.176435e+00 1.127897e+00 9.506678e-01 7.083847e-01 5.758533e-01 7.083847e-01 9.506678e-01 1.127897e+00 1.176435e+00 1.135357e+00 1.007091e+00 8.470675e-01 6.602477e-01 4.828498e-01 3.229963e-01 1.958269e-01 1.044489e-01 4.621398e-02 1.826162e-02 9.366292e-03 
1.870451e-02 2.710862e-02 4.785657e-02 8.415094e-02 1.415470e-01 2.214146e-01 3.243552e-01 4.375451e-01 5.508233e-01 6.546319e-01 7.289057e-01 7.814956e-01 7.902580e-01 8.108504e-01 8.876683e-01 9.512385e-01 9.766525e-01 9.512385e-01 8.876683e-01 8.108504e-01 7.902580e-01 7.814956e-01 7.289057e-01 6.546319e-01 5.508233e-01 4.375451e-01 3.243552e-01 2.214146e-01 1.415470e-01 8.415094e-02 4.785657e-02 2.710862e-02 
5.813444e-02 6.320748e-02 8.433632e-02 1.287469e-01 1.924714e-01 2.718012e-01 3.634593e-01 4.415268e-01 5.000445e-01 5.138704e-01 4.856041e-01 4.272979e-01 3.557325e-01 4.431503e-01 7.805444e-01 1.139788e+00 1.255019e+00 1.139788e+00 7.805444e-01 4.431503e-01 3.557325e-01 4.272979e-01 4.856041e-01 5.138704e-01 5.000445e-01 4.415268e-01 3.634593e-01 2.718012e-01 1.924714e-01 1.287469e-01 8.433632e-02 6.320748e-02 
1.174294e-01 1.216189e-01 1.463884e-01 1.999245e-01 2.711246e-01 3.560478e-01 4.463765e-01 5.138858e-01 5.545389e-01 5.257252e-01 4.463178e-01 2.658124e-01 1.711713e-01 4.819229e-01 8.851617e-01 1.081417e+00 1.119779e+00 1.081417e+00 8.851617e-01 4.819229e-01 1.711713e-01 2.658124e-01 4.463178e-01 5.257252e-01 5.545389e-01 5.138858e-01 4.463765e-01 3.560478e-01 2.711246e-01 1.999245e-01 1.463884e-01 1.216189e-01 
2.212679e-01 2.175674e-01 2.279806e-01 2.742278e-01 3.416004e-01 4.262288e-01 5.112829e-01 5.727873e-01 6.133965e-01 5.906067e-01 5.343245e-01 4.059048e-01 4.991689e-01 7.623567e-01 1.136345e+00 1.267769e+00 1.199882e+00 1.267769e+00 1.136345e+00 7.623567e-01 4.991689e-01 4.059048e-01 5.343245e-01 5.906067e-01 6.133965e-01 5.727873e-01 5.112829e-01 4.262288e-01 3.416004e-01 2.742278e-01 2.279806e-01 2.175674e-01 
3.495684e-01 3.343825e-01 3.268329e-01 3.615374e-01 4.248683e-01 5.112889e-01 5.911841e-01 6.525300e-01 7.053292e-01 7.250602e-01 7.419634e-01 8.201140e-01 1.631430e+00 2.408971e+00 2.099533e+00 9.198867e-01 2.947757e-01 9.198867e-01 2.099533e+00 2.408971e+00 1.631430e+00 8.201140e-01 7.419634e-01 7.250602e-01 7.053292e-01 6.525300e-01 5.911841e-01 5.112889e-01 4.248683e-01 3.615374e-01 3.268329e-01 3.343825e-01 
5.257134e-01 4.920265e-01 4.453783e-01 4.434935e-01 4.862573e-01 5.667411e-01 6.316720e-01 6.745553e-01 7.236871e-01 7.753497e-01 8.808546e-01 1.625353e+00 2.288438e+00 1.068323e+00 7.871298e-01 1.057316e+00 6.228085e-01 1.057316e+00 7.871298e-01 1.068323e+00 2.288438e+00 1.625353e+00 8.808546e-01 7.753497e-01 7.236871e-01 6.745553e-01 6.316720e-01 5.667411e-01 4.862573e-01 4.434935e-01 4.453783e-01 4.920265e-01 
7.138031e-01 6.552314e-01 5.601639e-01 5.060038e-01 5.238444e-01 6.032703e-01 6.504843e-01 6.635521e-01 6.904275e-01 7.154070e-01 7.588672e-01 1.111163e+00 2.383187e-01 1.984051e+00 1.398845e+00 6.656530e-01 9.262767e-01 6.656530e-01 1.398845e+00 1.984051e+00 2.383187e-01 1.111163e+00 7.588672e-01 7.154070e-01 6.904275e-01 6.635521e-01 6.504843e-01 6.032703e-01 5.238444e-01 5.060038e-01 5.601639e-01 6.552314e-01 
9.265249e-01 8.392164e-01 6.809929e-01 5.441669e-01 5.148288e-01 5.963618e-01 6.291265e-01 5.851082e-01 6.542177e-01 4.220846e-01 1.582073e-01 1.683532e-01 1.060678e+00 4.920452e-01 7.676497e-01 6.917094e-01 3.068337e-01 6.917094e-01 7.676497e-01 4.920452e-01 1.060678e+00 1.683532e-01 1.582073e-01 4.220846e-01 6.542177e-01 5.851082e-01 6.291265e-01 5.963618e-01 5.148288e-01 5.441669e-01 6.809929e-01 8.392164e-01 
1.111753e+00 9.938852e-01 7.758122e-01 5.375427e-01 4.539228e-01 5.631104e-01 5.997919e-01 4.795849e-01 5.864970e-01 7.359574e-01 1.442693e-01 1.364163e-01 1.927817e-01 6.697832e-01 5.951440e-01 3.772942e-01 2.418538e-01 3.772942e-01 5.951440e-01 6.697832e-01 1.927817e-01 1.364163e-01 1.442693e-01 7.359574e-01 5.864970e-01 4.795849e-01 5.997919e-01 5.631104e-01 4.539228e-01 5.375427e-01 7.758122e-01 9.938852e-01 
1.268202e+00 1.128259e+00 8.631721e-01 5.078210e-01 3.294560e-01 5.038034e-01 5.364110e-01 5.771928e-01 1.093311e+00 7.194579e-01 4.685987e-01 3.276039e-01 2.103439e-01 2.144479e-01 9.096365e-02 2.156167e-01 3.700007e-01 2.156167e-01 9.096365e-02 2.144479e-01 2.103439e-01 3.276039e-01 4.685987e-01 7.194579e-01 1.093311e+00 5.771928e-01 5.364110e-01 5.038034e-01 3.294560e-01 5.078210e-01 8.631721e-01 1.128259e+00 
1.329657e+00 1.182767e+00 9.148994e-01 4.607950e-01 1.545524e-01 4.663191e-01 4.498798e-01 8.910545e-01 1.696570e+00 1.266512e-01 2.882909e-01 6.703348e-01 4.536093e-02 2.277692e-01 1.688154e-01 2.037120e-01 2.155087e-01 2.037120e-01 1.688154e-01 2.277692e-01 4.536093e-02 6.703348e-01 2.882909e-01 1.266512e-01 1.696570e+00 8.910545e-01 4.498798e-01 4.663191e-01 1.545524e-01 4.607950e-01 9.148994e-01 1.182767e+00 
1.286538e+00 1.166672e+00 9.565981e-01 5.465889e-01 2.046321e-01 4.306302e-01 4.642035e-01 1.459302e+00 1.453467e+00 7.610922e-01 2.232952e-01 5.828352e-01 1.570655e-01 1.862524e-01 1.873457e-01 1.205912e-01 7.881641e-02 1.205912e-01 1.873457e-01 1.862524e-01 1.570655e-01 5.828352e-01 2.232952e-01 7.610922e-01 1.453467e+00 1.459302e+00 4.642035e-01 4.306302e-01 2.046321e-01 5.465889e-01 9.565981e-01 1.166672e+00 
1.062522e+00 1.025279e+00 9.884988e-01 8.697532e-01 7.193588e-01 8.374357e-01 9.080688e-01 1.726306e+00 6.889886e-01 7.257258e-01 5.744755e-01 4.602826e-01 1.426260e-01 5.462221e-02 1.434908e-01 5.575077e-02 2.994844e-03 5.575077e-02 1.434908e-01 5.462221e-02 1.426260e-01 4.602826e-01 5.744755e-01 7.257258e-01 6.889886e-01 1.726306e+00 9.080688e-01 8.374357e-01 7.193588e-01 8.697532e-01 9.884988e-01 1.025279e+00 
6.606203e-01 8.162818e-01 1.116863e+00 1.403292e+00 1.488752e+00 1.585699e+00 1.315443e+00 1.176963e+00 3.548187e-01 3.117960e-01 5.331384e-01 3.135406e-01 1.203549e-01 1.336798e-01 1.012301e-01 2.391461e-02 3.079466e-02 2.391461e-02 1.012301e-01 1.336798e-01 1.203549e-01 3.135406e-01 5.331384e-01 3.117960e-01 3.548187e-01 1.176963e+00 1.315443e+00 1.585699e+00 1.488752e+00 1.403292e+00 1.116863e+00 8.162818e-01 
2.347431e-14 6.606203e-01 1.239480e+00 1.745294e+00 1.933507e+00 1.921858e+00 1.292583e+00 5.928955e-01 2.998313e-01 1.950985e-01 2.116230e-01 4.596671e-01 1.769917e-01 2.322199e-01 4.773536e-02 3.079466e-02 1.556484e-14 3.079466e-02 4.773536e-02 2.322199e-01 1.769917e-01 4.596671e-01 2.116230e-01 1.950985e-01 2.998313e-01 5.928955e-01 1.292583e+00 1.921858e+00 1.933507e+00 1.745294e+00 1.239480e+00 6.606203e-01 
6.606203e-01 8.162818e-01 1.116863e+00 1.403292e+00 1.488752e+00 1.585699e+00 1.315443e+00 1.176963e+00 3.548187e-01 3.117960e-01 5.331384e-01 3.135406e-01 1.203549e-01 1.336798e-01 1.012301e-01 2.391461e-02 3.079466e-02 2.391461e-02 1.012301e-01 1.336798e-01 1.203549e-01 3.135406e-01 5.331384e-01 3.117960e-01 3.548187e-01 1.176963e+00 1.315443e+00 1.585699e+00 1.488752e+00 1.403292e+00 1.116863e+00 8.162818e-01 
1.062522e+00 1.025279e+00 9.884988e-01 8.697532e-01 7.193588e-01 8.374357e-01 9.080688e-01 1.726306e+00 6.889886e-01 7.257258e-01 5.744755e-01 4.602826e-01 1.426260e-01 5.462221e-02 1.434908e-01 5.575077e-02 2.994844e-03 5.575077e-02 1.434908e-01 5.462221e-02 1.426260e-01 4.602826e-01 5.744755e-01 7.257258e-01 6.889886e-01 1.726306e+00 9.080688e-01 8.374357e-01 7.193588e-01 8.697532e-01 9.884988e-01 1.025279e+00 
1.286538e+00 1.166672e+00 9.565981e-01 5.465889e-01 2.046321e-01 4.306302e-01 4.642035e-01 1.459302e+00 1.453467e+00 7.610922e-01 2.232952e-01 5.828352e-01 1.570655e-01 1.862524e-01 1.873457e-01 1.205912e-01 7.881641e-02 1.205912e-01 1.873457e-01 1.862524e-01 1.570655e-01 5.828352e-01 2.232952e-01 7.610922e-01 1.453467e+00 1.459302e+00 4.642035e-01 4.306302e-01 2.046321e-01 5.465889e-01 9.565981e-01 1.166672e+00 
1.329657e+00 1.182767e+00 9.148994e-01 4.607950e-01 1.545524e-01 4.663191e-01 4.498798e-01 8.910545e-01 1.696570e+00 1.266512e-01 2.882909e-01 6.703348e-01 4.536093e-02 2.277692e-01 1.688154e-01 2.037120e-01 2.155087e-01 2.037120e-01 1.688154e-01 2.277692e-01 4.536093e-02 6.703348e-01 2.882909e-01 1.266512e-01 1.696570e+00 8.910545e-01 4.498798e-01 4.663191e-01 1.545524e-01 4.607950e-01 9.148994e-01 1.182767e+00 
1.268202e+00 1.128259e+00 8.631721e-01 5.078210e-01 3.294560e-01 5.038034e-01 5.364110e-01 5.771928e-01 1.093311e+00 7.194579e-01 4.685987e-01 3.276039e-01 2.103439e-01 2.144479e-01 9.096365e-02 2.156167e-01 3.700007e-01 2.156167e-01 9.096365e-02 2.144479e-01 2.103439e-01 3.276039e-01 4.685987e-01 7.194579e-01 1.093311e+00 5.771928e-01 5.364110e-01 5.038034e-01 3.294560e-01 5.078210e-01 8.631721e-01 1.128259e+00 
1.111753e+00 9.938852e-01 7.758122e-01 5.375427e-01 4.539228e-01 5.631104e-01 5.997919e-01 4.795849e-01 5.864970e-01 7.359574e-01 1.442693e-01 1.364163e-01 1.927817e-01 6.697832e-01 5.951440e-01 3.772942e-01 2.418538e-01 3.772942e-01 5.951440e-01 6.697832e-01 1.927817e-01 1.364163e-01 1.442693e-01 7.359574e-01 5.864970e-01 4.795849e-01 5.997919e-01 5.631104e-01 4.539228e-01 5.375427e-01 7.758122e-01 9.938852e-01 
9.265249e-01 8.392164e-01 6.809929e-01 5.441669e-01 5.148288e-01 5.963618e-01 6.291265e-01 5.851082e-01 6.542177e-01 4.220846e-01 1.582073e-01 1.683532e-01 1.060678e+00 4.920452e-01 7.676497e-01 6.917094e-01 3.068337e-01 6.917094e-01 7.676497e-01 4.920452e-01 1.060678e+00 1.683532e-01 1.582073e-01 4.220846e-01 6.542177e-01 5.851082e-01 6.291265e-01 5.963618e-01 5.148288e-01 5.441669e-01 6.809929e-01 8.392164e-01 
7.138031e-01 6.552314e-01 5.601639e-01 5.060038e-01 5.238444e-01 6.032703e-01 6.504843e-01 6.635521e-01 6.904275e-01 7.154070e-01 7.588672e-01 1.111163e+00 2.383187e-01 1.984051e+00 1.398845e+00 6.656530e-01 9.262767e-01 6.656530e-01 1.398845e+00 1.984051e+00 2.383187e-01 1.111163e+00 7.588672e-01 7.154070e-01 6.904275e-01 6.635521e-01 6.504843e-01 6.032703e-01 5.238444e-01 5.060038e-01 5.601639e-01 6.552314e-01 
5.257134e-01 4.920265e-01 4.453783e-01 4.434935e-01 4.862573e-01 5.667411e-01 6.316720e-01 6.745553e-01 7.236871e-01 7.753497e-01 8.808546e-01 1.625353e+00 2.288438e+00 1.068323e+00 7.871298e-01 1.057316e+00 6.228085e-01 1.057316e+00 7.871298e-01 1.068323e+00 2.288438e+00 1.625353e+00 8.808546e-01 7.753497e-01 7.236871e-01 6.745553e-01 6.316720e-01 5.667411e-01 4.862573e-01 4.434935e-01 4.453783e-01 4.920265e-01 
3.495684e-01 3.343825e-01 3.268329e-01 3.615374e-01 4.248683e-01 5.112889e-01 5.911841e-01 6.525300e-01 7.053292e-01 7.250602e-01 7.419634e-01 8.201140e-01 1.631430e+00 2.408971e+00 2.099533e+00 9.198867e-01 2.947757e-01 9.198867e-01 2.099533e+00 2.408971e+00 1.631430e+00 8.201140e-01 7.419634e-01 7.250602e-01 7.053292e-01 6.525300e-01 5.911841e-01 5.112889e-01 4.248683e-01 3.615374e-01 3.268329e-01 3.343825e-01 
2.212679e-01 2.175674e-01 2.279806e-01 2.742278e-01 3.416004e-01 4.262288e-01 5.112829e-01 5.727873e-01 6.133965e-01 5.906067e-01 5.343245e-01 4.059048e-01 4.991689e-01 7.623567e-01 1.136345e+00 1.267769e+00 1.199882e+00 1.267769e+00 1.136345e+00 7.623567e-01 4.991689e-01 4.059048e-01 5.343245e-01 5.906067e-01 6.133965e-01 5.727873e-01 5.112829e-01 4.262288e-01 3.416004e-01 2.742278e-01 2.279806e-01 2.175674e-01 
1.174294e-01 1.216189e-01 1.463884e-01 1.999245e-01 2.711246e-01 3.560478e-01 4.463765e-01 5.138858e-01 5.545389e-01 5.257252e-01 4.463178e-01 2.658124e-01 1.711713e-01 4.819229e-01 8.851617e-01 1.081417e+00 1.119779e+00 1.081417e+00 8.851617e-01 4.819229e-01 1.711713e-01 2.658124e-01 4.463178e-01 5.257252e-01 5.545389e-01 5.138858e-01 4.463765e-01 3.560478e-01 2.711246e-01 1.999245e-01 1.463884e-01 1.216189e-01 
5.813444e-02 6.320748e-02 8.433632e-02 1.287469e-01 1.924714e-01 2.718012e-01 3.634593e-01 4.415268e-01 5.000445e-01 5.138704e-01 4.856041e-01 4.272979e-01 3.557325e-01 4.431503e-01 7.805444e-01 1.139788e+00 1.255019e+00 1.139788e+00 7.805444e-01 4.431503e-01 3.557325e-01 4.272979e-01 4.856041e-01 5.138704e-01 5.000445e-01 4.415268e-01 3.634593e-01 2.718012e-01 1.924714e-01 1.287469e-01 8.433632e-02 6.320748e-02 
1.870451e-02 2.710862e-02 4.785657e-02 8.415094e-02 1.415470e-01 2.214146e-01 3.243552e-01 4.375451e-01 5.508233e-01 6.546319e-01 7.289057e-01 7.814956e-01 7.902580e-01 8.108504e-01 8.876683e-01 9.512385e-01 9.766525e-01 9.512385e-01 8.876683e-01 8.108504e-01 7.902580e-01 7.814956e-01 7.289057e-01 6.546319e-01 5.508233e-01 4.375451e-01 3.243552e-01 2.214146e-01 1.415470e-01 8.415094e-02 4.785657e-02 2.710862e-02 
5.454068e-03 9.366292e-03 1.826162e-02 4.621398e-02 1.044489e-01 1.958269e-01 3.229963e-01 4.828498e-01 6.602477e-01 8.470675e-01 1.007091e+00 1.135357e+00 1.176435e+00 1.127897e+00 9.506678e-01 7.083847e-01 5.758533e-01 7.083847e-01 9.506678e-01 1.127897e+00 1.176435e+00 1.135357e+00 1.007091e+00 8.470675e-01 6.602477e-01 4.828498e-01 3.229963e-01 1.958269e-01 1.044489e-01 4.621398e-02 1.826162e-02 9.366292e-03 
