# vtk DataFile Version 2.0
Comment goes here
ASCII

DATASET STRUCTURED_POINTS
FIELD FieldData 1
TIME 1 1 double
0.42000000
DIMENSIONS    32   32   1

ORIGIN    0.000   0.000   0.000
SPACING   0.03125 0.03125   1.000

POINT_DATA   1024
SCALARS uMag double
LOOKUP_TABLE default

3.790059e-15 3.335654e-02 7.397493e-02 1.128641e-01 1.705870e-01 2.229487e-01 3.012016e-01 3.730844e-01 4.777528e-01 5.837986e-01 7.295550e-01 8.739771e-01 1.015351e+00 1.075210e+00 9.977576e-01 6.881361e-01 1.926762e-14 6.881361e-01 9.977576e-01 1.075210e+00 1.015351e+00 8.739771e-01 7.295550e-01 5.837986e-01 4.777528e-01 3.730844e-01 3.012016e-01 2.229487e-01 1.705870e-01 1.128641e-01 7.397493e-02 3.335654e-02 
3.335654e-02 4.868765e-02 8.138562e-02 1.188796e-01 1.745657e-01 2.261180e-01 3.019386e-01 3.698827e-01 4.666527e-01 5.590471e-01 6.850094e-01 8.008785e-01 9.213571e-01 9.735663e-01 9.430837e-01 8.117877e-01 6.881361e-01 8.117877e-01 9.430837e-01 9.735663e-01 9.213571e-01 8.008785e-01 6.850094e-01 5.590471e-01 4.666527e-01 3.698827e-01 3.019386e-01 2.261180e-01 1.745657e-01 1.188796e-01 8.138562e-02 4.868765e-02 
6.332187e-02 7.611980e-02 9.984448e-02 1.371382e-01 1.897263e-01 2.420564e-01 3.154618e-01 3.787936e-01 4.645571e-01 5.377878e-01 6.330675e-01 7.120078e-01 7.857495e-01 8.053659e-01 8.493836e-01 1.061108e+00 1.280811e+00 1.061108e+00 8.493836e-01 8.053659e-01 7.857495e-01 7.120078e-01 6.330675e-01 5.377878e-01 4.645571e-01 3.787936e-01 3.154618e-01 2.420564e-01 1.897263e-01 1.371382e-01 9.984448e-02 7.611980e-02 
8.816413e-02 1.024299e-01 1.222873e-01 1.629784e-01 2.140128e-01 2.690925e-01 3.398233e-01 3.968328e-01 4.645930e-01 5.062001e-01 5.497241e-01 5.459680e-01 5.154161e-01 4.550637e-01 6.688295e-01 1.304131e+00 1.735034e+00 1.304131e+00 6.688295e-01 4.550637e-01 5.154161e-01 5.459680e-01 5.497241e-01 5.062001e-01 4.645930e-01 3.968328e-01 3.398233e-01 2.690925e-01 2.140128e-01 1.629784e-01 1.222873e-01 1.024299e-01 
1.019321e-01 1.212342e-01 1.428237e-01 1.934435e-01 2.464225e-01 3.068526e-01 3.763818e-01 4.228435e-01 4.683444e-01 4.677890e-01 4.563229e-01 4.177287e-01 3.387682e-01 2.150341e-01 5.597816e-01 1.394816e+00 1.778054e+00 1.394816e+00 5.597816e-01 2.150341e-01 3.387682e-01 4.177287e-01 4.563229e-01 4.677890e-01 4.683444e-01 4.228435e-01 3.763818e-01 3.068526e-01 2.464225e-01 1.934435e-01 1.428237e-01 1.212342e-01 
1.023179e-01 1.304806e-01 1.626695e-01 2.317803e-01 2.930278e-01 3.667575e-01 4.428738e-01 4.901096e-01 5.262577e-01 5.141194e-01 4.629988e-01 3.193829e-01 1.396521e-01 1.335647e-01 8.088602e-01 1.481697e+00 1.611354e+00 1.481697e+00 8.088602e-01 1.335647e-01 1.396521e-01 3.193829e-01 4.629988e-01 5.141194e-01 5.262577e-01 4.901096e-01 4.428738e-01 3.667575e-01 2.930278e-01 2.317803e-01 1.626695e-01 1.304806e-01 
7.942520e-02 1.261023e-01 1.809670e-01 2.804112e-01 3.573380e-01 4.522674e-01 5.417797e-01 5.807542e-01 6.031352e-01 5.340270e-01 4.857105e-01 4.626474e-01 3.226242e-01 3.463923e-01 9.545484e-01 1.155429e+00 9.993127e-01 1.155429e+00 9.545484e-01 3.463923e-01 3.226242e-01 4.626474e-01 4.857105e-01 5.340270e-01 6.031352e-01 5.807542e-01 5.417797e-01 4.522674e-01 3.573380e-01 2.804112e-01 1.809670e-01 1.261023e-01 
2.911707e-02 1.119541e-01 2.049355e-01 3.444392e-01 4.443729e-01 5.717551e-01 6.803948e-01 7.326898e-01 8.335849e-01 9.823273e-01 9.471026e-01 5.071298e-01 3.386776e-01 9.131203e-01 1.202288e+00 1.032105e+00 8.669798e-01 1.032105e+00 1.202288e+00 9.131203e-01 3.386776e-01 5.071298e-01 9.471026e-01 9.823273e-01 8.335849e-01 7.326898e-01 6.803948e-01 5.717551e-01 4.443729e-01 3.444392e-01 2.049355e-01 1.119541e-01 
6.133046e-02 1.102924e-01 2.356746e-01 4.244292e-01 5.614703e-01 7.492237e-01 9.234145e-01 1.091608e+00 1.292516e+00 9.308061e-01 5.215227e-01 9.965809e-01 1.011309e+00 7.817450e-01 6.660492e-01 6.655872e-01 6.654589e-01 6.655872e-01 6.660492e-01 7.817450e-01 1.011309e+00 9.965809e-01 5.215227e-01 9.308061e-01 1.292516e+00 1.091608e+00 9.234145e-01 7.492237e-01 5.614703e-01 4.244292e-01 2.356746e-01 1.102924e-01 
1.874317e-01 1.668873e-01 2.774663e-01 5.159018e-01 7.099175e-01 1.006604e+00 1.291666e+00 1.405153e+00 9.532981e-01 3.576236e-01 6.662055e-01 6.024706e-01 5.287779e-01 6.691231e-01 8.839821e-01 9.201740e-01 8.730944e-01 9.201740e-01 8.839821e-01 6.691231e-01 5.287779e-01 6.024706e-01 6.662055e-01 3.576236e-01 9.532981e-01 1.405153e+00 1.291666e+00 1.006604e+00 7.099175e-01 5.159018e-01 2.774663e-01 1.668873e-01 
3.523234e-01 2.779239e-01 3.132421e-01 5.880797e-01 8.579549e-01 1.333405e+00 1.705548e+00 1.368896e+00 2.334759e-03 7.268904e-01 5.500265e-01 9.503578e-01 1.271610e+00 1.472199e+00 1.361626e+00 8.812335e-01 5.410566e-01 8.812335e-01 1.361626e+00 1.472199e+00 1.271610e+00 9.503578e-01 5.500265e-01 7.268904e-01 2.334759e-03 1.368896e+00 1.705548e+00 1.333405e+00 8.579549e-01 5.880797e-01 3.132421e-01 2.779239e-01 
5.219108e-01 4.170440e-01 3.251375e-01 5.937214e-01 9.733721e-01 1.776134e+00 2.231588e+00 6.553662e-01 1.173781e+00 1.233764e+00 1.399215e+00 1.656601e+00 1.410992e+00 1.059869e+00 6.111177e-01 2.971536e-01 2.587551e-01 2.971536e-01 6.111177e-01 1.059869e+00 1.410992e+00 1.656601e+00 1.399215e+00 1.233764e+00 1.173781e+00 6.553662e-01 2.231588e+00 1.776134e+00 9.733721e-01 5.937214e-01 3.251375e-01 4.170440e-01 
6.652668e-01 5.548168e-01 2.727825e-01 4.729776e-01 1.106693e+00 2.659192e+00 2.111509e+00 1.489474e+00 1.721671e+00 1.223988e+00 7.523846e-01 5.698569e-01 5.024662e-01 4.847427e-01 3.640850e-01 1.370911e-01 1.006001e-02 1.370911e-01 3.640850e-01 4.847427e-01 5.024662e-01 5.698569e-01 7.523846e-01 1.223988e+00 1.721671e+00 1.489474e+00 2.111509e+00 2.659192e+00 1.106693e+00 4.729776e-01 2.727825e-01 5.548168e-01 
7.068046e-01 6.418981e-01 1.334942e-01 2.714187e-01 1.488374e+00 3.300975e+00 7.759108e-01 2.920494e+00 1.089549e+00 6.460212e-01 1.463935e-01 7.181661e-01 7.039042e-01 5.245487e-01 2.587263e-01 3.265000e-02 1.157174e-01 3.265000e-02 2.587263e-01 5.245487e-01 7.039042e-01 7.181661e-01 1.463935e-01 6.460212e-01 1.089549e+00 2.920494e+00 7.759108e-01 3.300975e+00 1.488374e+00 2.714187e-01 1.334942e-01 6.418981e-01 
5.958130e-01 6.407643e-01 2.702262e-01 2.181529e-01 1.740828e+00 2.446982e+00 2.480021e+00 1.898254e+00 9.855371e-01 6.202254e-01 5.753953e-01 6.139906e-01 4.921172e-01 4.042137e-01 2.730020e-01 1.481058e-01 5.315991e-02 1.481058e-01 2.730020e-01 4.042137e-01 4.921172e-01 6.139906e-01 5.753953e-01 6.202254e-01 9.855371e-01 1.898254e+00 2.480021e+00 2.446982e+00 1.740828e+00 2.181529e-01 2.702262e-01 6.407643e-01 
3.671993e-01 4.810315e-01 6.215263e-01 3.588005e-01 1.364604e+00 1.782775e+00 2.199159e+00 2.516677e-01 9.876047e-01 7.239866e-01 1.002493e+00 8.143935e-01 6.252017e-01 4.026644e-01 2.082166e-01 7.922466e-02 2.819951e-02 7.922466e-02 2.082166e-01 4.026644e-01 6.252017e-01 8.143935e-01 1.002493e+00 7.239866e-01 9.876047e-01 2.516677e-01 2.199159e+00 1.782775e+00 1.364604e+00 3.588005e-01 6.215263e-01 4.810315e-01 
2.701329e-14 3.671993e-01 7.553621e-01 5.020919e-01 7.592447e-01 1.964421e+00 1.493109e+00 3.740112e-01 9.911464e-01 8.885129e-01 1.339117e+00 1.007982e+00 7.051160e-01 3.543704e-01 1.492656e-01 2.819951e-02 1.465546e-14 2.819951e-02 1.492656e-01 3.543704e-01 7.051160e-01 1.007982e+00 1.339117e+00 8.885129e-01 9.911464e-01 3.740112e-01 1.493109e+00 1.964421e+00 7.592447e-01 5.020919e-01 7.553621e-01 3.671993e-01 
3.671993e-01 4.810315e-01 6.215263e-01 3.588005e-01 1.364604e+00 1.782775e+00 2.199159e+00 2.516677e-01 9.876047e-01 7.239866e-01 1.002493e+00 8.143935e-01 6.252017e-01 4.026644e-01 2.082166e-01 7.922466e-02 2.819951e-02 7.922466e-02 2.082166e-01 4.026644e-01 6.252017e-01 8.143935e-01 1.002493e+00 7.239866e-01 9.876047e-01 2.516677e-01 2.199159e+00 1.782775e+00 1.364604e+00 3.588005e-01 6.215263e-01 4.810315e-01 
5.958130e-01 6.407643e-01 2.702262e-01 2.181529e-01 1.740828e+00 2.446982e+00 2.480021e+00 1.898254e+00 9.855371e-01 6.202254e-01 5.753953e-01 6.139906e-01 4.921172e-01 4.042137e-01 2.730020e-01 1.481058e-01 5.315991e-02 1.481058e-01 2.730020e-01 4.042137e-01 4.921172e-01 6.139906e-01 5.753953e-01 6.202254e-01 9.855371e-01 1.898254e+00 2.480021e+00 2.446982e+00 1.740828e+00 2.181529e-01 2.702262e-01 6.407643e-01 
7.068046e-01 6.418981e-01 1.334942e-01 2.714187e-01 1.488374e+00 3.300975e+00 7.759108e-01 2.920494e+00 1.089549e+00 6.460212e-01 1.463935e-01 7.181661e-01 7.039042e-01 5.245487e-01 2.587263e-01 3.265000e-02 1.157174e-01 3.265000e-02 2.587263e-01 5.245487e-01 7.039042e-01 7.181661e-01 1.463935e-01 6.460212e-01 1.089549e+00 2.920494e+00 7.759108e-01 3.300975e+00 1.488374e+00 2.714187e-01 1.334942e-01 6.418981e-01 
6.652668e-01 5.548168e-01 2.727825e-01 4.729776e-01 1.106693e+00 2.659192e+00 2.111509e+00 1.489474e+00 1.721671e+00 1.223988e+00 7.523846e-01 5.698569e-01 5.024662e-01 4.847427e-01 3.640850e-01 1.370911e-01 1.006001e-02 1.370911e-01 3.640850e-01 4.847427e-01 5.024662e-01 5.698569e-01 7.523846e-01 1.223988e+00 1.721671e+00 1.489474e+00 2.111509e+00 2.659192e+00 1.106693e+00 4.729776e-01 2.727825e-01 5.548168e-01 
5.219108e-01 4.170440e-01 3.251375e-01 5.937214e-01 9.733721e-01 1.776134e+00 2.231588e+00 6.553662e-01 1.173781e+00 1.233764e+00 1.399215e+00 1.656601e+00 1.410992e+00 1.059869e+00 6.111177e-01 2.971536e-01 2.587551e-01 2.971536e-01 6.111177e-01 1.059869e+00 1.410992e+00 1.656601e+00 1.399215e+00 1.233764e+00 1.173781e+00 6.553662e-01 2.231588e+00 1.776134e+00 9.733721e-01 5.937214e-01 3.251375e-01 4.170440e-01 
3.523234e-01 2.779239e-01 3.132421e-01 5.880797e-01 8.579549e-01 1.333405e+00 1.705548e+00 1.368896e+00 2.334759e-03 7.268904e-01 5.500265e-01 9.503578e-01 1.271610e+00 1.472199e+00 1.361626e+00 8.812335e-01 5.410566e-01 8.812335e-01 1.361626e+00 1.472199e+00 1.271610e+00 9.503578e-01 5.500265e-01 7.268904e-01 2.334759e-03 1.368896e+00 1.705548e+00 1.333405e+00 8.579549e-01 5.880797e-01 3.132421e-01 2.779239e-01 
1.874317e-01 1.668873e-01 2.774663e-01 5.159018e-01 7.099175e-01 1.006604e+00 1.291666e+00 1.405153e+00 9.532981e-01 3.576236e-01 6.662055e-01 6.024706e-01 5.287779e-01 6.691231e-01 8.839821e-01 9.201740e-01 8.730944e-01 9.201740e-01 8.839821e-01 6.691231e-01 5.287779e-01 6.024706e-01 6.662055e-01 3.576236e-01 9.532981e-01 1.405153e+00 1.291666e+00 1.006604e+00 7.099175e-01 5.159018e-01 2.774663e-01 1.668873e-01 
6.133046e-02 1.102924e-01 2.356746e-01 4.244292e-01 5.614703e-01 7.492237e-01 9.234145e-01 1.091608e+00 1.292516e+00 9.308061e-01 5.215227e-01 9.965809e-01 1.011309e+00 7.817450e-01 6.660492e-01 6.655872e-01 6.654589e-01 6.655872e-01 6.660492e-01 7.817450e-01 1.011309e+00 9.965809e-01 5.215227e-01 9.308061e-01 1.292516e+00 1.091608e+00 9.234145e-01 7.492237e-01 5.614703e-01 4.244292e-01 2.356746e-01 1.102924e-01 
2.911707e-02 1.119541e-01 2.049355e-01 3.444392e-01 4.443729e-01 5.717551e-01 6.803948e-01 7.326898e-01 8.335849e-01 9.823273e-01 9.471026e-01 5.071298e-01 3.386776e-01 9.131203e-01 1.202288e+00 1.032105e+00 8.669798e-01 1.032105e+00 1.202288e+00 9.131203e-01 3.386776e-01 5.071298e-01 9.471026e-01 9.823273e-01 8.335849e-01 7.326898e-01 6.803948e-01 5.717551e-01 4.443729e-01 3.444392e-01 2.049355e-01 1.119541e-01 
7.942520e-02 1.261023e-01 1.809670e-01 2.804112e-01 3.573380e-01 4.522674e-01 5.417797e-01 5.807542e-01 6.031352e-01 5.340270e-01 4.857105e-01 4.626474e-01 3.226242e-01 3.463923e-01 9.545484e-01 1.155429e+00 9.993127e-01 1.155429e+00 9.545484e-01 3.463923e-01 3.226242e-01 4.626474e-01 4.857105e-01 5.340270e-01 6.031352e-01 5.807542e-01 5.417797e-01 4.522674e-01 3.573380e-01 2.804112e-01 1.809670e-01 1.261023e-01 
1.023179e-01 1.304806e-01 1.626695e-01 2.317803e-01 2.930278e-01 3.667575e-01 4.428738e-01 4.901096e-01 5.262577e-01 5.141194e-01 4.629988e-01 3.193829e-01 1.396521e-01 1.335647e-01 8.088602e-01 1.481697e+00 1.611354e+00 1.481697e+00 8.088602e-01 1.335647e-01 1.396521e-01 3.193829e-01 4.629988e-01 5.141194e-01 5.262577e-01 4.901096e-01 4.428738e-01 3.667575e-01 2.930278e-01 2.317803e-01 1.626695e-01 1.304806e-01 
1.019321e-01 1.212342e-01 1.428237e-01 1.934435e-01 2.464225e-01 3.068526e-01 3.763818e-01 4.228435e-01 4.683444e-01 4.677890e-01 4.563229e-01 4.177287e-01 3.387682e-01 2.150341e-01 5.597816e-01 1.394816e+00 1.778054e+00 1.394816e+00 5.597816e-01 2.150341e-01 3.387682e-01 4.177287e-01 4.563229e-01 4.677890e-01 4.683444e-01 4.228435e-01 3.763818e-01 3.068526e-01 2.464225e-01 1.934435e-01 1.428237e-01 1.212342e-01 
8.816413e-02 1.024299e-01 1.222873e-01 1.629784e-01 2.140128e-01 2.690925e-01 3.398233e-01 3.968328e-01 4.645930e-01 5.062001e-01 5.497241e-01 5.459680e-01 5.154161e-01 4.550637e-01 6.688295e-01 1.304131e+00 1.735034e+00 1.304131e+00 6.688295e-01 4.550637e-01 5.154161e-01 5.459680e-01 5.497241e-01 5.062001e-01 4.645930e-01 3.968328e-01 3.398233e-01 2.690925e-01 2.140128e-01 1.629784e-01 1.222873e-01 1.024299e-01 
6.332187e-02 7.611980e-02 9.984448e-02 1.371382e-01 1.897263e-01 2.420564e-01 3.154618e-01 3.787936e-01 4.645571e-01 5.377878e-01 6.330675e-01 7.120078e-01 7.857495e-01 8.053659e-01 8.493836e-01 1.061108e+00 1.280811e+00 1.061108e+00 8.493836e-01 8.053659e-01 7.857495e-01 7.120078e-01 6.330675e-01 5.377878e-01 4.645571e-01 3.787936e-01 3.154618e-01 2.420564e-01 1.897263e-01 1.371382e-01 9.984448e-02 7.611980e-02 
3.335654e-02 4.868765e-02 8.138562e-02 1.188796e-01 1.745657e-01 2.261180e-01 3.019386e-01 3.698827e-01 4.666527e-01 5.590471e-01 6.850094e-01 8.008785e-01 9.213571e-01 9.735663e-01 9.430837e-01 8.117877e-01 6.881361e-01 8.117877e-01 9.430837e-01 9.735663e-01 9.213571e-01 8.008785e-01 6.850094e-01 5.590471e-01 4.666527e-01 3.698827e-01 3.019386e-01 2.261180e-01 1.745657e-01 1.188796e-01 8.138562e-02 4.868765e-02 
