# vtk DataFile Version 2.0
Comment goes here
ASCII

DATASET STRUCTURED_POINTS
FIELD FieldData 1
TIME 1 1 double
0.94000000
DIMENSIONS    32   32   1

ORIGIN    0.000   0.000   0.000
SPACING   0.03125 0.03125   1.000

POINT_DATA   1024
SCALARS uMag double
LOOKUP_TABLE default

1.215504e-14 1.404664e-02 4.366402e-02 9.851496e-02 1.913881e-01 3.234388e-01 4.975847e-01 7.046161e-01 9.272589e-01 1.145994e+00 1.326707e+00 1.450545e+00 1.474265e+00 1.375784e+00 1.103093e+00 6.330001e-01 4.317830e-14 6.330001e-01 1.103093e+00 1.375784e+00 1.474265e+00 1.450545e+00 1.326707e+00 1.145994e+00 9.272589e-01 7.046161e-01 4.975847e-01 3.234388e-01 1.913881e-01 9.851496e-02 4.366402e-02 1.404664e-02 
1.404664e-02 2.291700e-02 5.157911e-02 1.065604e-01 1.964287e-01 3.208648e-01 4.821550e-01 6.701258e-01 8.704962e-01 1.067007e+00 1.229132e+00 1.344709e+00 1.370495e+00 1.298960e+00 1.100184e+00 8.041965e-01 6.330001e-01 8.041965e-01 1.100184e+00 1.298960e+00 1.370495e+00 1.344709e+00 1.229132e+00 1.067007e+00 8.704962e-01 6.701258e-01 4.821550e-01 3.208648e-01 1.964287e-01 1.065604e-01 5.157911e-02 2.291700e-02 
1.393593e-02 3.195505e-02 7.022967e-02 1.331618e-01 2.224864e-01 3.355976e-01 4.717816e-01 6.154888e-01 7.581178e-01 8.832808e-01 9.741464e-01 1.025637e+00 1.018522e+00 9.918443e-01 1.012455e+00 1.110935e+00 1.170519e+00 1.110935e+00 1.012455e+00 9.918443e-01 1.018522e+00 1.025637e+00 9.741464e-01 8.832808e-01 7.581178e-01 6.154888e-01 4.717816e-01 3.355976e-01 2.224864e-01 1.331618e-01 7.022967e-02 3.195505e-02 
9.990419e-03 4.405944e-02 9.932239e-02 1.787425e-01 2.744744e-01 3.820978e-01 4.937933e-01 5.858285e-01 6.514361e-01 6.730501e-01 6.564402e-01 6.283864e-01 6.119988e-01 7.327373e-01 1.005043e+00 1.301168e+00 1.437246e+00 1.301168e+00 1.005043e+00 7.327373e-01 6.119988e-01 6.283864e-01 6.564402e-01 6.730501e-01 6.514361e-01 5.858285e-01 4.937933e-01 3.820978e-01 2.744744e-01 1.787425e-01 9.932239e-02 4.405944e-02 
6.931112e-02 8.597779e-02 1.427727e-01 2.357166e-01 3.400357e-01 4.506289e-01 5.527721e-01 6.192376e-01 6.436099e-01 5.939143e-01 4.879678e-01 3.139410e-01 2.111860e-01 5.009260e-01 1.042891e+00 1.477209e+00 1.607783e+00 1.477209e+00 1.042891e+00 5.009260e-01 2.111860e-01 3.139410e-01 4.879678e-01 5.939143e-01 6.436099e-01 6.192376e-01 5.527721e-01 4.506289e-01 3.400357e-01 2.357166e-01 1.427727e-01 8.597779e-02 
1.672237e-01 1.679684e-01 2.073971e-01 3.056155e-01 4.213517e-01 5.437724e-01 6.474382e-01 7.062781e-01 7.117873e-01 6.228899e-01 4.569780e-01 1.516161e-01 3.010061e-01 6.980099e-01 1.044880e+00 1.276953e+00 1.364036e+00 1.276953e+00 1.044880e+00 6.980099e-01 3.010061e-01 1.516161e-01 4.569780e-01 6.228899e-01 7.117873e-01 7.062781e-01 6.474382e-01 5.437724e-01 4.213517e-01 3.056155e-01 2.073971e-01 1.679684e-01 
3.047111e-01 2.881881e-01 2.961449e-01 3.798132e-01 4.960202e-01 6.236205e-01 7.203508e-01 7.681086e-01 7.649107e-01 6.774651e-01 5.430477e-01 2.236579e-01 5.218070e-01 1.143833e+00 1.613243e+00 1.460062e+00 1.243771e+00 1.460062e+00 1.613243e+00 1.143833e+00 5.218070e-01 2.236579e-01 5.430477e-01 6.774651e-01 7.649107e-01 7.681086e-01 7.203508e-01 6.236205e-01 4.960202e-01 3.798132e-01 2.961449e-01 2.881881e-01 
4.801073e-01 4.391663e-01 3.945849e-01 4.373675e-01 5.514952e-01 6.978815e-01 8.087517e-01 8.681061e-01 8.855502e-01 8.256376e-01 6.531445e-01 8.189515e-01 1.872131e+00 2.225694e+00 1.326462e+00 3.348052e-01 7.432212e-02 3.348052e-01 1.326462e+00 2.225694e+00 1.872131e+00 8.189515e-01 6.531445e-01 8.256376e-01 8.855502e-01 8.681061e-01 8.087517e-01 6.978815e-01 5.514952e-01 4.373675e-01 3.945849e-01 4.391663e-01 
6.725198e-01 6.056776e-01 5.043321e-01 4.874904e-01 5.880996e-01 7.506448e-01 8.561553e-01 8.868516e-01 8.453525e-01 7.561226e-01 4.571193e-01 1.414611e+00 1.379430e+00 4.284983e-01 1.261273e+00 7.993669e-01 5.777600e-01 7.993669e-01 1.261273e+00 4.284983e-01 1.379430e+00 1.414611e+00 4.571193e-01 7.561226e-01 8.453525e-01 8.868516e-01 8.561553e-01 7.506448e-01 5.880996e-01 4.874904e-01 5.043321e-01 6.056776e-01 
8.834952e-01 7.853242e-01 6.110712e-01 4.880319e-01 5.514715e-01 7.399537e-01 8.754111e-01 9.278554e-01 9.850819e-01 7.282613e-01 2.559168e-01 5.430470e-01 6.055833e-01 9.280039e-01 3.922038e-01 1.275461e+00 1.485243e+00 1.275461e+00 3.922038e-01 9.280039e-01 6.055833e-01 5.430470e-01 2.559168e-01 7.282613e-01 9.850819e-01 9.278554e-01 8.754111e-01 7.399537e-01 5.514715e-01 4.880319e-01 6.110712e-01 7.853242e-01 
1.061567e+00 9.344434e-01 6.962606e-01 4.677354e-01 5.086315e-01 7.696612e-01 9.670536e-01 9.856436e-01 1.127145e+00 8.222851e-01 3.783763e-01 3.105321e-01 3.136669e-01 1.040612e+00 1.305468e+00 8.278815e-01 1.104174e-01 8.278815e-01 1.305468e+00 1.040612e+00 3.136669e-01 3.105321e-01 3.783763e-01 8.222851e-01 1.127145e+00 9.856436e-01 9.670536e-01 7.696612e-01 5.086315e-01 4.677354e-01 6.962606e-01 9.344434e-01 
1.216678e+00 1.067448e+00 7.832250e-01 4.180369e-01 3.496323e-01 6.617607e-01 8.120523e-01 8.566594e-01 1.468101e+00 1.044629e+00 6.931162e-01 4.525347e-01 4.788492e-01 4.939297e-01 3.098191e-01 1.245436e-01 5.121260e-02 1.245436e-01 3.098191e-01 4.939297e-01 4.788492e-01 4.525347e-01 6.931162e-01 1.044629e+00 1.468101e+00 8.566594e-01 8.120523e-01 6.617607e-01 3.496323e-01 4.180369e-01 7.832250e-01 1.067448e+00 
1.265220e+00 1.109797e+00 8.199448e-01 3.510178e-01 1.322805e-01 6.238499e-01 8.112004e-01 1.292045e+00 2.024660e+00 2.763037e-01 9.500513e-01 5.509521e-02 3.369657e-01 4.203161e-01 3.045037e-01 1.305959e-01 5.302161e-03 1.305959e-01 3.045037e-01 4.203161e-01 3.369657e-01 5.509521e-02 9.500513e-01 2.763037e-01 2.024660e+00 1.292045e+00 8.112004e-01 6.238499e-01 1.322805e-01 3.510178e-01 8.199448e-01 1.109797e+00 
1.212515e+00 1.085931e+00 8.673532e-01 4.713289e-01 1.641259e-01 5.063939e-01 6.550944e-01 1.727624e+00 1.663227e+00 1.092340e+00 4.995018e-01 3.444011e-01 3.902822e-01 2.413889e-01 2.436894e-01 1.195732e-01 6.359514e-02 1.195732e-01 2.436894e-01 2.413889e-01 3.902822e-01 3.444011e-01 4.995018e-01 1.092340e+00 1.663227e+00 1.727624e+00 6.550944e-01 5.063939e-01 1.641259e-01 4.713289e-01 8.673532e-01 1.085931e+00 
9.805851e-01 9.409600e-01 9.100223e-01 8.170874e-01 6.638548e-01 7.070859e-01 7.728552e-01 1.982676e+00 1.101003e+00 1.059245e+00 1.190740e-01 3.752811e-01 2.778330e-01 1.976272e-01 2.183898e-01 1.069293e-01 9.455025e-02 1.069293e-01 2.183898e-01 1.976272e-01 2.778330e-01 3.752811e-01 1.190740e-01 1.059245e+00 1.101003e+00 1.982676e+00 7.728552e-01 7.070859e-01 6.638548e-01 8.170874e-01 9.100223e-01 9.409600e-01 
5.742100e-01 7.235330e-01 9.982571e-01 1.260211e+00 1.322308e+00 1.420154e+00 1.219866e+00 1.338703e+00 8.987364e-01 5.918865e-01 2.353458e-01 5.080731e-01 3.057655e-01 2.816530e-01 1.704245e-01 8.548480e-02 6.870576e-02 8.548480e-02 1.704245e-01 2.816530e-01 3.057655e-01 5.080731e-01 2.353458e-01 5.918865e-01 8.987364e-01 1.338703e+00 1.219866e+00 1.420154e+00 1.322308e+00 1.260211e+00 9.982571e-01 7.235330e-01 
3.882996e-14 5.742100e-01 1.064168e+00 1.497183e+00 1.699956e+00 1.790628e+00 1.340009e+00 4.142442e-01 9.413323e-01 1.417018e-01 1.020056e-02 6.123921e-01 3.490548e-01 3.341651e-01 1.424460e-01 6.870576e-02 2.744363e-14 6.870576e-02 1.424460e-01 3.341651e-01 3.490548e-01 6.123921e-01 1.020056e-02 1.417018e-01 9.413323e-01 4.142442e-01 1.340009e+00 1.790628e+00 1.699956e+00 1.497183e+00 1.064168e+00 5.742100e-01 
5.742100e-01 7.235330e-01 9.982571e-01 1.260211e+00 1.322308e+00 1.420154e+00 1.219866e+00 1.338703e+00 8.987364e-01 5.918865e-01 2.353458e-01 5.080731e-01 3.057655e-01 2.816530e-01 1.704245e-01 8.548480e-02 6.870576e-02 8.548480e-02 1.704245e-01 2.816530e-01 3.057655e-01 5.080731e-01 2.353458e-01 5.918865e-01 8.987364e-01 1.338703e+00 1.219866e+00 1.420154e+00 1.322308e+00 1.260211e+00 9.982571e-01 7.235330e-01 
9.805851e-01 9.409600e-01 9.100223e-01 8.170874e-01 6.638548e-01 7.070859e-01 7.728552e-01 1.982676e+00 1.101003e+00 1.059245e+00 1.190740e-01 3.752811e-01 2.778330e-01 1.976272e-01 2.183898e-01 1.069293e-01 9.455025e-02 1.069293e-01 2.183898e-01 1.976272e-01 2.778330e-01 3.752811e-01 1.190740e-01 1.059245e+00 1.101003e+00 1.982676e+00 7.728552e-01 7.070859e-01 6.638548e-01 8.170874e-01 9.100223e-01 9.409600e-01 
1.212515e+00 1.085931e+00 8.673532e-01 4.713289e-01 1.641259e-01 5.063939e-01 6.550944e-01 1.727624e+00 1.663227e+00 1.092340e+00 4.995018e-01 3.444011e-01 3.902822e-01 2.413889e-01 2.436894e-01 1.195732e-01 6.359514e-02 1.195732e-01 2.436894e-01 2.413889e-01 3.902822e-01 3.444011e-01 4.995018e-01 1.092340e+00 1.663227e+00 1.727624e+00 6.550944e-01 5.063939e-01 1.641259e-01 4.713289e-01 8.673532e-01 1.085931e+00 
1.265220e+00 1.109797e+00 8.199448e-01 3.510178e-01 1.322805e-01 6.238499e-01 8.112004e-01 1.292045e+00 2.024660e+00 2.763037e-01 9.500513e-01 5.509521e-02 3.369657e-01 4.203161e-01 3.045037e-01 1.305959e-01 5.302161e-03 1.305959e-01 3.045037e-01 4.203161e-01 3.369657e-01 5.509521e-02 9.500513e-01 2.763037e-01 2.024660e+00 1.292045e+00 8.112004e-01 6.238499e-01 1.322805e-01 3.510178e-01 8.199448e-01 1.109797e+00 
1.216678e+00 1.067448e+00 7.832250e-01 4.180369e-01 3.496323e-01 6.617607e-01 8.120523e-01 8.566594e-01 1.468101e+00 1.044629e+00 6.931162e-01 4.525347e-01 4.788492e-01 4.939297e-01 3.098191e-01 1.245436e-01 5.121260e-02 1.245436e-01 3.098191e-01 4.939297e-01 4.788492e-01 4.525347e-01 6.931162e-01 1.044629e+00 1.468101e+00 8.566594e-01 8.120523e-01 6.617607e-01 3.496323e-01 4.180369e-01 7.832250e-01 1.067448e+00 
1.061567e+00 9.344434e-01 6.962606e-01 4.677354e-01 5.086315e-01 7.696612e-01 9.670536e-01 9.856436e-01 1.127145e+00 8.222851e-01 3.783763e-01 3.105321e-01 3.136669e-01 1.040612e+00 1.305468e+00 8.278815e-01 1.104174e-01 8.278815e-01 1.305468e+00 1.040612e+00 3.136669e-01 3.105321e-01 3.783763e-01 8.222851e-01 1.127145e+00 9.856436e-01 9.670536e-01 7.696612e-01 5.086315e-01 4.677354e-01 6.962606e-01 9.344434e-01 
8.834952e-01 7.853242e-01 6.110712e-01 4.880319e-01 5.514715e-01 7.399537e-01 8.754111e-01 9.278554e-01 9.850819e-01 7.282613e-01 2.559168e-01 5.430470e-01 6.055833e-01 9.280039e-01 3.922038e-01 1.275461e+00 1.485243e+00 1.275461e+00 3.922038e-01 9.280039e-01 6.055833e-01 5.430470e-01 2.559168e-01 7.282613e-01 9.850819e-01 9.278554e-01 8.754111e-01 7.399537e-01 5.514715e-01 4.880319e-01 6.110712e-01 7.853242e-01 
6.725198e-01 6.056776e-01 5.043321e-01 4.874904e-01 5.880996e-01 7.506448e-01 8.561553e-01 8.868516e-01 8.453525e-01 7.561226e-01 4.571193e-01 1.414611e+00 1.379430e+00 4.284983e-01 1.261273e+00 7.993669e-01 5.777600e-01 7.993669e-01 1.261273e+00 4.284983e-01 1.379430e+00 1.414611e+00 4.571193e-01 7.561226e-01 8.453525e-01 8.868516e-01 8.561553e-01 7.506448e-01 5.880996e-01 4.874904e-01 5.043321e-01 6.056776e-01 
4.801073e-01 4.391663e-01 3.945849e-01 4.373675e-01 5.514952e-01 6.978815e-01 8.087517e-01 8.681061e-01 8.855502e-01 8.256376e-01 6.531445e-01 8.189515e-01 1.872131e+00 2.225694e+00 1.326462e+00 3.348052e-01 7.432212e-02 3.348052e-01 1.326462e+00 2.225694e+00 1.872131e+00 8.189515e-01 6.531445e-01 8.256376e-01 8.855502e-01 8.681061e-01 8.087517e-01 6.978815e-01 5.514952e-01 4.373675e-01 3.945849e-01 4.391663e-01 
3.047111e-01 2.881881e-01 2.961449e-01 3.798132e-01 4.960202e-01 6.236205e-01 7.203508e-01 7.681086e-01 7.649107e-01 6.774651e-01 5.430477e-01 2.236579e-01 5.218070e-01 1.143833e+00 1.613243e+00 1.460062e+00 1.243771e+00 1.460062e+00 1.613243e+00 1.143833e+00 5.218070e-01 2.236579e-01 5.430477e-01 6.774651e-01 7.649107e-01 7.681086e-01 7.203508e-01 6.236205e-01 4.960202e-01 3.798132e-01 2.961449e-01 2.881881e-01 
1.672237e-01 1.679684e-01 2.073971e-01 3.056155e-01 4.213517e-01 5.437724e-01 6.474382e-01 7.062781e-01 7.117873e-01 6.228899e-01 4.569780e-01 1.516161e-01 3.010061e-01 6.980099e-01 1.044880e+00 1.276953e+00 1.364036e+00 1.276953e+00 1.044880e+00 6.980099e-01 3.010061e-01 1.516161e-01 4.569780e-01 6.228899e-01 7.117873e-01 7.062781e-01 6.474382e-01 5.437724e-01 4.213517e-01 3.056155e-01 2.073971e-01 1.679684e-01 
6.931112e-02 8.597779e-02 1.427727e-01 2.357166e-01 3.400357e-01 4.506289e-01 5.527721e-01 6.192376e-01 6.436099e-01 5.939143e-01 4.879678e-01 3.139410e-01 2.111860e-01 5.009260e-01 1.042891e+00 1.477209e+00 1.607783e+00 1.477209e+00 1.042891e+00 5.009260e-01 2.111860e-01 3.139410e-01 4.879678e-01 5.939143e-01 6.436099e-01 6.192376e-01 5.527721e-01 4.506289e-01 3.400357e-01 2.357166e-01 1.427727e-01 8.597779e-02 
9.990419e-03 4.405944e-02 9.932239e-02 1.787425e-01 2.744744e-01 3.820978e-01 4.937933e-01 5.858285e-01 6.514361e-01 6.730501e-01 6.564402e-01 6.283864e-01 6.119988e-01 7.327373e-01 1.005043e+00 1.301168e+00 1.437246e+00 1.301168e+00 1.005043e+00 7.327373e-01 6.119988e-01 6.283864e-01 6.564402e-01 6.730501e-01 6.514361e-01 5.858285e-01 4.937933e-01 3.820978e-01 2.744744e-01 1.787425e-01 9.932239e-02 4.405944e-02 
1.393593e-02 3.195505e-02 7.022967e-02 1.331618e-01 2.224864e-01 3.355976e-01 4.717816e-01 6.154888e-01 7.581178e-01 8.832808e-01 9.741464e-01 1.025637e+00 1.018522e+00 9.918443e-01 1.012455e+00 1.110935e+00 1.170519e+00 1.110935e+00 1.012455e+00 9.918443e-01 1.018522e+00 1.025637e+00 9.741464e-01 8.832808e-01 7.581178e-01 6.154888e-01 4.717816e-01 3.355976e-01 2.224864e-01 1.331618e-01 7.022967e-02 3.195505e-02 
1.404664e-02 2.291700e-02 5.157911e-02 1.065604e-01 1.964287e-01 3.208648e-01 4.821550e-01 6.701258e-01 8.704962e-01 1.067007e+00 1.229132e+00 1.344709e+00 1.370495e+00 1.298960e+00 1.100184e+00 8.041965e-01 6.330001e-01 8.041965e-01 1.100184e+00 1.298960e+00 1.370495e+00 1.344709e+00 1.229132e+00 1.067007e+00 8.704962e-01 6.701258e-01 4.821550e-01 3.208648e-01 1.964287e-01 1.065604e-01 5.157911e-02 2.291700e-02 
