# vtk DataFile Version 2.0
Comment goes here
ASCII

DATASET STRUCTURED_POINTS
FIELD FieldData 1
TIME 1 1 double
0.18000000
DIMENSIONS    32   32   1

ORIGIN    0.000   0.000   0.000
SPACING   0.03125 0.03125   1.000

POINT_DATA   1024
SCALARS uMag double
LOOKUP_TABLE default

3.642635e-15 1.012879e-01 2.067436e-01 3.086405e-01 4.205829e-01 5.243577e-01 6.345804e-01 7.261186e-01 7.995982e-01 8.258301e-01 7.754398e-01 6.206758e-01 3.202010e-01 2.994145e-02 3.146412e-01 3.100631e-01 4.508675e-14 3.100631e-01 3.146412e-01 2.994145e-02 3.202010e-01 6.206758e-01 7.754398e-01 8.258301e-01 7.995982e-01 7.261186e-01 6.345804e-01 5.243577e-01 4.205829e-01 3.086405e-01 2.067436e-01 1.012879e-01 
1.012879e-01 1.441784e-01 2.299474e-01 3.248500e-01 4.322649e-01 5.344091e-01 6.434924e-01 7.380211e-01 8.148735e-01 8.599911e-01 8.353204e-01 7.585036e-01 5.694619e-01 3.834948e-01 1.538472e-01 1.893962e-01 3.100631e-01 1.893962e-01 1.538472e-01 3.834948e-01 5.694619e-01 7.585036e-01 8.353204e-01 8.599911e-01 8.148735e-01 7.380211e-01 6.434924e-01 5.344091e-01 4.322649e-01 3.248500e-01 2.299474e-01 1.441784e-01 
2.010143e-01 2.278594e-01 2.895917e-01 3.718831e-01 4.732004e-01 5.738638e-01 6.913927e-01 7.966304e-01 9.030017e-01 9.809104e-01 1.018839e+00 9.716470e-01 7.581056e-01 4.218030e-01 3.874080e-01 2.374223e-01 2.109138e-01 2.374223e-01 3.874080e-01 4.218030e-01 7.581056e-01 9.716470e-01 1.018839e+00 9.809104e-01 9.030017e-01 7.966304e-01 6.913927e-01 5.738638e-01 4.732004e-01 3.718831e-01 2.895917e-01 2.278594e-01 
2.992057e-01 3.211560e-01 3.668943e-01 4.392637e-01 5.330050e-01 6.325085e-01 7.567673e-01 8.734450e-01 1.004868e+00 1.130958e+00 1.272162e+00 1.444805e+00 1.513212e+00 1.681255e+00 1.832669e+00 1.357325e+00 7.675229e-01 1.357325e+00 1.832669e+00 1.681255e+00 1.513212e+00 1.444805e+00 1.272162e+00 1.130958e+00 1.004868e+00 8.734450e-01 7.567673e-01 6.325085e-01 5.330050e-01 4.392637e-01 3.668943e-01 3.211560e-01 
3.917939e-01 4.122910e-01 4.476732e-01 5.137006e-01 6.016834e-01 7.016992e-01 8.384996e-01 9.768807e-01 1.170295e+00 1.429988e+00 1.837760e+00 2.283234e+00 3.070436e+00 3.917538e+00 3.555968e+00 2.577922e+00 2.398236e+00 2.577922e+00 3.555968e+00 3.917538e+00 3.070436e+00 2.283234e+00 1.837760e+00 1.429988e+00 1.170295e+00 9.768807e-01 8.384996e-01 7.016992e-01 6.016834e-01 5.137006e-01 4.476732e-01 4.122910e-01 
4.772545e-01 4.991165e-01 5.276533e-01 5.934913e-01 6.792697e-01 7.850634e-01 9.389772e-01 1.097965e+00 1.361478e+00 1.790463e+00 2.243235e+00 2.404389e+00 3.028473e+00 2.295237e+00 2.580002e+00 3.221223e+00 2.865184e+00 3.221223e+00 2.580002e+00 2.295237e+00 3.028473e+00 2.404389e+00 2.243235e+00 1.790463e+00 1.361478e+00 1.097965e+00 9.389772e-01 7.850634e-01 6.792697e-01 5.934913e-01 5.276533e-01 4.991165e-01 
5.521532e-01 5.754585e-01 5.964157e-01 6.616312e-01 7.378832e-01 8.420667e-01 9.874793e-01 1.135210e+00 1.493865e+00 2.031376e+00 1.894738e+00 1.620945e+00 1.162889e+00 2.735679e+00 3.147195e+00 1.736538e+00 1.247363e+00 1.736538e+00 3.147195e+00 2.735679e+00 1.162889e+00 1.620945e+00 1.894738e+00 2.031376e+00 1.493865e+00 1.135210e+00 9.874793e-01 8.420667e-01 7.378832e-01 6.616312e-01 5.964157e-01 5.754585e-01 
6.103812e-01 6.358297e-01 6.475993e-01 7.123849e-01 7.731264e-01 8.704218e-01 1.001310e+00 1.166246e+00 1.816082e+00 1.963830e+00 1.097146e+00 7.817082e-01 1.054717e+00 2.189178e+00 2.665878e+00 2.638579e+00 2.764320e+00 2.638579e+00 2.665878e+00 2.189178e+00 1.054717e+00 7.817082e-01 1.097146e+00 1.963830e+00 1.816082e+00 1.166246e+00 1.001310e+00 8.704218e-01 7.731264e-01 7.123849e-01 6.475993e-01 6.358297e-01 
6.577557e-01 6.824003e-01 6.801835e-01 7.362900e-01 7.597042e-01 8.544148e-01 9.481806e-01 1.341206e+00 1.921604e+00 1.468005e+00 5.042812e-01 5.933809e-01 1.847227e+00 2.167698e+00 2.121173e+00 2.384739e+00 2.590757e+00 2.384739e+00 2.121173e+00 2.167698e+00 1.847227e+00 5.933809e-01 5.042812e-01 1.468005e+00 1.921604e+00 1.341206e+00 9.481806e-01 8.544148e-01 7.597042e-01 7.362900e-01 6.801835e-01 6.824003e-01 
6.858592e-01 7.060678e-01 6.784469e-01 7.108897e-01 6.833034e-01 7.920887e-01 8.765155e-01 1.518717e+00 1.690107e+00 1.464478e+00 7.791930e-01 1.221144e+00 1.950545e+00 1.378512e+00 1.938673e+00 2.635505e+00 3.016451e+00 2.635505e+00 1.938673e+00 1.378512e+00 1.950545e+00 1.221144e+00 7.791930e-01 1.464478e+00 1.690107e+00 1.518717e+00 8.765155e-01 7.920887e-01 6.833034e-01 7.108897e-01 6.784469e-01 7.060678e-01 
7.193759e-01 7.250811e-01 6.661394e-01 6.479413e-01 5.901375e-01 6.901096e-01 8.678602e-01 1.512406e+00 1.744020e+00 1.490713e+00 8.319392e-01 2.026070e+00 2.100159e+00 1.556074e+00 1.974518e+00 2.272170e+00 2.613215e+00 2.272170e+00 1.974518e+00 1.556074e+00 2.100159e+00 2.026070e+00 8.319392e-01 1.490713e+00 1.744020e+00 1.512406e+00 8.678602e-01 6.901096e-01 5.901375e-01 6.479413e-01 6.661394e-01 7.250811e-01 
7.620010e-01 7.451190e-01 6.357506e-01 5.400523e-01 4.785763e-01 5.697725e-01 8.492489e-01 1.261906e+00 1.803533e+00 1.715458e+00 1.321833e+00 2.657092e+00 2.126121e+00 1.711779e+00 1.735998e+00 1.765534e+00 2.012271e+00 1.765534e+00 1.735998e+00 1.711779e+00 2.126121e+00 2.657092e+00 1.321833e+00 1.715458e+00 1.803533e+00 1.261906e+00 8.492489e-01 5.697725e-01 4.785763e-01 5.400523e-01 6.357506e-01 7.451190e-01 
8.408409e-01 7.943527e-01 6.185935e-01 4.075647e-01 3.084943e-01 3.730376e-01 7.087098e-01 1.038923e+00 1.492668e+00 1.520598e+00 1.759253e+00 2.719028e+00 1.786756e+00 1.499112e+00 1.334090e+00 1.201468e+00 1.284314e+00 1.201468e+00 1.334090e+00 1.499112e+00 1.786756e+00 2.719028e+00 1.759253e+00 1.520598e+00 1.492668e+00 1.038923e+00 7.087098e-01 3.730376e-01 3.084943e-01 4.075647e-01 6.185935e-01 7.943527e-01 
9.351469e-01 8.562474e-01 5.896737e-01 2.978894e-01 1.943210e-01 2.888639e-01 6.698495e-01 1.054771e+00 1.396752e+00 1.539693e+00 2.138786e+00 2.375418e+00 1.333748e+00 1.153734e+00 9.159145e-01 7.579327e-01 7.597116e-01 7.579327e-01 9.159145e-01 1.153734e+00 1.333748e+00 2.375418e+00 2.138786e+00 1.539693e+00 1.396752e+00 1.054771e+00 6.698495e-01 2.888639e-01 1.943210e-01 2.978894e-01 5.896737e-01 8.562474e-01 
9.504828e-01 8.621507e-01 6.100845e-01 4.190606e-01 4.725884e-01 6.961247e-01 8.464448e-01 1.062781e+00 1.318071e+00 1.682090e+00 2.055189e+00 1.661187e+00 9.106903e-01 7.832999e-01 5.553909e-01 4.100670e-01 3.477079e-01 4.100670e-01 5.553909e-01 7.832999e-01 9.106903e-01 1.661187e+00 2.055189e+00 1.682090e+00 1.318071e+00 1.062781e+00 8.464448e-01 6.961247e-01 4.725884e-01 4.190606e-01 6.100845e-01 8.621507e-01 
7.238225e-01 7.819675e-01 9.233410e-01 1.040524e+00 1.103904e+00 1.072636e+00 8.657335e-01 1.064429e+00 1.373370e+00 1.546472e+00 1.581180e+00 9.499282e-01 5.159357e-01 4.059995e-01 2.680630e-01 1.939429e-01 1.237140e-01 1.939429e-01 2.680630e-01 4.059995e-01 5.159357e-01 9.499282e-01 1.581180e+00 1.546472e+00 1.373370e+00 1.064429e+00 8.657335e-01 1.072636e+00 1.103904e+00 1.040524e+00 9.233410e-01 7.819675e-01 
6.449273e-15 7.238225e-01 1.241964e+00 1.417852e+00 1.359252e+00 1.124139e+00 8.103233e-01 1.062781e+00 1.509357e+00 1.639709e+00 1.333539e+00 6.156995e-01 3.696176e-01 2.626530e-01 1.719145e-01 1.237140e-01 9.176868e-15 1.237140e-01 1.719145e-01 2.626530e-01 3.696176e-01 6.156995e-01 1.333539e+00 1.639709e+00 1.509357e+00 1.062781e+00 8.103233e-01 1.124139e+00 1.359252e+00 1.417852e+00 1.241964e+00 7.238225e-01 
7.238225e-01 7.819675e-01 9.233410e-01 1.040524e+00 1.103904e+00 1.072636e+00 8.657335e-01 1.064429e+00 1.373370e+00 1.546472e+00 1.581180e+00 9.499282e-01 5.159357e-01 4.059995e-01 2.680630e-01 1.939429e-01 1.237140e-01 1.939429e-01 2.680630e-01 4.059995e-01 5.159357e-01 9.499282e-01 1.581180e+00 1.546472e+00 1.373370e+00 1.064429e+00 8.657335e-01 1.072636e+00 1.103904e+00 1.040524e+00 9.233410e-01 7.819675e-01 
9.504828e-01 8.621507e-01 6.100845e-01 4.190606e-01 4.725884e-01 6.961247e-01 8.464448e-01 1.062781e+00 1.318071e+00 1.682090e+00 2.055189e+00 1.661187e+00 9.106903e-01 7.832999e-01 5.553909e-01 4.100670e-01 3.477079e-01 4.100670e-01 5.553909e-01 7.832999e-01 9.106903e-01 1.661187e+00 2.055189e+00 1.682090e+00 1.318071e+00 1.062781e+00 8.464448e-01 6.961247e-01 4.725884e-01 4.190606e-01 6.100845e-01 8.621507e-01 
9.351469e-01 8.562474e-01 5.896737e-01 2.978894e-01 1.943210e-01 2.888639e-01 6.698495e-01 1.054771e+00 1.396752e+00 1.539693e+00 2.138786e+00 2.375418e+00 1.333748e+00 1.153734e+00 9.159145e-01 7.579327e-01 7.597116e-01 7.579327e-01 9.159145e-01 1.153734e+00 1.333748e+00 2.375418e+00 2.138786e+00 1.539693e+00 1.396752e+00 1.054771e+00 6.698495e-01 2.888639e-01 1.943210e-01 2.978894e-01 5.896737e-01 8.562474e-01 
8.408409e-01 7.943527e-01 6.185935e-01 4.075647e-01 3.084943e-01 3.730376e-01 7.087098e-01 1.038923e+00 1.492668e+00 1.520598e+00 1.759253e+00 2.719028e+00 1.786756e+00 1.499112e+00 1.334090e+00 1.201468e+00 1.284314e+00 1.201468e+00 1.334090e+00 1.499112e+00 1.786756e+00 2.719028e+00 1.759253e+00 1.520598e+00 1.492668e+00 1.038923e+00 7.087098e-01 3.730376e-01 3.084943e-01 4.075647e-01 6.185935e-01 7.943527e-01 
7.620010e-01 7.451190e-01 6.357506e-01 5.400523e-01 4.785763e-01 5.697725e-01 8.492489e-01 1.261906e+00 1.803533e+00 1.715458e+00 1.321833e+00 2.657092e+00 2.126121e+00 1.711779e+00 1.735998e+00 1.765534e+00 2.012271e+00 1.765534e+00 1.735998e+00 1.711779e+00 2.126121e+00 2.657092e+00 1.321833e+00 1.715458e+00 1.803533e+00 1.261906e+00 8.492489e-01 5.697725e-01 4.785763e-01 5.400523e-01 6.357506e-01 7.451190e-01 
7.193759e-01 7.250811e-01 6.661394e-01 6.479413e-01 5.901375e-01 6.901096e-01 8.678602e-01 1.512406e+00 1.744020e+00 1.490713e+00 8.319392e-01 2.026070e+00 2.100159e+00 1.556074e+00 1.974518e+00 2.272170e+00 2.613215e+00 2.272170e+00 1.974518e+00 1.556074e+00 2.100159e+00 2.026070e+00 8.319392e-01 1.490713e+00 1.744020e+00 1.512406e+00 8.678602e-01 6.901096e-01 5.901375e-01 6.479413e-01 6.661394e-01 7.250811e-01 
6.858592e-01 7.060678e-01 6.784469e-01 7.108897e-01 6.833034e-01 7.920887e-01 8.765155e-01 1.518717e+00 1.690107e+00 1.464478e+00 7.791930e-01 1.221144e+00 1.950545e+00 1.378512e+00 1.938673e+00 2.635505e+00 3.016451e+00 2.635505e+00 1.938673e+00 1.378512e+00 1.950545e+00 1.221144e+00 7.791930e-01 1.464478e+00 1.690107e+00 1.518717e+00 8.765155e-01 7.920887e-01 6.833034e-01 7.108897e-01 6.784469e-01 7.060678e-01 
6.577557e-01 6.824003e-01 6.801835e-01 7.362900e-01 7.597042e-01 8.544148e-01 9.481806e-01 1.341206e+00 1.921604e+00 1.468005e+00 5.042812e-01 5.933809e-01 1.847227e+00 2.167698e+00 2.121173e+00 2.384739e+00 2.590757e+00 2.384739e+00 2.121173e+00 2.167698e+00 1.847227e+00 5.933809e-01 5.042812e-01 1.468005e+00 1.921604e+00 1.341206e+00 9.481806e-01 8.544148e-01 7.597042e-01 7.362900e-01 6.801835e-01 6.824003e-01 
6.103812e-01 6.358297e-01 6.475993e-01 7.123849e-01 7.731264e-01 8.704218e-01 1.001310e+00 1.166246e+00 1.816082e+00 1.963830e+00 1.097146e+00 7.817082e-01 1.054717e+00 2.189178e+00 2.665878e+00 2.638579e+00 2.764320e+00 2.638579e+00 2.665878e+00 2.189178e+00 1.054717e+00 7.817082e-01 1.097146e+00 1.963830e+00 1.816082e+00 1.166246e+00 1.001310e+00 8.704218e-01 7.731264e-01 7.123849e-01 6.475993e-01 6.358297e-01 
5.521532e-01 5.754585e-01 5.964157e-01 6.616312e-01 7.378832e-01 8.420667e-01 9.874793e-01 1.135210e+00 1.493865e+00 2.031376e+00 1.894738e+00 1.620945e+00 1.162889e+00 2.735679e+00 3.147195e+00 1.736538e+00 1.247363e+00 1.736538e+00 3.147195e+00 2.735679e+00 1.162889e+00 1.620945e+00 1.894738e+00 2.031376e+00 1.493865e+00 1.135210e+00 9.874793e-01 8.420667e-01 7.378832e-01 6.616312e-01 5.964157e-01 5.754585e-01 
4.772545e-01 4.991165e-01 5.276533e-01 5.934913e-01 6.792697e-01 7.850634e-01 9.389772e-01 1.097965e+00 1.361478e+00 1.790463e+00 2.243235e+00 2.404389e+00 3.028473e+00 2.295237e+00 2.580002e+00 3.221223e+00 2.865184e+00 3.221223e+00 2.580002e+00 2.295237e+00 3.028473e+00 2.404389e+00 2.243235e+00 1.790463e+00 1.361478e+00 1.097965e+00 9.389772e-01 7.850634e-01 6.792697e-01 5.934913e-01 5.276533e-01 4.991165e-01 
3.917939e-01 4.122910e-01 4.476732e-01 5.137006e-01 6.016834e-01 7.016992e-01 8.384996e-01 9.768807e-01 1.170295e+00 1.429988e+00 1.837760e+00 2.283234e+00 3.070436e+00 3.917538e+00 3.555968e+00 2.577922e+00 2.398236e+00 2.577922e+00 3.555968e+00 3.917538e+00 3.070436e+00 2.283234e+00 1.837760e+00 1.429988e+00 1.170295e+00 9.768807e-01 8.384996e-01 7.016992e-01 6.016834e-01 5.137006e-01 4.476732e-01 4.122910e-01 
2.992057e-01 3.211560e-01 3.668943e-01 4.392637e-01 5.330050e-01 6.325085e-01 7.567673e-01 8.734450e-01 1.004868e+00 1.130958e+00 1.272162e+00 1.444805e+00 1.513212e+00 1.681255e+00 1.832669e+00 1.357325e+00 7.675229e-01 1.357325e+00 1.832669e+00 1.681255e+00 1.513212e+00 1.444805e+00 1.272162e+00 1.130958e+00 1.004868e+00 8.734450e-01 7.567673e-01 6.325085e-01 5.330050e-01 4.392637e-01 3.668943e-01 3.211560e-01 
2.010143e-01 2.278594e-01 2.895917e-01 3.718831e-01 4.732004e-01 5.738638e-01 6.913927e-01 7.966304e-01 9.030017e-01 9.809104e-01 1.018839e+00 9.716470e-01 7.581056e-01 4.218030e-01 3.874080e-01 2.374223e-01 2.109138e-01 2.374223e-01 3.874080e-01 4.218030e-01 7.581056e-01 9.716470e-01 1.018839e+00 9.809104e-01 9.030017e-01 7.966304e-01 6.913927e-01 5.738638e-01 4.732004e-01 3.718831e-01 2.895917e-01 2.278594e-01 
1.012879e-01 1.441784e-01 2.299474e-01 3.248500e-01 4.322649e-01 5.344091e-01 6.434924e-01 7.380211e-01 8.148735e-01 8.599911e-01 8.353204e-01 7.585036e-01 5.694619e-01 3.834948e-01 1.538472e-01 1.893962e-01 3.100631e-01 1.893962e-01 1.538472e-01 3.834948e-01 5.694619e-01 7.585036e-01 8.353204e-01 8.599911e-01 8.148735e-01 7.380211e-01 6.434924e-01 5.344091e-01 4.322649e-01 3.248500e-01 2.299474e-01 1.441784e-01 
