# vtk DataFile Version 2.0
Comment goes here
ASCII

DATASET STRUCTURED_POINTS
FIELD FieldData 1
TIME 1 1 double
0.74000000
DIMENSIONS    32   32   1

ORIGIN    0.000   0.000   0.000
SPACING   0.03125 0.03125   1.000

POINT_DATA   1024
SCALARS uMag double
LOOKUP_TABLE default

3.933180e-15 2.288830e-02 5.485236e-02 1.081524e-01 1.851643e-01 2.941217e-01 4.389405e-01 6.116998e-01 8.237664e-01 1.027390e+00 1.242793e+00 1.374043e+00 1.461259e+00 1.379165e+00 1.170943e+00 7.056179e-01 3.398964e-14 7.056179e-01 1.170943e+00 1.379165e+00 1.461259e+00 1.374043e+00 1.242793e+00 1.027390e+00 8.237664e-01 6.116998e-01 4.389405e-01 2.941217e-01 1.851643e-01 1.081524e-01 5.485236e-02 2.288830e-02 
2.288830e-02 3.281217e-02 6.191203e-02 1.142688e-01 1.890480e-01 2.954374e-01 4.301269e-01 5.906332e-01 7.784270e-01 9.564317e-01 1.139867e+00 1.248475e+00 1.325494e+00 1.266241e+00 1.134864e+00 8.809342e-01 7.056179e-01 8.809342e-01 1.134864e+00 1.266241e+00 1.325494e+00 1.248475e+00 1.139867e+00 9.564317e-01 7.784270e-01 5.906332e-01 4.301269e-01 2.954374e-01 1.890480e-01 1.142688e-01 6.191203e-02 3.281217e-02 
3.602462e-02 4.516697e-02 7.835801e-02 1.333935e-01 2.095443e-01 3.142427e-01 4.339352e-01 5.732990e-01 7.160996e-01 8.418487e-01 9.643864e-01 1.023634e+00 1.093932e+00 1.075267e+00 1.107022e+00 1.219728e+00 1.316462e+00 1.219728e+00 1.107022e+00 1.075267e+00 1.093932e+00 1.023634e+00 9.643864e-01 8.418487e-01 7.160996e-01 5.732990e-01 4.339352e-01 3.142427e-01 2.095443e-01 1.333935e-01 7.835801e-02 4.516697e-02 
3.277748e-02 4.989164e-02 9.903824e-02 1.638959e-01 2.468329e-01 3.516565e-01 4.545741e-01 5.723804e-01 6.570224e-01 7.184058e-01 7.340174e-01 6.876048e-01 6.710704e-01 6.982030e-01 1.012837e+00 1.549570e+00 1.824971e+00 1.549570e+00 1.012837e+00 6.982030e-01 6.710704e-01 6.876048e-01 7.340174e-01 7.184058e-01 6.570224e-01 5.723804e-01 4.545741e-01 3.516565e-01 2.468329e-01 1.638959e-01 9.903824e-02 4.989164e-02 
2.845937e-03 5.124157e-02 1.225407e-01 1.993099e-01 2.945002e-01 3.989431e-01 4.901911e-01 5.905366e-01 6.266882e-01 6.369857e-01 5.596575e-01 4.259418e-01 3.703406e-01 4.472586e-01 9.461150e-01 1.672490e+00 1.957959e+00 1.672490e+00 9.461150e-01 4.472586e-01 3.703406e-01 4.259418e-01 5.596575e-01 6.369857e-01 6.266882e-01 5.905366e-01 4.901911e-01 3.989431e-01 2.945002e-01 1.993099e-01 1.225407e-01 5.124157e-02 
5.896714e-02 8.504531e-02 1.585712e-01 2.488446e-01 3.649817e-01 4.738781e-01 5.614164e-01 6.521791e-01 6.509239e-01 6.407041e-01 4.998735e-01 3.160287e-01 2.729895e-02 4.373928e-01 1.098947e+00 1.815677e+00 1.938740e+00 1.815677e+00 1.098947e+00 4.373928e-01 2.729895e-02 3.160287e-01 4.998735e-01 6.407041e-01 6.509239e-01 6.521791e-01 5.614164e-01 4.738781e-01 3.649817e-01 2.488446e-01 1.585712e-01 8.504531e-02 
1.563598e-01 1.658359e-01 2.114461e-01 3.042081e-01 4.425629e-01 5.544999e-01 6.434643e-01 7.268993e-01 6.871630e-01 6.382202e-01 3.723744e-01 7.145937e-02 2.612541e-01 5.486781e-01 1.095158e+00 1.508304e+00 1.360707e+00 1.508304e+00 1.095158e+00 5.486781e-01 2.612541e-01 7.145937e-02 3.723744e-01 6.382202e-01 6.871630e-01 7.268993e-01 6.434643e-01 5.544999e-01 4.425629e-01 3.042081e-01 2.114461e-01 1.658359e-01 
2.937191e-01 2.816975e-01 2.696470e-01 3.540340e-01 5.293139e-01 6.603509e-01 7.709910e-01 8.573727e-01 7.854777e-01 7.764467e-01 6.150454e-01 2.967143e-01 3.744740e-01 1.228115e+00 1.619197e+00 1.506719e+00 1.124129e+00 1.506719e+00 1.619197e+00 1.228115e+00 3.744740e-01 2.967143e-01 6.150454e-01 7.764467e-01 7.854777e-01 8.573727e-01 7.709910e-01 6.603509e-01 5.293139e-01 3.540340e-01 2.696470e-01 2.816975e-01 
4.532025e-01 4.218537e-01 3.380301e-01 3.974981e-01 6.112103e-01 7.677535e-01 9.246196e-01 1.071936e+00 1.070917e+00 1.053374e+00 1.320402e-01 9.226679e-01 1.622016e+00 1.302517e+00 7.746195e-01 5.647906e-01 4.294773e-01 5.647906e-01 7.746195e-01 1.302517e+00 1.622016e+00 9.226679e-01 1.320402e-01 1.053374e+00 1.070917e+00 1.071936e+00 9.246196e-01 7.677535e-01 6.112103e-01 3.974981e-01 3.380301e-01 4.218537e-01 
6.438565e-01 5.824543e-01 3.938218e-01 3.994472e-01 6.782891e-01 8.983827e-01 1.176639e+00 1.369123e+00 1.203215e+00 4.244816e-01 8.378368e-01 7.854496e-01 4.761320e-01 7.424730e-01 8.199591e-01 9.861303e-01 9.770780e-01 9.861303e-01 8.199591e-01 7.424730e-01 4.761320e-01 7.854496e-01 8.378368e-01 4.244816e-01 1.203215e+00 1.369123e+00 1.176639e+00 8.983827e-01 6.782891e-01 3.994472e-01 3.938218e-01 5.824543e-01 
8.143324e-01 7.259470e-01 4.453491e-01 3.959648e-01 7.273257e-01 9.782675e-01 1.356437e+00 1.689711e+00 1.286997e+00 1.325202e-01 4.531940e-01 1.718199e-01 6.739837e-01 1.111493e+00 1.351319e+00 1.099857e+00 8.255182e-01 1.099857e+00 1.351319e+00 1.111493e+00 6.739837e-01 1.718199e-01 4.531940e-01 1.325202e-01 1.286997e+00 1.689711e+00 1.356437e+00 9.782675e-01 7.273257e-01 3.959648e-01 4.453491e-01 7.259470e-01 
9.940279e-01 8.705083e-01 4.879570e-01 2.995445e-01 6.846958e-01 1.027568e+00 1.788450e+00 2.428063e+00 7.707157e-01 1.070949e+00 8.691513e-01 1.415342e+00 1.630625e+00 1.223474e+00 8.166041e-01 3.293468e-01 8.262006e-02 3.293468e-01 8.166041e-01 1.223474e+00 1.630625e+00 1.415342e+00 8.691513e-01 1.070949e+00 7.707157e-01 2.428063e+00 1.788450e+00 1.027568e+00 6.846958e-01 2.995445e-01 4.879570e-01 8.705083e-01 
1.067971e+00 9.160884e-01 4.999631e-01 1.976405e-01 6.666460e-01 1.094597e+00 2.438697e+00 2.338174e+00 1.367116e+00 1.661808e+00 1.134384e+00 9.311548e-01 4.933295e-01 3.950912e-01 4.432657e-01 2.912991e-01 1.950520e-01 2.912991e-01 4.432657e-01 3.950912e-01 4.933295e-01 9.311548e-01 1.134384e+00 1.661808e+00 1.367116e+00 2.338174e+00 2.438697e+00 1.094597e+00 6.666460e-01 1.976405e-01 4.999631e-01 9.160884e-01 
1.091505e+00 9.394220e-01 6.207489e-01 1.582794e-01 4.263589e-01 1.188134e+00 3.193282e+00 1.191179e+00 2.590572e+00 8.938357e-01 6.566214e-01 3.586479e-01 5.885819e-01 4.985487e-01 3.477218e-01 1.236178e-01 3.377106e-02 1.236178e-01 3.477218e-01 4.985487e-01 5.885819e-01 3.586479e-01 6.566214e-01 8.938357e-01 2.590572e+00 1.191179e+00 3.193282e+00 1.188134e+00 4.263589e-01 1.582794e-01 6.207489e-01 9.394220e-01 
8.778703e-01 7.680269e-01 7.055904e-01 5.373865e-01 5.943953e-01 1.481972e+00 2.584011e+00 1.752961e+00 1.761686e+00 6.143699e-01 5.065321e-01 4.552374e-01 4.442688e-01 3.267135e-01 2.757384e-01 1.690844e-01 1.384887e-01 1.690844e-01 2.757384e-01 3.267135e-01 4.442688e-01 4.552374e-01 5.065321e-01 6.143699e-01 1.761686e+00 1.752961e+00 2.584011e+00 1.481972e+00 5.943953e-01 5.373865e-01 7.055904e-01 7.680269e-01 
5.291298e-01 6.173804e-01 7.879931e-01 9.380849e-01 7.374245e-01 1.331460e+00 1.542015e+00 1.879843e+00 3.310886e-01 7.240534e-01 5.733536e-01 6.813894e-01 5.256464e-01 3.973097e-01 2.335600e-01 1.088842e-01 6.349577e-02 1.088842e-01 2.335600e-01 3.973097e-01 5.256464e-01 6.813894e-01 5.733536e-01 7.240534e-01 3.310886e-01 1.879843e+00 1.542015e+00 1.331460e+00 7.374245e-01 9.380849e-01 7.879931e-01 6.173804e-01 
2.787744e-14 5.291298e-01 8.683191e-01 1.192859e+00 9.825498e-01 1.262289e+00 1.183245e+00 1.443557e+00 1.649765e-01 8.299733e-01 7.304975e-01 9.020561e-01 5.705158e-01 3.871106e-01 1.680593e-01 6.349577e-02 2.995472e-14 6.349577e-02 1.680593e-01 3.871106e-01 5.705158e-01 9.020561e-01 7.304975e-01 8.299733e-01 1.649765e-01 1.443557e+00 1.183245e+00 1.262289e+00 9.825498e-01 1.192859e+00 8.683191e-01 5.291298e-01 
5.291298e-01 6.173804e-01 7.879931e-01 9.380849e-01 7.374245e-01 1.331460e+00 1.542015e+00 1.879843e+00 3.310886e-01 7.240534e-01 5.733536e-01 6.813894e-01 5.256464e-01 3.973097e-01 2.335600e-01 1.088842e-01 6.349577e-02 1.088842e-01 2.335600e-01 3.973097e-01 5.256464e-01 6.813894e-01 5.733536e-01 7.240534e-01 3.310886e-01 1.879843e+00 1.542015e+00 1.331460e+00 7.374245e-01 9.380849e-01 7.879931e-01 6.173804e-01 
8.778703e-01 7.680269e-01 7.055904e-01 5.373865e-01 5.943953e-01 1.481972e+00 2.584011e+00 1.752961e+00 1.761686e+00 6.143699e-01 5.065321e-01 4.552374e-01 4.442688e-01 3.267135e-01 2.757384e-01 1.690844e-01 1.384887e-01 1.690844e-01 2.757384e-01 3.267135e-01 4.442688e-01 4.552374e-01 5.065321e-01 6.143699e-01 1.761686e+00 1.752961e+00 2.584011e+00 1.481972e+00 5.943953e-01 5.373865e-01 7.055904e-01 7.680269e-01 
1.091505e+00 9.394220e-01 6.207489e-01 1.582794e-01 4.263589e-01 1.188134e+00 3.193282e+00 1.191179e+00 2.590572e+00 8.938357e-01 6.566214e-01 3.586479e-01 5.885819e-01 4.985487e-01 3.477218e-01 1.236178e-01 3.377106e-02 1.236178e-01 3.477218e-01 4.985487e-01 5.885819e-01 3.586479e-01 6.566214e-01 8.938357e-01 2.590572e+00 1.191179e+00 3.193282e+00 1.188134e+00 4.263589e-01 1.582794e-01 6.207489e-01 9.394220e-01 
1.067971e+00 9.160884e-01 4.999631e-01 1.976405e-01 6.666460e-01 1.094597e+00 2.438697e+00 2.338174e+00 1.367116e+00 1.661808e+00 1.134384e+00 9.311548e-01 4.933295e-01 3.950912e-01 4.432657e-01 2.912991e-01 1.950520e-01 2.912991e-01 4.432657e-01 3.950912e-01 4.933295e-01 9.311548e-01 1.134384e+00 1.661808e+00 1.367116e+00 2.338174e+00 2.438697e+00 1.094597e+00 6.666460e-01 1.976405e-01 4.999631e-01 9.160884e-01 
9.940279e-01 8.705083e-01 4.879570e-01 2.995445e-01 6.846958e-01 1.027568e+00 1.788450e+00 2.428063e+00 7.707157e-01 1.070949e+00 8.691513e-01 1.415342e+00 1.630625e+00 1.223474e+00 8.166041e-01 3.293468e-01 8.262006e-02 3.293468e-01 8.166041e-01 1.223474e+00 1.630625e+00 1.415342e+00 8.691513e-01 1.070949e+00 7.707157e-01 2.428063e+00 1.788450e+00 1.027568e+00 6.846958e-01 2.995445e-01 4.879570e-01 8.705083e-01 
8.143324e-01 7.259470e-01 4.453491e-01 3.959648e-01 7.273257e-01 9.782675e-01 1.356437e+00 1.689711e+00 1.286997e+00 1.325202e-01 4.531940e-01 1.718199e-01 6.739837e-01 1.111493e+00 1.351319e+00 1.099857e+00 8.255182e-01 1.099857e+00 1.351319e+00 1.111493e+00 6.739837e-01 1.718199e-01 4.531940e-01 1.325202e-01 1.286997e+00 1.689711e+00 1.356437e+00 9.782675e-01 7.273257e-01 3.959648e-01 4.453491e-01 7.259470e-01 
6.438565e-01 5.824543e-01 3.938218e-01 3.994472e-01 6.782891e-01 8.983827e-01 1.176639e+00 1.369123e+00 1.203215e+00 4.244816e-01 8.378368e-01 7.854496e-01 4.761320e-01 7.424730e-01 8.199591e-01 9.861303e-01 9.770780e-01 9.861303e-01 8.199591e-01 7.424730e-01 4.761320e-01 7.854496e-01 8.378368e-01 4.244816e-01 1.203215e+00 1.369123e+00 1.176639e+00 8.983827e-01 6.782891e-01 3.994472e-01 3.938218e-01 5.824543e-01 
4.532025e-01 4.218537e-01 3.380301e-01 3.974981e-01 6.112103e-01 7.677535e-01 9.246196e-01 1.071936e+00 1.070917e+00 1.053374e+00 1.320402e-01 9.226679e-01 1.622016e+00 1.302517e+00 7.746195e-01 5.647906e-01 4.294773e-01 5.647906e-01 7.746195e-01 1.302517e+00 1.622016e+00 9.226679e-01 1.320402e-01 1.053374e+00 1.070917e+00 1.071936e+00 9.246196e-01 7.677535e-01 6.112103e-01 3.974981e-01 3.380301e-01 4.218537e-01 
2.937191e-01 2.816975e-01 2.696470e-01 3.540340e-01 5.293139e-01 6.603509e-01 7.709910e-01 8.573727e-01 7.854777e-01 7.764467e-01 6.150454e-01 2.967143e-01 3.744740e-01 1.228115e+00 1.619197e+00 1.506719e+00 1.124129e+00 1.506719e+00 1.619197e+00 1.228115e+00 3.744740e-01 2.967143e-01 6.150454e-01 7.764467e-01 7.854777e-01 8.573727e-01 7.709910e-01 6.603509e-01 5.293139e-01 3.540340e-01 2.696470e-01 2.816975e-01 
1.563598e-01 1.658359e-01 2.114461e-01 3.042081e-01 4.425629e-01 5.544999e-01 6.434643e-01 7.268993e-01 6.871630e-01 6.382202e-01 3.723744e-01 7.145937e-02 2.612541e-01 5.486781e-01 1.095158e+00 1.508304e+00 1.360707e+00 1.508304e+00 1.095158e+00 5.486781e-01 2.612541e-01 7.145937e-02 3.723744e-01 6.382202e-01 6.871630e-01 7.268993e-01 6.434643e-01 5.544999e-01 4.425629e-01 3.042081e-01 2.114461e-01 1.658359e-01 
5.896714e-02 8.504531e-02 1.585712e-01 2.488446e-01 3.649817e-01 4.738781e-01 5.614164e-01 6.521791e-01 6.509239e-01 6.407041e-01 4.998735e-01 3.160287e-01 2.729895e-02 4.373928e-01 1.098947e+00 1.815677e+00 1.938740e+00 1.815677e+00 1.098947e+00 4.373928e-01 2.729895e-02 3.160287e-01 4.998735e-01 6.407041e-01 6.509239e-01 6.521791e-01 5.614164e-01 4.738781e-01 3.649817e-01 2.488446e-01 1.585712e-01 8.504531e-02 
2.845937e-03 5.124157e-02 1.225407e-01 1.993099e-01 2.945002e-01 3.989431e-01 4.901911e-01 5.905366e-01 6.266882e-01 6.369857e-01 5.596575e-01 4.259418e-01 3.703406e-01 4.472586e-01 9.461150e-01 1.672490e+00 1.957959e+00 1.672490e+00 9.461150e-01 4.472586e-01 3.703406e-01 4.259418e-01 5.596575e-01 6.369857e-01 6.266882e-01 5.905366e-01 4.901911e-01 3.989431e-01 2.945002e-01 1.993099e-01 1.225407e-01 5.124157e-02 
3.277748e-02 4.989164e-02 9.903824e-02 1.638959e-01 2.468329e-01 3.516565e-01 4.545741e-01 5.723804e-01 6.570224e-01 7.184058e-01 7.340174e-01 6.876048e-01 6.710704e-01 6.982030e-01 1.012837e+00 1.549570e+00 1.824971e+00 1.549570e+00 1.012837e+00 6.982030e-01 6.710704e-01 6.876048e-01 7.340174e-01 7.184058e-01 6.570224e-01 5.723804e-01 4.545741e-01 3.516565e-01 2.468329e-01 1.638959e-01 9.903824e-02 4.989164e-02 
3.602462e-02 4.516697e-02 7.835801e-02 1.333935e-01 2.095443e-01 3.142427e-01 4.339352e-01 5.732990e-01 7.160996e-01 8.418487e-01 9.643864e-01 1.023634e+00 1.093932e+00 1.075267e+00 1.107022e+00 1.219728e+00 1.316462e+00 1.219728e+00 1.107022e+00 1.075267e+00 1.093932e+00 1.023634e+00 9.643864e-01 8.418487e-01 7.160996e-01 5.732990e-01 4.339352e-01 3.142427e-01 2.095443e-01 1.333935e-01 7.835801e-02 4.516697e-02 
2.288830e-02 3.281217e-02 6.191203e-02 1.142688e-01 1.890480e-01 2.954374e-01 4.301269e-01 5.906332e-01 7.784270e-01 9.564317e-01 1.139867e+00 1.248475e+00 1.325494e+00 1.266241e+00 1.134864e+00 8.809342e-01 7.056179e-01 8.809342e-01 1.134864e+00 1.266241e+00 1.325494e+00 1.248475e+00 1.139867e+00 9.564317e-01 7.784270e-01 5.906332e-01 4.301269e-01 2.954374e-01 1.890480e-01 1.142688e-01 6.191203e-02 3.281217e-02 
