# vtk DataFile Version 2.0
Comment goes here
ASCII

DATASET STRUCTURED_POINTS
FIELD FieldData 1
TIME 1 1 double
1.06000000
DIMENSIONS    32   32   1

ORIGIN    0.000   0.000   0.000
SPACING   0.03125 0.03125   1.000

POINT_DATA   1024
SCALARS uMag double
LOOKUP_TABLE default

3.557033e-14 1.781997e-02 5.655384e-02 1.159755e-01 2.262181e-01 3.637611e-01 5.573676e-01 7.650964e-01 1.000831e+00 1.213629e+00 1.396146e+00 1.504185e+00 1.513973e+00 1.396734e+00 1.120656e+00 6.555363e-01 1.416021e-13 6.555363e-01 1.120656e+00 1.396734e+00 1.513973e+00 1.504185e+00 1.396146e+00 1.213629e+00 1.000831e+00 7.650964e-01 5.573676e-01 3.637611e-01 2.262181e-01 1.159755e-01 5.655384e-02 1.781997e-02 
1.781997e-02 3.049450e-02 6.590513e-02 1.286094e-01 2.350459e-01 3.669725e-01 5.482271e-01 7.372411e-01 9.512064e-01 1.136551e+00 1.296731e+00 1.385114e+00 1.394372e+00 1.300665e+00 1.103189e+00 8.292492e-01 6.555363e-01 8.292492e-01 1.103189e+00 1.300665e+00 1.394372e+00 1.385114e+00 1.296731e+00 1.136551e+00 9.512064e-01 7.372411e-01 5.482271e-01 3.669725e-01 2.350459e-01 1.286094e-01 6.590513e-02 3.049450e-02 
2.283248e-02 4.523762e-02 8.525802e-02 1.592227e-01 2.581181e-01 3.794382e-01 5.298085e-01 6.760862e-01 8.341026e-01 9.590326e-01 1.063954e+00 1.123336e+00 1.137724e+00 1.121933e+00 1.109500e+00 1.162889e+00 1.222599e+00 1.162889e+00 1.109500e+00 1.121933e+00 1.137724e+00 1.123336e+00 1.063954e+00 9.590326e-01 8.341026e-01 6.760862e-01 5.298085e-01 3.794382e-01 2.581181e-01 1.592227e-01 8.525802e-02 4.523762e-02 
3.306674e-03 5.056222e-02 1.088233e-01 2.058536e-01 3.090563e-01 4.304778e-01 5.536619e-01 6.528883e-01 7.402376e-01 7.698282e-01 7.822393e-01 7.567756e-01 7.440150e-01 8.169885e-01 1.079579e+00 1.480028e+00 1.699812e+00 1.480028e+00 1.079579e+00 8.169885e-01 7.440150e-01 7.567756e-01 7.822393e-01 7.698282e-01 7.402376e-01 6.528883e-01 5.536619e-01 4.304778e-01 3.090563e-01 2.058536e-01 1.088233e-01 5.056222e-02 
5.913270e-02 8.147297e-02 1.509094e-01 2.700234e-01 3.821228e-01 5.122438e-01 6.162948e-01 6.848041e-01 7.096174e-01 6.517960e-01 5.555349e-01 4.362027e-01 4.168563e-01 6.295433e-01 1.067370e+00 1.622932e+00 1.895098e+00 1.622932e+00 1.067370e+00 6.295433e-01 4.168563e-01 4.362027e-01 5.555349e-01 6.517960e-01 7.096174e-01 6.848041e-01 6.162948e-01 5.122438e-01 3.821228e-01 2.700234e-01 1.509094e-01 8.147297e-02 
1.641532e-01 1.560597e-01 2.027969e-01 3.286541e-01 4.549608e-01 6.049711e-01 7.086466e-01 7.715534e-01 7.746809e-01 6.677657e-01 5.196762e-01 2.513106e-01 1.638269e-01 5.255197e-01 1.122663e+00 1.757123e+00 2.016017e+00 1.757123e+00 1.122663e+00 5.255197e-01 1.638269e-01 2.513106e-01 5.196762e-01 6.677657e-01 7.746809e-01 7.715534e-01 7.086466e-01 6.049711e-01 4.549608e-01 3.286541e-01 2.027969e-01 1.560597e-01 
2.950874e-01 2.649418e-01 2.792158e-01 3.950563e-01 5.326839e-01 7.049327e-01 8.076022e-01 8.716308e-01 8.545934e-01 7.217275e-01 5.126508e-01 1.051552e-01 3.719316e-01 6.900421e-01 1.106723e+00 1.527619e+00 1.678285e+00 1.527619e+00 1.106723e+00 6.900421e-01 3.719316e-01 1.051552e-01 5.126508e-01 7.217275e-01 8.545934e-01 8.716308e-01 8.076022e-01 7.049327e-01 5.326839e-01 3.950563e-01 2.792158e-01 2.649418e-01 
4.725948e-01 4.119597e-01 3.638508e-01 4.259682e-01 5.683226e-01 7.731665e-01 8.884562e-01 9.690327e-01 9.563686e-01 7.971597e-01 6.610934e-01 1.798050e-01 4.503419e-01 9.758233e-01 1.524714e+00 1.664183e+00 1.585637e+00 1.664183e+00 1.524714e+00 9.758233e-01 4.503419e-01 1.798050e-01 6.610934e-01 7.971597e-01 9.563686e-01 9.690327e-01 8.884562e-01 7.731665e-01 5.683226e-01 4.259682e-01 3.638508e-01 4.119597e-01 
6.453405e-01 5.577750e-01 4.510107e-01 4.468790e-01 5.953936e-01 8.405457e-01 9.777413e-01 1.083786e+00 1.106117e+00 1.030981e+00 7.032996e-01 7.029502e-01 1.499855e+00 1.721818e+00 1.230210e+00 6.265342e-01 3.970018e-01 6.265342e-01 1.230210e+00 1.721818e+00 1.499855e+00 7.029502e-01 7.032996e-01 1.030981e+00 1.106117e+00 1.083786e+00 9.777413e-01 8.405457e-01 5.953936e-01 4.468790e-01 4.510107e-01 5.577750e-01 
8.432131e-01 7.256250e-01 5.439615e-01 4.134280e-01 5.499509e-01 8.575375e-01 1.033239e+00 1.226883e+00 1.228619e+00 1.034191e+00 2.232633e-01 1.208413e+00 8.454759e-01 5.757873e-01 7.658874e-01 9.452385e-01 1.093764e+00 9.452385e-01 7.658874e-01 5.757873e-01 8.454759e-01 1.208413e+00 2.232633e-01 1.034191e+00 1.228619e+00 1.226883e+00 1.033239e+00 8.575375e-01 5.499509e-01 4.134280e-01 5.439615e-01 7.256250e-01 
9.878927e-01 8.471756e-01 6.059730e-01 3.615682e-01 5.078411e-01 8.834036e-01 1.093892e+00 1.263829e+00 1.461472e+00 1.131024e+00 3.336563e-01 3.114295e-01 1.336567e-01 5.877595e-01 1.014301e+00 1.369989e+00 1.261044e+00 1.369989e+00 1.014301e+00 5.877595e-01 1.336567e-01 3.114295e-01 3.336563e-01 1.131024e+00 1.461472e+00 1.263829e+00 1.093892e+00 8.834036e-01 5.078411e-01 3.615682e-01 6.059730e-01 8.471756e-01 
1.127677e+00 9.707248e-01 6.787658e-01 2.721468e-01 3.701616e-01 8.296871e-01 1.133602e+00 1.584268e+00 2.143180e+00 7.670299e-01 9.909881e-01 6.372418e-01 1.361366e+00 1.501065e+00 1.087150e+00 6.033668e-01 4.141074e-02 6.033668e-01 1.087150e+00 1.501065e+00 1.361366e+00 6.372418e-01 9.909881e-01 7.670299e-01 2.143180e+00 1.584268e+00 1.133602e+00 8.296871e-01 3.701616e-01 2.721468e-01 6.787658e-01 9.707248e-01 
1.151813e+00 9.951524e-01 6.860799e-01 1.866954e-01 2.578828e-01 8.801151e-01 1.154662e+00 2.035285e+00 2.105529e+00 1.013332e+00 1.420208e+00 8.626442e-01 1.028170e+00 5.035773e-01 3.628628e-01 4.081885e-01 2.664140e-01 4.081885e-01 3.628628e-01 5.035773e-01 1.028170e+00 8.626442e-01 1.420208e+00 1.013332e+00 2.105529e+00 2.035285e+00 1.154662e+00 8.801151e-01 2.578828e-01 1.866954e-01 6.860799e-01 9.951524e-01 
1.117192e+00 9.896903e-01 7.382130e-01 3.720414e-01 9.708331e-02 6.079643e-01 1.052862e+00 2.611966e+00 1.569177e+00 1.961583e+00 7.837049e-01 6.032427e-01 5.713356e-01 4.722836e-01 4.178170e-01 2.507310e-01 1.078866e-01 2.507310e-01 4.178170e-01 4.722836e-01 5.713356e-01 6.032427e-01 7.837049e-01 1.961583e+00 1.569177e+00 2.611966e+00 1.052862e+00 6.079643e-01 9.708331e-02 3.720414e-01 7.382130e-01 9.896903e-01 
8.854255e-01 8.491686e-01 7.668052e-01 7.173392e-01 5.501197e-01 6.225668e-01 1.194143e+00 2.605061e+00 1.218554e+00 1.603209e+00 3.569172e-01 4.828134e-01 4.398436e-01 3.625769e-01 2.762939e-01 2.262019e-01 1.597785e-01 2.262019e-01 2.762939e-01 3.625769e-01 4.398436e-01 4.828134e-01 3.569172e-01 1.603209e+00 1.218554e+00 2.605061e+00 1.194143e+00 6.225668e-01 5.501197e-01 7.173392e-01 7.668052e-01 8.491686e-01 
5.199297e-01 6.494809e-01 8.718543e-01 1.046732e+00 1.096673e+00 9.978212e-01 1.280432e+00 1.453981e+00 1.720718e+00 5.604494e-01 6.301686e-01 6.087533e-01 5.546686e-01 3.948050e-01 2.844723e-01 1.498220e-01 8.766809e-02 1.498220e-01 2.844723e-01 3.948050e-01 5.546686e-01 6.087533e-01 6.301686e-01 5.604494e-01 1.720718e+00 1.453981e+00 1.280432e+00 9.978212e-01 1.096673e+00 1.046732e+00 8.718543e-01 6.494809e-01 
7.528572e-14 5.199297e-01 9.504334e-01 1.236095e+00 1.426290e+00 1.312151e+00 1.353495e+00 6.538486e-01 1.527703e+00 3.148506e-01 9.040747e-01 8.362660e-01 6.881647e-01 4.332653e-01 2.534903e-01 8.766809e-02 8.795215e-14 8.766809e-02 2.534903e-01 4.332653e-01 6.881647e-01 8.362660e-01 9.040747e-01 3.148506e-01 1.527703e+00 6.538486e-01 1.353495e+00 1.312151e+00 1.426290e+00 1.236095e+00 9.504334e-01 5.199297e-01 
5.199297e-01 6.494809e-01 8.718543e-01 1.046732e+00 1.096673e+00 9.978212e-01 1.280432e+00 1.453981e+00 1.720718e+00 5.604494e-01 6.301686e-01 6.087533e-01 5.546686e-01 3.948050e-01 2.844723e-01 1.498220e-01 8.766809e-02 1.498220e-01 2.844723e-01 3.948050e-01 5.546686e-01 6.087533e-01 6.301686e-01 5.604494e-01 1.720718e+00 1.453981e+00 1.280432e+00 9.978212e-01 1.096673e+00 1.046732e+00 8.718543e-01 6.494809e-01 
8.854255e-01 8.491686e-01 7.668052e-01 7.173392e-01 5.501197e-01 6.225668e-01 1.194143e+00 2.605061e+00 1.218554e+00 1.603209e+00 3.569172e-01 4.828134e-01 4.398436e-01 3.625769e-01 2.762939e-01 2.262019e-01 1.597785e-01 2.262019e-01 2.762939e-01 3.625769e-01 4.398436e-01 4.828134e-01 3.569172e-01 1.603209e+00 1.218554e+00 2.605061e+00 1.194143e+00 6.225668e-01 5.501197e-01 7.173392e-01 7.668052e-01 8.491686e-01 
1.117192e+00 9.896903e-01 7.382130e-01 3.720414e-01 9.708331e-02 6.079643e-01 1.052862e+00 2.611966e+00 1.569177e+00 1.961583e+00 7.837049e-01 6.032427e-01 5.713356e-01 4.722836e-01 4.178170e-01 2.507310e-01 1.078866e-01 2.507310e-01 4.178170e-01 4.722836e-01 5.713356e-01 6.032427e-01 7.837049e-01 1.961583e+00 1.569177e+00 2.611966e+00 1.052862e+00 6.079643e-01 9.708331e-02 3.720414e-01 7.382130e-01 9.896903e-01 
1.151813e+00 9.951524e-01 6.860799e-01 1.866954e-01 2.578828e-01 8.801151e-01 1.154662e+00 2.035285e+00 2.105529e+00 1.013332e+00 1.420208e+00 8.626442e-01 1.028170e+00 5.035773e-01 3.628628e-01 4.081885e-01 2.664140e-01 4.081885e-01 3.628628e-01 5.035773e-01 1.028170e+00 8.626442e-01 1.420208e+00 1.013332e+00 2.105529e+00 2.035285e+00 1.154662e+00 8.801151e-01 2.578828e-01 1.866954e-01 6.860799e-01 9.951524e-01 
1.127677e+00 9.707248e-01 6.787658e-01 2.721468e-01 3.701616e-01 8.296871e-01 1.133602e+00 1.584268e+00 2.143180e+00 7.670299e-01 9.909881e-01 6.372418e-01 1.361366e+00 1.501065e+00 1.087150e+00 6.033668e-01 4.141074e-02 6.033668e-01 1.087150e+00 1.501065e+00 1.361366e+00 6.372418e-01 9.909881e-01 7.670299e-01 2.143180e+00 1.584268e+00 1.133602e+00 8.296871e-01 3.701616e-01 2.721468e-01 6.787658e-01 9.707248e-01 
9.878927e-01 8.471756e-01 6.059730e-01 3.615682e-01 5.078411e-01 8.834036e-01 1.093892e+00 1.263829e+00 1.461472e+00 1.131024e+00 3.336563e-01 3.114295e-01 1.336567e-01 5.877595e-01 1.014301e+00 1.369989e+00 1.261044e+00 1.369989e+00 1.014301e+00 5.877595e-01 1.336567e-01 3.114295e-01 3.336563e-01 1.131024e+00 1.461472e+00 1.263829e+00 1.093892e+00 8.834036e-01 5.078411e-01 3.615682e-01 6.059730e-01 8.471756e-01 
8.432131e-01 7.256250e-01 5.439615e-01 4.134280e-01 5.499509e-01 8.575375e-01 1.033239e+00 1.226883e+00 1.228619e+00 1.034191e+00 2.232633e-01 1.208413e+00 8.454759e-01 5.757873e-01 7.658874e-01 9.452385e-01 1.093764e+00 9.452385e-01 7.658874e-01 5.757873e-01 8.454759e-01 1.208413e+00 2.232633e-01 1.034191e+00 1.228619e+00 1.226883e+00 1.033239e+00 8.575375e-01 5.499509e-01 4.134280e-01 5.439615e-01 7.256250e-01 
6.453405e-01 5.577750e-01 4.510107e-01 4.468790e-01 5.953936e-01 8.405457e-01 9.777413e-01 1.083786e+00 1.106117e+00 1.030981e+00 7.032996e-01 7.029502e-01 1.499855e+00 1.721818e+00 1.230210e+00 6.265342e-01 3.970018e-01 6.265342e-01 1.230210e+00 1.721818e+00 1.499855e+00 7.029502e-01 7.032996e-01 1.030981e+00 1.106117e+00 1.083786e+00 9.777413e-01 8.405457e-01 5.953936e-01 4.468790e-01 4.510107e-01 5.577750e-01 
4.725948e-01 4.119597e-01 3.638508e-01 4.259682e-01 5.683226e-01 7.731665e-01 8.884562e-01 9.690327e-01 9.563686e-01 7.971597e-01 6.610934e-01 1.798050e-01 4.503419e-01 9.758233e-01 1.524714e+00 1.664183e+00 1.585637e+00 1.664183e+00 1.524714e+00 9.758233e-01 4.503419e-01 1.798050e-01 6.610934e-01 7.971597e-01 9.563686e-01 9.690327e-01 8.884562e-01 7.731665e-01 5.683226e-01 4.259682e-01 3.638508e-01 4.119597e-01 
2.950874e-01 2.649418e-01 2.792158e-01 3.950563e-01 5.326839e-01 7.049327e-01 8.076022e-01 8.716308e-01 8.545934e-01 7.217275e-01 5.126508e-01 1.051552e-01 3.719316e-01 6.900421e-01 1.106723e+00 1.527619e+00 1.678285e+00 1.527619e+00 1.106723e+00 6.900421e-01 3.719316e-01 1.051552e-01 5.126508e-01 7.217275e-01 8.545934e-01 8.716308e-01 8.076022e-01 7.049327e-01 5.326839e-01 3.950563e-01 2.792158e-01 2.649418e-01 
1.641532e-01 1.560597e-01 2.027969e-01 3.286541e-01 4.549608e-01 6.049711e-01 7.086466e-01 7.715534e-01 7.746809e-01 6.677657e-01 5.196762e-01 2.513106e-01 1.638269e-01 5.255197e-01 1.122663e+00 1.757123e+00 2.016017e+00 1.757123e+00 1.122663e+00 5.255197e-01 1.638269e-01 2.513106e-01 5.196762e-01 6.677657e-01 7.746809e-01 7.715534e-01 7.086466e-01 6.049711e-01 4.549608e-01 3.286541e-01 2.027969e-01 1.560597e-01 
5.913270e-02 8.147297e-02 1.509094e-01 2.700234e-01 3.821228e-01 5.122438e-01 6.162948e-01 6.848041e-01 7.096174e-01 6.517960e-01 5.555349e-01 4.362027e-01 4.168563e-01 6.295433e-01 1.067370e+00 1.622932e+00 1.895098e+00 1.622932e+00 1.067370e+00 6.295433e-01 4.168563e-01 4.362027e-01 5.555349e-01 6.517960e-01 7.096174e-01 6.848041e-01 6.162948e-01 5.122438e-01 3.821228e-01 2.700234e-01 1.509094e-01 8.147297e-02 
3.306674e-03 5.056222e-02 1.088233e-01 2.058536e-01 3.090563e-01 4.304778e-01 5.536619e-01 6.528883e-01 7.402376e-01 7.698282e-01 7.822393e-01 7.567756e-01 7.440150e-01 8.169885e-01 1.079579e+00 1.480028e+00 1.699812e+00 1.480028e+00 1.079579e+00 8.169885e-01 7.440150e-01 7.567756e-01 7.822393e-01 7.698282e-01 7.402376e-01 6.528883e-01 5.536619e-01 4.304778e-01 3.090563e-01 2.058536e-01 1.088233e-01 5.056222e-02 
2.283248e-02 4.523762e-02 8.525802e-02 1.592227e-01 2.581181e-01 3.794382e-01 5.298085e-01 6.760862e-01 8.341026e-01 9.590326e-01 1.063954e+00 1.123336e+00 1.137724e+00 1.121933e+00 1.109500e+00 1.162889e+00 1.222599e+00 1.162889e+00 1.109500e+00 1.121933e+00 1.137724e+00 1.123336e+00 1.063954e+00 9.590326e-01 8.341026e-01 6.760862e-01 5.298085e-01 3.794382e-01 2.581181e-01 1.592227e-01 8.525802e-02 4.523762e-02 
1.781997e-02 3.049450e-02 6.590513e-02 1.286094e-01 2.350459e-01 3.669725e-01 5.482271e-01 7.372411e-01 9.512064e-01 1.136551e+00 1.296731e+00 1.385114e+00 1.394372e+00 1.300665e+00 1.103189e+00 8.292492e-01 6.555363e-01 8.292492e-01 1.103189e+00 1.300665e+00 1.394372e+00 1.385114e+00 1.296731e+00 1.136551e+00 9.512064e-01 7.372411e-01 5.482271e-01 3.669725e-01 2.350459e-01 1.286094e-01 6.590513e-02 3.049450e-02 
