# vtk DataFile Version 2.0
Comment goes here
ASCII

DATASET STRUCTURED_POINTS
FIELD FieldData 1
TIME 1 1 double
0.98000000
DIMENSIONS    32   32   1

ORIGIN    0.000   0.000   0.000
SPACING   0.03125 0.03125   1.000

POINT_DATA   1024
SCALARS uMag double
LOOKUP_TABLE default

1.344937e-14 4.320324e-02 7.152875e-02 7.179853e-02 3.512705e-02 4.482420e-02 1.690332e-01 3.306241e-01 5.218193e-01 7.158550e-01 9.074210e-01 1.044541e+00 1.128950e+00 1.073599e+00 8.829831e-01 5.007200e-01 5.875161e-14 5.007200e-01 8.829831e-01 1.073599e+00 1.128950e+00 1.044541e+00 9.074210e-01 7.158550e-01 5.218193e-01 3.306241e-01 1.690332e-01 4.482420e-02 3.512705e-02 7.179853e-02 7.152875e-02 4.320324e-02 
4.320324e-02 6.222410e-02 8.836563e-02 9.751283e-02 9.067525e-02 1.020917e-01 1.784134e-01 3.075308e-01 4.656014e-01 6.328595e-01 7.970659e-01 9.198584e-01 1.004725e+00 9.749979e-01 8.716957e-01 6.432739e-01 5.007200e-01 6.432739e-01 8.716957e-01 9.749979e-01 1.004725e+00 9.198584e-01 7.970659e-01 6.328595e-01 4.656014e-01 3.075308e-01 1.784134e-01 1.020917e-01 9.067525e-02 9.751283e-02 8.836563e-02 6.222410e-02 
1.018381e-01 1.117710e-01 1.325180e-01 1.533389e-01 1.749175e-01 2.056263e-01 2.553404e-01 3.257194e-01 4.047051e-01 4.880645e-01 5.617604e-01 6.085625e-01 6.501120e-01 6.567357e-01 7.384846e-01 8.839101e-01 9.357062e-01 8.839101e-01 7.384846e-01 6.567357e-01 6.501120e-01 6.085625e-01 5.617604e-01 4.880645e-01 4.047051e-01 3.257194e-01 2.553404e-01 2.056263e-01 1.749175e-01 1.533389e-01 1.325180e-01 1.117710e-01 
1.830417e-01 1.890944e-01 2.077755e-01 2.400783e-01 2.864671e-01 3.414207e-01 4.005151e-01 4.497731e-01 4.695704e-01 4.629148e-01 3.964772e-01 3.053400e-01 2.086457e-01 3.372139e-01 6.807085e-01 1.009807e+00 1.144121e+00 1.009807e+00 6.807085e-01 3.372139e-01 2.086457e-01 3.053400e-01 3.964772e-01 4.629148e-01 4.695704e-01 4.497731e-01 4.005151e-01 3.414207e-01 2.864671e-01 2.400783e-01 2.077755e-01 1.890944e-01 
3.019594e-01 3.030846e-01 3.124000e-01 3.439168e-01 3.994465e-01 4.682246e-01 5.448057e-01 6.058363e-01 6.439503e-01 6.491793e-01 6.021399e-01 5.308680e-01 3.247084e-01 2.356318e-01 5.509344e-01 1.153349e+00 1.375699e+00 1.153349e+00 5.509344e-01 2.356318e-01 3.247084e-01 5.308680e-01 6.021399e-01 6.491793e-01 6.439503e-01 6.058363e-01 5.448057e-01 4.682246e-01 3.994465e-01 3.439168e-01 3.124000e-01 3.030846e-01 
4.540345e-01 4.465670e-01 4.381699e-01 4.584765e-01 5.158333e-01 5.967296e-01 6.944289e-01 7.820853e-01 8.667627e-01 9.308341e-01 9.662878e-01 9.491259e-01 8.193612e-01 6.770055e-01 4.821259e-01 8.400752e-01 1.043326e+00 8.400752e-01 4.821259e-01 6.770055e-01 8.193612e-01 9.491259e-01 9.662878e-01 9.308341e-01 8.667627e-01 7.820853e-01 6.944289e-01 5.967296e-01 5.158333e-01 4.584765e-01 4.381699e-01 4.465670e-01 
6.451246e-01 6.254020e-01 5.868326e-01 5.784934e-01 6.172679e-01 6.918643e-01 7.897433e-01 8.760634e-01 9.905262e-01 1.075016e+00 1.186345e+00 1.234594e+00 1.170393e+00 1.525709e+00 1.687854e+00 1.518969e+00 1.134659e+00 1.518969e+00 1.687854e+00 1.525709e+00 1.170393e+00 1.234594e+00 1.186345e+00 1.075016e+00 9.905262e-01 8.760634e-01 7.897433e-01 6.918643e-01 6.172679e-01 5.784934e-01 5.868326e-01 6.254020e-01 
8.603141e-01 8.212388e-01 7.363756e-01 6.747951e-01 6.743991e-01 7.354902e-01 8.305430e-01 9.266764e-01 1.082810e+00 1.270147e+00 1.491985e+00 1.883283e+00 2.409962e+00 2.963848e+00 2.367081e+00 1.471365e+00 1.393676e+00 1.471365e+00 2.367081e+00 2.963848e+00 2.409962e+00 1.883283e+00 1.491985e+00 1.270147e+00 1.082810e+00 9.266764e-01 8.305430e-01 7.354902e-01 6.743991e-01 6.747951e-01 7.363756e-01 8.212388e-01 
1.084693e+00 1.024168e+00 8.850467e-01 7.563185e-01 6.974020e-01 7.360052e-01 8.130808e-01 9.008513e-01 1.102056e+00 1.246177e+00 1.639949e+00 1.991831e+00 1.801922e+00 7.738439e-01 1.884936e+00 1.623197e+00 1.258233e+00 1.623197e+00 1.884936e+00 7.738439e-01 1.801922e+00 1.991831e+00 1.639949e+00 1.246177e+00 1.102056e+00 9.008513e-01 8.130808e-01 7.360052e-01 6.974020e-01 7.563185e-01 8.850467e-01 1.024168e+00 
1.301342e+00 1.214371e+00 1.013874e+00 7.911438e-01 6.372668e-01 6.191234e-01 6.451300e-01 6.892915e-01 9.047899e-01 8.444680e-01 8.175375e-01 4.553232e-01 1.483764e+00 2.192086e+00 1.342778e+00 1.170522e-01 5.664212e-02 1.170522e-01 1.342778e+00 2.192086e+00 1.483764e+00 4.553232e-01 8.175375e-01 8.444680e-01 9.047899e-01 6.892915e-01 6.451300e-01 6.191234e-01 6.372668e-01 7.911438e-01 1.013874e+00 1.214371e+00 
1.468615e+00 1.359640e+00 1.105211e+00 7.935698e-01 5.393635e-01 4.814299e-01 4.558291e-01 5.901304e-01 6.030282e-01 2.255715e-01 5.567321e-01 1.188796e+00 1.131997e+00 6.607253e-01 6.935863e-01 7.566991e-01 1.031379e+00 7.566991e-01 6.935863e-01 6.607253e-01 1.131997e+00 1.188796e+00 5.567321e-01 2.255715e-01 6.030282e-01 5.901304e-01 4.558291e-01 4.814299e-01 5.393635e-01 7.935698e-01 1.105211e+00 1.359640e+00 
1.580592e+00 1.454567e+00 1.173307e+00 7.832046e-01 4.444450e-01 2.465768e-01 9.851812e-02 2.100008e-01 7.864405e-01 1.228921e+00 3.881419e-01 9.058938e-01 8.840957e-01 6.564821e-01 5.107049e-01 4.823851e-01 7.392814e-01 4.823851e-01 5.107049e-01 6.564821e-01 8.840957e-01 9.058938e-01 3.881419e-01 1.228921e+00 7.864405e-01 2.100008e-01 9.851812e-02 2.465768e-01 4.444450e-01 7.832046e-01 1.173307e+00 1.454567e+00 
1.575592e+00 1.450391e+00 1.176989e+00 7.612331e-01 4.241609e-01 1.812040e-01 4.078287e-01 4.834579e-01 1.635812e+00 7.649384e-01 2.554502e-01 1.474854e+00 8.155992e-01 5.401176e-01 4.493890e-01 5.677831e-01 7.637639e-01 5.677831e-01 4.493890e-01 5.401176e-01 8.155992e-01 1.474854e+00 2.554502e-01 7.649384e-01 1.635812e+00 4.834579e-01 4.078287e-01 1.812040e-01 4.241609e-01 7.612331e-01 1.176989e+00 1.450391e+00 
1.458714e+00 1.359855e+00 1.167853e+00 8.463060e-01 6.471547e-01 5.519885e-01 7.247960e-01 1.058833e+00 1.733936e+00 4.914095e-01 7.612284e-01 1.504700e+00 4.482421e-01 5.632941e-01 3.711065e-01 3.834019e-01 4.087207e-01 3.834019e-01 3.711065e-01 5.632941e-01 4.482421e-01 1.504700e+00 7.612284e-01 4.914095e-01 1.733936e+00 1.058833e+00 7.247960e-01 5.519885e-01 6.471547e-01 8.463060e-01 1.167853e+00 1.359855e+00 
1.163608e+00 1.147395e+00 1.152179e+00 1.120916e+00 1.108716e+00 1.179128e+00 1.167305e+00 1.584529e+00 1.154226e+00 8.155235e-01 1.126381e+00 1.028756e+00 3.501179e-01 4.100738e-01 2.565430e-01 2.907193e-01 2.793364e-01 2.907193e-01 2.565430e-01 4.100738e-01 3.501179e-01 1.028756e+00 1.126381e+00 8.155235e-01 1.154226e+00 1.584529e+00 1.167305e+00 1.179128e+00 1.108716e+00 1.120916e+00 1.152179e+00 1.147395e+00 
6.838094e-01 8.638481e-01 1.208460e+00 1.532095e+00 1.676603e+00 1.801925e+00 1.556632e+00 1.649184e+00 6.275296e-01 1.022510e+00 1.393699e+00 5.733698e-01 4.341742e-01 2.790879e-01 2.419074e-01 1.593586e-01 8.509316e-02 1.593586e-01 2.419074e-01 2.790879e-01 4.341742e-01 5.733698e-01 1.393699e+00 1.022510e+00 6.275296e-01 1.649184e+00 1.556632e+00 1.801925e+00 1.676603e+00 1.532095e+00 1.208460e+00 8.638481e-01 
3.705950e-14 6.838094e-01 1.277087e+00 1.768210e+00 1.968016e+00 2.071453e+00 1.722054e+00 1.613961e+00 5.014198e-01 1.163024e+00 1.252940e+00 1.183606e-02 2.881207e-01 1.123105e-01 1.534661e-01 8.509316e-02 3.614593e-14 8.509316e-02 1.534661e-01 1.123105e-01 2.881207e-01 1.183606e-02 1.252940e+00 1.163024e+00 5.014198e-01 1.613961e+00 1.722054e+00 2.071453e+00 1.968016e+00 1.768210e+00 1.277087e+00 6.838094e-01 
6.838094e-01 8.638481e-01 1.208460e+00 1.532095e+00 1.676603e+00 1.801925e+00 1.556632e+00 1.649184e+00 6.275296e-01 1.022510e+00 1.393699e+00 5.733698e-01 4.341742e-01 2.790879e-01 2.419074e-01 1.593586e-01 8.509316e-02 1.593586e-01 2.419074e-01 2.790879e-01 4.341742e-01 5.733698e-01 1.393699e+00 1.022510e+00 6.275296e-01 1.649184e+00 1.556632e+00 1.801925e+00 1.676603e+00 1.532095e+00 1.208460e+00 8.638481e-01 
1.163608e+00 1.147395e+00 1.152179e+00 1.120916e+00 1.108716e+00 1.179128e+00 1.167305e+00 1.584529e+00 1.154226e+00 8.155235e-01 1.126381e+00 1.028756e+00 3.501179e-01 4.100738e-01 2.565430e-01 2.907193e-01 2.793364e-01 2.907193e-01 2.565430e-01 4.100738e-01 3.501179e-01 1.028756e+00 1.126381e+00 8.155235e-01 1.154226e+00 1.584529e+00 1.167305e+00 1.179128e+00 1.108716e+00 1.120916e+00 1.152179e+00 1.147395e+00 
1.458714e+00 1.359855e+00 1.167853e+00 8.463060e-01 6.471547e-01 5.519885e-01 7.247960e-01 1.058833e+00 1.733936e+00 4.914095e-01 7.612284e-01 1.504700e+00 4.482421e-01 5.632941e-01 3.711065e-01 3.834019e-01 4.087207e-01 3.834019e-01 3.711065e-01 5.632941e-01 4.482421e-01 1.504700e+00 7.612284e-01 4.914095e-01 1.733936e+00 1.058833e+00 7.247960e-01 5.519885e-01 6.471547e-01 8.463060e-01 1.167853e+00 1.359855e+00 
1.575592e+00 1.450391e+00 1.176989e+00 7.612331e-01 4.241609e-01 1.812040e-01 4.078287e-01 4.834579e-01 1.635812e+00 7.649384e-01 2.554502e-01 1.474854e+00 8.155992e-01 5.401176e-01 4.493890e-01 5.677831e-01 7.637639e-01 5.677831e-01 4.493890e-01 5.401176e-01 8.155992e-01 1.474854e+00 2.554502e-01 7.649384e-01 1.635812e+00 4.834579e-01 4.078287e-01 1.812040e-01 4.241609e-01 7.612331e-01 1.176989e+00 1.450391e+00 
1.580592e+00 1.454567e+00 1.173307e+00 7.832046e-01 4.444450e-01 2.465768e-01 9.851812e-02 2.100008e-01 7.864405e-01 1.228921e+00 3.881419e-01 9.058938e-01 8.840957e-01 6.564821e-01 5.107049e-01 4.823851e-01 7.392814e-01 4.823851e-01 5.107049e-01 6.564821e-01 8.840957e-01 9.058938e-01 3.881419e-01 1.228921e+00 7.864405e-01 2.100008e-01 9.851812e-02 2.465768e-01 4.444450e-01 7.832046e-01 1.173307e+00 1.454567e+00 
1.468615e+00 1.359640e+00 1.105211e+00 7.935698e-01 5.393635e-01 4.814299e-01 4.558291e-01 5.901304e-01 6.030282e-01 2.255715e-01 5.567321e-01 1.188796e+00 1.131997e+00 6.607253e-01 6.935863e-01 7.566991e-01 1.031379e+00 7.566991e-01 6.935863e-01 6.607253e-01 1.131997e+00 1.188796e+00 5.567321e-01 2.255715e-01 6.030282e-01 5.901304e-01 4.558291e-01 4.814299e-01 5.393635e-01 7.935698e-01 1.105211e+00 1.359640e+00 
1.301342e+00 1.214371e+00 1.013874e+00 7.911438e-01 6.372668e-01 6.191234e-01 6.451300e-01 6.892915e-01 9.047899e-01 8.444680e-01 8.175375e-01 4.553232e-01 1.483764e+00 2.192086e+00 1.342778e+00 1.170522e-01 5.664212e-02 1.170522e-01 1.342778e+00 2.192086e+00 1.483764e+00 4.553232e-01 8.175375e-01 8.444680e-01 9.047899e-01 6.892915e-01 6.451300e-01 6.191234e-01 6.372668e-01 7.911438e-01 1.013874e+00 1.214371e+00 
1.084693e+00 1.024168e+00 8.850467e-01 7.563185e-01 6.974020e-01 7.360052e-01 8.130808e-01 9.008513e-01 1.102056e+00 1.246177e+00 1.639949e+00 1.991831e+00 1.801922e+00 7.738439e-01 1.884936e+00 1.623197e+00 1.258233e+00 1.623197e+00 1.884936e+00 7.738439e-01 1.801922e+00 1.991831e+00 1.639949e+00 1.246177e+00 1.102056e+00 9.008513e-01 8.130808e-01 7.360052e-01 6.974020e-01 7.563185e-01 8.850467e-01 1.024168e+00 
8.603141e-01 8.212388e-01 7.363756e-01 6.747951e-01 6.743991e-01 7.354902e-01 8.305430e-01 9.266764e-01 1.082810e+00 1.270147e+00 1.491985e+00 1.883283e+00 2.409962e+00 2.963848e+00 2.367081e+00 1.471365e+00 1.393676e+00 1.471365e+00 2.367081e+00 2.963848e+00 2.409962e+00 1.883283e+00 1.491985e+00 1.270147e+00 1.082810e+00 9.266764e-01 8.305430e-01 7.354902e-01 6.743991e-01 6.747951e-01 7.363756e-01 8.212388e-01 
6.451246e-01 6.254020e-01 5.868326e-01 5.784934e-01 6.172679e-01 6.918643e-01 7.897433e-01 8.760634e-01 9.905262e-01 1.075016e+00 1.186345e+00 1.234594e+00 1.170393e+00 1.525709e+00 1.687854e+00 1.518969e+00 1.134659e+00 1.518969e+00 1.687854e+00 1.525709e+00 1.170393e+00 1.234594e+00 1.186345e+00 1.075016e+00 9.905262e-01 8.760634e-01 7.897433e-01 6.918643e-01 6.172679e-01 5.784934e-01 5.868326e-01 6.254020e-01 
4.540345e-01 4.465670e-01 4.381699e-01 4.584765e-01 5.158333e-01 5.967296e-01 6.944289e-01 7.820853e-01 8.667627e-01 9.308341e-01 9.662878e-01 9.491259e-01 8.193612e-01 6.770055e-01 4.821259e-01 8.400752e-01 1.043326e+00 8.400752e-01 4.821259e-01 6.770055e-01 8.193612e-01 9.491259e-01 9.662878e-01 9.308341e-01 8.667627e-01 7.820853e-01 6.944289e-01 5.967296e-01 5.158333e-01 4.584765e-01 4.381699e-01 4.465670e-01 
3.019594e-01 3.030846e-01 3.124000e-01 3.439168e-01 3.994465e-01 4.682246e-01 5.448057e-01 6.058363e-01 6.439503e-01 6.491793e-01 6.021399e-01 5.308680e-01 3.247084e-01 2.356318e-01 5.509344e-01 1.153349e+00 1.375699e+00 1.153349e+00 5.509344e-01 2.356318e-01 3.247084e-01 5.308680e-01 6.021399e-01 6.491793e-01 6.439503e-01 6.058363e-01 5.448057e-01 4.682246e-01 3.994465e-01 3.439168e-01 3.124000e-01 3.030846e-01 
1.830417e-01 1.890944e-01 2.077755e-01 2.400783e-01 2.864671e-01 3.414207e-01 4.005151e-01 4.497731e-01 4.695704e-01 4.629148e-01 3.964772e-01 3.053400e-01 2.086457e-01 3.372139e-01 6.807085e-01 1.009807e+00 1.144121e+00 1.009807e+00 6.807085e-01 3.372139e-01 2.086457e-01 3.053400e-01 3.964772e-01 4.629148e-01 4.695704e-01 4.497731e-01 4.005151e-01 3.414207e-01 2.864671e-01 2.400783e-01 2.077755e-01 1.890944e-01 
1.018381e-01 1.117710e-01 1.325180e-01 1.533389e-01 1.749175e-01 2.056263e-01 2.553404e-01 3.257194e-01 4.047051e-01 4.880645e-01 5.617604e-01 6.085625e-01 6.501120e-01 6.567357e-01 7.384846e-01 8.839101e-01 9.357062e-01 8.839101e-01 7.384846e-01 6.567357e-01 6.501120e-01 6.085625e-01 5.617604e-01 4.880645e-01 4.047051e-01 3.257194e-01 2.553404e-01 2.056263e-01 1.749175e-01 1.533389e-01 1.325180e-01 1.117710e-01 
4.320324e-02 6.222410e-02 8.836563e-02 9.751283e-02 9.067525e-02 1.020917e-01 1.784134e-01 3.075308e-01 4.656014e-01 6.328595e-01 7.970659e-01 9.198584e-01 1.004725e+00 9.749979e-01 8.716957e-01 6.432739e-01 5.007200e-01 6.432739e-01 8.716957e-01 9.749979e-01 1.004725e+00 9.198584e-01 7.970659e-01 6.328595e-01 4.656014e-01 3.075308e-01 1.784134e-01 1.020917e-01 9.067525e-02 9.751283e-02 8.836563e-02 6.222410e-02 
