# vtk DataFile Version 2.0
Comment goes here
ASCII

DATASET STRUCTURED_POINTS
FIELD FieldData 1
TIME 1 1 double
0.08000000
DIMENSIONS    32   32   1

ORIGIN    0.000   0.000   0.000
SPACING   0.03125 0.03125   1.000

POINT_DATA   1024
SCALARS uMag double
LOOKUP_TABLE default

2.591994e-15 4.022471e-02 7.902400e-02 1.149329e-01 1.481468e-01 1.754302e-01 2.009479e-01 2.181784e-01 2.329697e-01 2.322787e-01 2.239636e-01 1.941108e-01 1.585842e-01 1.058368e-01 6.387683e-02 3.255606e-02 4.386129e-15 3.255606e-02 6.387683e-02 1.058368e-01 1.585842e-01 1.941108e-01 2.239636e-01 2.322787e-01 2.329697e-01 2.181784e-01 2.009479e-01 1.754302e-01 1.481468e-01 1.149329e-01 7.902400e-02 4.022471e-02 
4.022471e-02 5.664945e-02 8.722209e-02 1.203110e-01 1.492229e-01 1.754664e-01 1.958700e-01 2.125438e-01 2.231886e-01 2.228869e-01 2.185258e-01 1.973661e-01 1.643247e-01 1.153851e-01 7.281990e-02 1.084925e-01 3.255606e-02 1.084925e-01 7.281990e-02 1.153851e-01 1.643247e-01 1.973661e-01 2.185258e-01 2.228869e-01 2.231886e-01 2.125438e-01 1.958700e-01 1.754664e-01 1.492229e-01 1.203110e-01 8.722209e-02 5.664945e-02 
8.119021e-02 8.988906e-02 1.124766e-01 1.397183e-01 1.670702e-01 1.911096e-01 2.155715e-01 2.347977e-01 2.542971e-01 2.587639e-01 2.565157e-01 2.309775e-01 2.034085e-01 1.729315e-01 2.257672e-01 1.856390e-01 2.073698e-01 1.856390e-01 2.257672e-01 1.729315e-01 2.034085e-01 2.309775e-01 2.565157e-01 2.587639e-01 2.542971e-01 2.347977e-01 2.155715e-01 1.911096e-01 1.670702e-01 1.397183e-01 1.124766e-01 8.988906e-02 
1.266580e-01 1.324117e-01 1.476726e-01 1.703017e-01 1.895213e-01 2.110342e-01 2.279878e-01 2.472643e-01 2.588382e-01 2.636562e-01 2.817013e-01 2.938269e-01 2.985986e-01 3.545252e-01 3.610465e-01 5.374605e-02 4.010517e-01 5.374605e-02 3.610465e-01 3.545252e-01 2.985986e-01 2.938269e-01 2.817013e-01 2.636562e-01 2.588382e-01 2.472643e-01 2.279878e-01 2.110342e-01 1.895213e-01 1.703017e-01 1.476726e-01 1.324117e-01 
1.759241e-01 1.777542e-01 1.892041e-01 2.049061e-01 2.184040e-01 2.329204e-01 2.553777e-01 2.751864e-01 3.124785e-01 3.502563e-01 3.728211e-01 3.809574e-01 3.918397e-01 4.574581e-01 4.159772e-01 2.570666e-01 2.017820e-01 2.570666e-01 4.159772e-01 4.574581e-01 3.918397e-01 3.809574e-01 3.728211e-01 3.502563e-01 3.124785e-01 2.751864e-01 2.553777e-01 2.329204e-01 2.184040e-01 2.049061e-01 1.892041e-01 1.777542e-01 
2.339349e-01 2.339279e-01 2.419515e-01 2.559154e-01 2.591032e-01 2.730560e-01 2.873197e-01 3.015272e-01 3.194466e-01 3.305332e-01 3.892285e-01 4.358579e-01 4.594170e-01 5.007149e-01 4.443805e-01 3.491509e-01 1.128072e-01 3.491509e-01 4.443805e-01 5.007149e-01 4.594170e-01 4.358579e-01 3.892285e-01 3.305332e-01 3.194466e-01 3.015272e-01 2.873197e-01 2.730560e-01 2.591032e-01 2.559154e-01 2.419515e-01 2.339279e-01 
3.037660e-01 2.986571e-01 3.037115e-01 3.087261e-01 2.936861e-01 2.872564e-01 2.831391e-01 2.555951e-01 3.405531e-01 4.435387e-01 3.815887e-01 2.011217e-01 4.294898e-01 4.556540e-01 2.738060e-01 3.477847e-01 4.368443e-01 3.477847e-01 2.738060e-01 4.556540e-01 4.294898e-01 2.011217e-01 3.815887e-01 4.435387e-01 3.405531e-01 2.555951e-01 2.831391e-01 2.872564e-01 2.936861e-01 3.087261e-01 3.037115e-01 2.986571e-01 
3.886965e-01 3.781698e-01 3.830216e-01 3.843869e-01 3.483356e-01 3.308596e-01 2.731380e-01 3.007293e-01 3.224838e-01 2.287433e-01 5.518036e-01 9.302943e-01 8.615711e-01 3.908156e-01 7.689727e-02 2.423706e-01 4.099277e-01 2.423706e-01 7.689727e-02 3.908156e-01 8.615711e-01 9.302943e-01 5.518036e-01 2.287433e-01 3.224838e-01 3.007293e-01 2.731380e-01 3.308596e-01 3.483356e-01 3.843869e-01 3.830216e-01 3.781698e-01 
5.011748e-01 4.846647e-01 4.909743e-01 4.883956e-01 3.975956e-01 2.883169e-01 5.885034e-02 3.273715e-01 5.180612e-01 6.071742e-01 8.176821e-01 8.814029e-01 7.454434e-01 7.084183e-01 5.391906e-01 3.726692e-01 4.538290e-01 3.726692e-01 5.391906e-01 7.084183e-01 7.454434e-01 8.814029e-01 8.176821e-01 6.071742e-01 5.180612e-01 3.273715e-01 5.885034e-02 2.883169e-01 3.975956e-01 4.883956e-01 4.909743e-01 4.846647e-01 
6.446440e-01 6.160345e-01 6.391674e-01 6.239067e-01 4.530028e-01 2.284827e-01 5.047623e-01 3.286495e-01 6.611722e-01 1.216345e+00 1.930922e+00 2.206934e+00 2.290412e+00 2.072795e+00 1.701613e+00 1.076547e+00 1.551336e-01 1.076547e+00 1.701613e+00 2.072795e+00 2.290412e+00 2.206934e+00 1.930922e+00 1.216345e+00 6.611722e-01 3.286495e-01 5.047623e-01 2.284827e-01 4.530028e-01 6.239067e-01 6.391674e-01 6.160345e-01 
8.324475e-01 8.027102e-01 8.622815e-01 8.490392e-01 4.894228e-01 5.078510e-01 5.790462e-01 1.163464e+00 2.656433e+00 3.513022e+00 3.463454e+00 2.832644e+00 1.995933e+00 1.457692e+00 1.494103e+00 1.571135e+00 1.618758e+00 1.571135e+00 1.494103e+00 1.457692e+00 1.995933e+00 2.832644e+00 3.463454e+00 3.513022e+00 2.656433e+00 1.163464e+00 5.790462e-01 5.078510e-01 4.894228e-01 8.490392e-01 8.622815e-01 8.027102e-01 
1.065714e+00 1.038674e+00 1.181523e+00 9.447254e-01 5.987711e-01 1.337653e+00 1.882564e+00 2.811955e+00 2.841294e+00 1.920032e+00 1.048936e+00 5.460860e-01 1.254440e+00 1.333140e+00 1.161922e+00 1.342213e+00 1.526984e+00 1.342213e+00 1.161922e+00 1.333140e+00 1.254440e+00 5.460860e-01 1.048936e+00 1.920032e+00 2.841294e+00 2.811955e+00 1.882564e+00 1.337653e+00 5.987711e-01 9.447254e-01 1.181523e+00 1.038674e+00 
1.304717e+00 1.318347e+00 1.455308e+00 3.183477e-01 1.951000e+00 1.926771e+00 1.635323e+00 1.583917e+00 1.004708e+00 6.178915e-01 4.997781e-01 1.402601e+00 1.472976e+00 9.940398e-01 8.542916e-01 9.083653e-01 8.729166e-01 9.083653e-01 8.542916e-01 9.940398e-01 1.472976e+00 1.402601e+00 4.997781e-01 6.178915e-01 1.004708e+00 1.583917e+00 1.635323e+00 1.926771e+00 1.951000e+00 3.183477e-01 1.455308e+00 1.318347e+00 
1.422364e+00 1.553240e+00 1.200429e+00 1.347476e+00 2.240617e+00 8.520375e-01 1.031815e+00 1.098160e+00 1.211762e+00 1.056886e+00 4.607272e-01 1.334280e+00 1.011976e+00 6.232679e-01 6.789871e-01 7.071741e-01 6.637637e-01 7.071741e-01 6.789871e-01 6.232679e-01 1.011976e+00 1.334280e+00 4.607272e-01 1.056886e+00 1.211762e+00 1.098160e+00 1.031815e+00 8.520375e-01 2.240617e+00 1.347476e+00 1.200429e+00 1.553240e+00 
1.208170e+00 1.487534e+00 9.153069e-01 2.078946e+00 1.126167e+00 4.718548e-01 1.096239e+00 9.806395e-01 1.124097e+00 1.232614e+00 1.235635e+00 1.450047e+00 9.872905e-01 6.738351e-01 5.882853e-01 4.799301e-01 4.093265e-01 4.799301e-01 5.882853e-01 6.738351e-01 9.872905e-01 1.450047e+00 1.235635e+00 1.232614e+00 1.124097e+00 9.806395e-01 1.096239e+00 4.718548e-01 1.126167e+00 2.078946e+00 9.153069e-01 1.487534e+00 
6.424545e-01 9.932519e-01 1.435643e+00 1.381643e+00 2.272233e-01 4.294924e-01 7.476904e-01 9.635103e-01 1.346057e+00 1.888713e+00 1.980934e+00 1.545164e+00 9.907885e-01 6.877252e-01 5.033905e-01 3.222042e-01 2.345568e-01 3.222042e-01 5.033905e-01 6.877252e-01 9.907885e-01 1.545164e+00 1.980934e+00 1.888713e+00 1.346057e+00 9.635103e-01 7.476904e-01 4.294924e-01 2.272233e-01 1.381643e+00 1.435643e+00 9.932519e-01 
4.461260e-14 6.424545e-01 1.576871e+00 6.813417e-01 7.370589e-02 2.463804e-01 8.828755e-01 1.024620e+00 1.283986e+00 2.090569e+00 2.370878e+00 1.756181e+00 1.103843e+00 7.603843e-01 4.977087e-01 2.345568e-01 5.955572e-15 2.345568e-01 4.977087e-01 7.603843e-01 1.103843e+00 1.756181e+00 2.370878e+00 2.090569e+00 1.283986e+00 1.024620e+00 8.828755e-01 2.463804e-01 7.370589e-02 6.813417e-01 1.576871e+00 6.424545e-01 
6.424545e-01 9.932519e-01 1.435643e+00 1.381643e+00 2.272233e-01 4.294924e-01 7.476904e-01 9.635103e-01 1.346057e+00 1.888713e+00 1.980934e+00 1.545164e+00 9.907885e-01 6.877252e-01 5.033905e-01 3.222042e-01 2.345568e-01 3.222042e-01 5.033905e-01 6.877252e-01 9.907885e-01 1.545164e+00 1.980934e+00 1.888713e+00 1.346057e+00 9.635103e-01 7.476904e-01 4.294924e-01 2.272233e-01 1.381643e+00 1.435643e+00 9.932519e-01 
1.208170e+00 1.487534e+00 9.153069e-01 2.078946e+00 1.126167e+00 4.718548e-01 1.096239e+00 9.806395e-01 1.124097e+00 1.232614e+00 1.235635e+00 1.450047e+00 9.872905e-01 6.738351e-01 5.882853e-01 4.799301e-01 4.093265e-01 4.799301e-01 5.882853e-01 6.738351e-01 9.872905e-01 1.450047e+00 1.235635e+00 1.232614e+00 1.124097e+00 9.806395e-01 1.096239e+00 4.718548e-01 1.126167e+00 2.078946e+00 9.153069e-01 1.487534e+00 
1.422364e+00 1.553240e+00 1.200429e+00 1.347476e+00 2.240617e+00 8.520375e-01 1.031815e+00 1.098160e+00 1.211762e+00 1.056886e+00 4.607272e-01 1.334280e+00 1.011976e+00 6.232679e-01 6.789871e-01 7.071741e-01 6.637637e-01 7.071741e-01 6.789871e-01 6.232679e-01 1.011976e+00 1.334280e+00 4.607272e-01 1.056886e+00 1.211762e+00 1.098160e+00 1.031815e+00 8.520375e-01 2.240617e+00 1.347476e+00 1.200429e+00 1.553240e+00 
1.304717e+00 1.318347e+00 1.455308e+00 3.183477e-01 1.951000e+00 1.926771e+00 1.635323e+00 1.583917e+00 1.004708e+00 6.178915e-01 4.997781e-01 1.402601e+00 1.472976e+00 9.940398e-01 8.542916e-01 9.083653e-01 8.729166e-01 9.083653e-01 8.542916e-01 9.940398e-01 1.472976e+00 1.402601e+00 4.997781e-01 6.178915e-01 1.004708e+00 1.583917e+00 1.635323e+00 1.926771e+00 1.951000e+00 3.183477e-01 1.455308e+00 1.318347e+00 
1.065714e+00 1.038674e+00 1.181523e+00 9.447254e-01 5.987711e-01 1.337653e+00 1.882564e+00 2.811955e+00 2.841294e+00 1.920032e+00 1.048936e+00 5.460860e-01 1.254440e+00 1.333140e+00 1.161922e+00 1.342213e+00 1.526984e+00 1.342213e+00 1.161922e+00 1.333140e+00 1.254440e+00 5.460860e-01 1.048936e+00 1.920032e+00 2.841294e+00 2.811955e+00 1.882564e+00 1.337653e+00 5.987711e-01 9.447254e-01 1.181523e+00 1.038674e+00 
8.324475e-01 8.027102e-01 8.622815e-01 8.490392e-01 4.894228e-01 5.078510e-01 5.790462e-01 1.163464e+00 2.656433e+00 3.513022e+00 3.463454e+00 2.832644e+00 1.995933e+00 1.457692e+00 1.494103e+00 1.571135e+00 1.618758e+00 1.571135e+00 1.494103e+00 1.457692e+00 1.995933e+00 2.832644e+00 3.463454e+00 3.513022e+00 2.656433e+00 1.163464e+00 5.790462e-01 5.078510e-01 4.894228e-01 8.490392e-01 8.622815e-01 8.027102e-01 
6.446440e-01 6.160345e-01 6.391674e-01 6.239067e-01 4.530028e-01 2.284827e-01 5.047623e-01 3.286495e-01 6.611722e-01 1.216345e+00 1.930922e+00 2.206934e+00 2.290412e+00 2.072795e+00 1.701613e+00 1.076547e+00 1.551336e-01 1.076547e+00 1.701613e+00 2.072795e+00 2.290412e+00 2.206934e+00 1.930922e+00 1.216345e+00 6.611722e-01 3.286495e-01 5.047623e-01 2.284827e-01 4.530028e-01 6.239067e-01 6.391674e-01 6.160345e-01 
5.011748e-01 4.846647e-01 4.909743e-01 4.883956e-01 3.975956e-01 2.883169e-01 5.885034e-02 3.273715e-01 5.180612e-01 6.071742e-01 8.176821e-01 8.814029e-01 7.454434e-01 7.084183e-01 5.391906e-01 3.726692e-01 4.538290e-01 3.726692e-01 5.391906e-01 7.084183e-01 7.454434e-01 8.814029e-01 8.176821e-01 6.071742e-01 5.180612e-01 3.273715e-01 5.885034e-02 2.883169e-01 3.975956e-01 4.883956e-01 4.909743e-01 4.846647e-01 
3.886965e-01 3.781698e-01 3.830216e-01 3.843869e-01 3.483356e-01 3.308596e-01 2.731380e-01 3.007293e-01 3.224838e-01 2.287433e-01 5.518036e-01 9.302943e-01 8.615711e-01 3.908156e-01 7.689727e-02 2.423706e-01 4.099277e-01 2.423706e-01 7.689727e-02 3.908156e-01 8.615711e-01 9.302943e-01 5.518036e-01 2.287433e-01 3.224838e-01 3.007293e-01 2.731380e-01 3.308596e-01 3.483356e-01 3.843869e-01 3.830216e-01 3.781698e-01 
3.037660e-01 2.986571e-01 3.037115e-01 3.087261e-01 2.936861e-01 2.872564e-01 2.831391e-01 2.555951e-01 3.405531e-01 4.435387e-01 3.815887e-01 2.011217e-01 4.294898e-01 4.556540e-01 2.738060e-01 3.477847e-01 4.368443e-01 3.477847e-01 2.738060e-01 4.556540e-01 4.294898e-01 2.011217e-01 3.815887e-01 4.435387e-01 3.405531e-01 2.555951e-01 2.831391e-01 2.872564e-01 2.936861e-01 3.087261e-01 3.037115e-01 2.986571e-01 
2.339349e-01 2.339279e-01 2.419515e-01 2.559154e-01 2.591032e-01 2.730560e-01 2.873197e-01 3.015272e-01 3.194466e-01 3.305332e-01 3.892285e-01 4.358579e-01 4.594170e-01 5.007149e-01 4.443805e-01 3.491509e-01 1.128072e-01 3.491509e-01 4.443805e-01 5.007149e-01 4.594170e-01 4.358579e-01 3.892285e-01 3.305332e-01 3.194466e-01 3.015272e-01 2.873197e-01 2.730560e-01 2.591032e-01 2.559154e-01 2.419515e-01 2.339279e-01 
1.759241e-01 1.777542e-01 1.892041e-01 2.049061e-01 2.184040e-01 2.329204e-01 2.553777e-01 2.751864e-01 3.124785e-01 3.502563e-01 3.728211e-01 3.809574e-01 3.918397e-01 4.574581e-01 4.159772e-01 2.570666e-01 2.017820e-01 2.570666e-01 4.159772e-01 4.574581e-01 3.918397e-01 3.809574e-01 3.728211e-01 3.502563e-01 3.124785e-01 2.751864e-01 2.553777e-01 2.329204e-01 2.184040e-01 2.049061e-01 1.892041e-01 1.777542e-01 
1.266580e-01 1.324117e-01 1.476726e-01 1.703017e-01 1.895213e-01 2.110342e-01 2.279878e-01 2.472643e-01 2.588382e-01 2.636562e-01 2.817013e-01 2.938269e-01 2.985986e-01 3.545252e-01 3.610465e-01 5.374605e-02 4.010517e-01 5.374605e-02 3.610465e-01 3.545252e-01 2.985986e-01 2.938269e-01 2.817013e-01 2.636562e-01 2.588382e-01 2.472643e-01 2.279878e-01 2.110342e-01 1.895213e-01 1.703017e-01 1.476726e-01 1.324117e-01 
8.119021e-02 8.988906e-02 1.124766e-01 1.397183e-01 1.670702e-01 1.911096e-01 2.155715e-01 2.347977e-01 2.542971e-01 2.587639e-01 2.565157e-01 2.309775e-01 2.034085e-01 1.729315e-01 2.257672e-01 1.856390e-01 2.073698e-01 1.856390e-01 2.257672e-01 1.729315e-01 2.034085e-01 2.309775e-01 2.565157e-01 2.587639e-01 2.542971e-01 2.347977e-01 2.155715e-01 1.911096e-01 1.670702e-01 1.397183e-01 1.124766e-01 8.988906e-02 
4.022471e-02 5.664945e-02 8.722209e-02 1.203110e-01 1.492229e-01 1.754664e-01 1.958700e-01 2.125438e-01 2.231886e-01 2.228869e-01 2.185258e-01 1.973661e-01 1.643247e-01 1.153851e-01 7.281990e-02 1.084925e-01 3.255606e-02 1.084925e-01 7.281990e-02 1.153851e-01 1.643247e-01 1.973661e-01 2.185258e-01 2.228869e-01 2.231886e-01 2.125438e-01 1.958700e-01 1.754664e-01 1.492229e-01 1.203110e-01 8.722209e-02 5.664945e-02 
