# vtk DataFile Version 2.0
Comment goes here
ASCII

DATASET STRUCTURED_POINTS
FIELD FieldData 1
TIME 1 1 double
1.24000000
DIMENSIONS    32   32   1

ORIGIN    0.000   0.000   0.000
SPACING   0.03125 0.03125   1.000

POINT_DATA   1024
SCALARS uMag double
LOOKUP_TABLE default

1.573973e-13 1.583607e-03 1.588318e-02 6.963648e-02 1.498908e-01 2.879679e-01 4.439078e-01 6.474981e-01 8.373822e-01 1.037992e+00 1.179447e+00 1.280440e+00 1.276873e+00 1.178221e+00 9.297625e-01 5.287916e-01 5.495895e-13 5.287916e-01 9.297625e-01 1.178221e+00 1.276873e+00 1.280440e+00 1.179447e+00 1.037992e+00 8.373822e-01 6.474981e-01 4.439078e-01 2.879679e-01 1.498908e-01 6.963648e-02 1.588318e-02 1.583607e-03 
1.583607e-03 1.046753e-02 3.403648e-02 8.009010e-02 1.583518e-01 2.822153e-01 4.244295e-01 6.048784e-01 7.719683e-01 9.450605e-01 1.064652e+00 1.149690e+00 1.146353e+00 1.074552e+00 9.018867e-01 6.671472e-01 5.287916e-01 6.671472e-01 9.018867e-01 1.074552e+00 1.146353e+00 1.149690e+00 1.064652e+00 9.450605e-01 7.719683e-01 6.048784e-01 4.244295e-01 2.822153e-01 1.583518e-01 8.009010e-02 3.403648e-02 1.046753e-02 
1.363823e-02 2.805027e-02 6.651019e-02 1.170332e-01 1.992926e-01 3.010965e-01 4.148740e-01 5.487145e-01 6.616054e-01 7.807298e-01 8.505034e-01 9.092108e-01 9.112185e-01 9.051232e-01 8.996667e-01 9.239353e-01 9.570179e-01 9.239353e-01 8.996667e-01 9.051232e-01 9.112185e-01 9.092108e-01 8.505034e-01 7.807298e-01 6.616054e-01 5.487145e-01 4.148740e-01 3.010965e-01 1.992926e-01 1.170332e-01 6.651019e-02 2.805027e-02 
5.449257e-02 6.989592e-02 1.155216e-01 1.802800e-01 2.789549e-01 3.681087e-01 4.607638e-01 5.311512e-01 5.681678e-01 5.822093e-01 5.500319e-01 5.261019e-01 5.071574e-01 6.180852e-01 8.887659e-01 1.169427e+00 1.292195e+00 1.169427e+00 8.887659e-01 6.180852e-01 5.071574e-01 5.261019e-01 5.500319e-01 5.822093e-01 5.681678e-01 5.311512e-01 4.607638e-01 3.681087e-01 2.789549e-01 1.802800e-01 1.155216e-01 6.989592e-02 
1.345086e-01 1.454276e-01 1.795958e-01 2.524891e-01 3.676973e-01 4.607334e-01 5.505379e-01 5.874024e-01 5.739538e-01 5.020988e-01 3.671724e-01 2.276019e-01 2.166619e-01 4.526104e-01 8.696795e-01 1.238426e+00 1.370640e+00 1.238426e+00 8.696795e-01 4.526104e-01 2.166619e-01 2.276019e-01 3.671724e-01 5.020988e-01 5.739538e-01 5.874024e-01 5.505379e-01 4.607334e-01 3.676973e-01 2.524891e-01 1.795958e-01 1.454276e-01 
2.495313e-01 2.527396e-01 2.617100e-01 3.310025e-01 4.633205e-01 5.706862e-01 6.810545e-01 7.153051e-01 7.025824e-01 6.039326e-01 4.385686e-01 2.200434e-01 2.195398e-01 4.401674e-01 9.647361e-01 1.341113e+00 1.388396e+00 1.341113e+00 9.647361e-01 4.401674e-01 2.195398e-01 2.200434e-01 4.385686e-01 6.039326e-01 7.025824e-01 7.153051e-01 6.810545e-01 5.706862e-01 4.633205e-01 3.310025e-01 2.617100e-01 2.527396e-01 
4.012210e-01 3.933200e-01 3.615944e-01 4.050312e-01 5.353619e-01 6.530130e-01 7.758121e-01 8.130332e-01 8.015925e-01 6.977820e-01 5.394835e-01 3.033538e-01 3.822135e-01 4.939038e-01 9.068081e-01 1.140310e+00 1.027591e+00 1.140310e+00 9.068081e-01 4.939038e-01 3.822135e-01 3.033538e-01 5.394835e-01 6.977820e-01 8.015925e-01 8.130332e-01 7.758121e-01 6.530130e-01 5.353619e-01 4.050312e-01 3.615944e-01 3.933200e-01 
5.767860e-01 5.527505e-01 4.661089e-01 4.558741e-01 5.713055e-01 6.960144e-01 8.491546e-01 8.937865e-01 9.120845e-01 8.264206e-01 6.431183e-01 5.158585e-01 7.320159e-01 1.478321e+00 1.650473e+00 1.207805e+00 6.349639e-01 1.207805e+00 1.650473e+00 1.478321e+00 7.320159e-01 5.158585e-01 6.431183e-01 8.264206e-01 9.120845e-01 8.937865e-01 8.491546e-01 6.960144e-01 5.713055e-01 4.558741e-01 4.661089e-01 5.527505e-01 
7.595679e-01 7.204577e-01 5.731624e-01 4.956530e-01 5.685231e-01 6.997743e-01 8.679419e-01 9.249089e-01 9.407885e-01 9.154202e-01 7.483317e-01 1.098147e+00 1.644066e+00 1.708625e+00 5.424753e-01 2.418422e-01 4.360159e-01 2.418422e-01 5.424753e-01 1.708625e+00 1.644066e+00 1.098147e+00 7.483317e-01 9.154202e-01 9.407885e-01 9.249089e-01 8.679419e-01 6.997743e-01 5.685231e-01 4.956530e-01 5.731624e-01 7.204577e-01 
9.404386e-01 8.818712e-01 6.713575e-01 4.979079e-01 4.976977e-01 6.204214e-01 8.332472e-01 8.827180e-01 9.826638e-01 8.960343e-01 6.180682e-01 6.733363e-01 5.169601e-01 7.664612e-01 1.212546e+00 6.895489e-01 6.061614e-01 6.895489e-01 1.212546e+00 7.664612e-01 5.169601e-01 6.733363e-01 6.180682e-01 8.960343e-01 9.826638e-01 8.827180e-01 8.332472e-01 6.204214e-01 4.976977e-01 4.979079e-01 6.713575e-01 8.818712e-01 
1.082158e+00 1.011008e+00 7.418249e-01 4.890648e-01 3.914770e-01 5.283658e-01 7.735550e-01 7.861256e-01 8.137289e-01 7.495884e-01 4.812939e-01 1.833681e-01 1.556612e-01 4.057122e-01 5.918828e-01 1.060689e+00 6.283077e-01 1.060689e+00 5.918828e-01 4.057122e-01 1.556612e-01 1.833681e-01 4.812939e-01 7.495884e-01 8.137289e-01 7.861256e-01 7.735550e-01 5.283658e-01 3.914770e-01 4.890648e-01 7.418249e-01 1.011008e+00 
1.188909e+00 1.103691e+00 8.019398e-01 4.722787e-01 2.104989e-01 3.498021e-01 6.473316e-01 6.765132e-01 1.022864e+00 1.361034e+00 2.455100e-01 5.183620e-01 4.859148e-01 5.201577e-01 7.811893e-01 3.573743e-01 5.109033e-01 3.573743e-01 7.811893e-01 5.201577e-01 4.859148e-01 5.183620e-01 2.455100e-01 1.361034e+00 1.022864e+00 6.765132e-01 6.473316e-01 3.498021e-01 2.104989e-01 4.722787e-01 8.019398e-01 1.103691e+00 
1.201458e+00 1.117585e+00 8.128099e-01 4.661034e-01 2.547657e-02 2.878774e-01 7.666135e-01 8.090602e-01 1.381057e+00 1.106511e+00 8.019524e-01 3.406009e-01 5.773707e-02 2.303906e-01 2.315188e-01 2.185093e-01 8.082529e-02 2.185093e-01 2.315188e-01 2.303906e-01 5.773707e-02 3.406009e-01 8.019524e-01 1.106511e+00 1.381057e+00 8.090602e-01 7.666135e-01 2.878774e-01 2.547657e-02 4.661034e-01 8.128099e-01 1.117585e+00 
1.125614e+00 1.058610e+00 8.395703e-01 5.705619e-01 3.262758e-01 2.170646e-01 5.529932e-01 9.001520e-01 1.798652e+00 4.894528e-01 8.958222e-01 2.563091e-01 1.920071e-01 2.225870e-01 1.055261e-01 5.075630e-02 1.889864e-01 5.075630e-02 1.055261e-01 2.225870e-01 1.920071e-01 2.563091e-01 8.958222e-01 4.894528e-01 1.798652e+00 9.001520e-01 5.529932e-01 2.170646e-01 3.262758e-01 5.705619e-01 8.395703e-01 1.058610e+00 
8.989008e-01 8.941221e-01 8.759430e-01 8.331031e-01 8.081484e-01 6.856874e-01 7.256504e-01 1.250685e+00 1.818047e+00 5.896498e-01 4.668508e-01 3.818717e-01 9.053455e-02 1.586073e-01 1.364976e-01 1.307388e-01 1.865090e-02 1.307388e-01 1.364976e-01 1.586073e-01 9.053455e-02 3.818717e-01 4.668508e-01 5.896498e-01 1.818047e+00 1.250685e+00 7.256504e-01 6.856874e-01 8.081484e-01 8.331031e-01 8.759430e-01 8.941221e-01 
5.107878e-01 6.570133e-01 9.274359e-01 1.149714e+00 1.291935e+00 1.331199e+00 1.181901e+00 1.340608e+00 8.104285e-01 7.351456e-01 1.460713e-01 3.582310e-01 2.597700e-01 1.868008e-01 1.320939e-01 5.071931e-02 3.140014e-03 5.071931e-02 1.320939e-01 1.868008e-01 2.597700e-01 3.582310e-01 1.460713e-01 7.351456e-01 8.104285e-01 1.340608e+00 1.181901e+00 1.331199e+00 1.291935e+00 1.149714e+00 9.274359e-01 6.570133e-01 
4.426176e-13 5.107878e-01 9.584586e-01 1.298660e+00 1.512567e+00 1.616180e+00 1.391191e+00 1.214772e+00 3.756015e-01 4.042503e-01 2.300431e-01 5.149749e-01 3.472546e-01 1.989391e-01 9.970927e-02 3.140014e-03 2.664364e-13 3.140014e-03 9.970927e-02 1.989391e-01 3.472546e-01 5.149749e-01 2.300431e-01 4.042503e-01 3.756015e-01 1.214772e+00 1.391191e+00 1.616180e+00 1.512567e+00 1.298660e+00 9.584586e-01 5.107878e-01 
5.107878e-01 6.570133e-01 9.274359e-01 1.149714e+00 1.291935e+00 1.331199e+00 1.181901e+00 1.340608e+00 8.104285e-01 7.351456e-01 1.460713e-01 3.582310e-01 2.597700e-01 1.868008e-01 1.320939e-01 5.071931e-02 3.140014e-03 5.071931e-02 1.320939e-01 1.868008e-01 2.597700e-01 3.582310e-01 1.460713e-01 7.351456e-01 8.104285e-01 1.340608e+00 1.181901e+00 1.331199e+00 1.291935e+00 1.149714e+00 9.274359e-01 6.570133e-01 
8.989008e-01 8.941221e-01 8.759430e-01 8.331031e-01 8.081484e-01 6.856874e-01 7.256504e-01 1.250685e+00 1.818047e+00 5.896498e-01 4.668508e-01 3.818717e-01 9.053455e-02 1.586073e-01 1.364976e-01 1.307388e-01 1.865090e-02 1.307388e-01 1.364976e-01 1.586073e-01 9.053455e-02 3.818717e-01 4.668508e-01 5.896498e-01 1.818047e+00 1.250685e+00 7.256504e-01 6.856874e-01 8.081484e-01 8.331031e-01 8.759430e-01 8.941221e-01 
1.125614e+00 1.058610e+00 8.395703e-01 5.705619e-01 3.262758e-01 2.170646e-01 5.529932e-01 9.001520e-01 1.798652e+00 4.894528e-01 8.958222e-01 2.563091e-01 1.920071e-01 2.225870e-01 1.055261e-01 5.075630e-02 1.889864e-01 5.075630e-02 1.055261e-01 2.225870e-01 1.920071e-01 2.563091e-01 8.958222e-01 4.894528e-01 1.798652e+00 9.001520e-01 5.529932e-01 2.170646e-01 3.262758e-01 5.705619e-01 8.395703e-01 1.058610e+00 
1.201458e+00 1.117585e+00 8.128099e-01 4.661034e-01 2.547657e-02 2.878774e-01 7.666135e-01 8.090602e-01 1.381057e+00 1.106511e+00 8.019524e-01 3.406009e-01 5.773707e-02 2.303906e-01 2.315188e-01 2.185093e-01 8.082529e-02 2.185093e-01 2.315188e-01 2.303906e-01 5.773707e-02 3.406009e-01 8.019524e-01 1.106511e+00 1.381057e+00 8.090602e-01 7.666135e-01 2.878774e-01 2.547657e-02 4.661034e-01 8.128099e-01 1.117585e+00 
1.188909e+00 1.103691e+00 8.019398e-01 4.722787e-01 2.104989e-01 3.498021e-01 6.473316e-01 6.765132e-01 1.022864e+00 1.361034e+00 2.455100e-01 5.183620e-01 4.859148e-01 5.201577e-01 7.811893e-01 3.573743e-01 5.109033e-01 3.573743e-01 7.811893e-01 5.201577e-01 4.859148e-01 5.183620e-01 2.455100e-01 1.361034e+00 1.022864e+00 6.765132e-01 6.473316e-01 3.498021e-01 2.104989e-01 4.722787e-01 8.019398e-01 1.103691e+00 
1.082158e+00 1.011008e+00 7.418249e-01 4.890648e-01 3.914770e-01 5.283658e-01 7.735550e-01 7.861256e-01 8.137289e-01 7.495884e-01 4.812939e-01 1.833681e-01 1.556612e-01 4.057122e-01 5.918828e-01 1.060689e+00 6.283077e-01 1.060689e+00 5.918828e-01 4.057122e-01 1.556612e-01 1.833681e-01 4.812939e-01 7.495884e-01 8.137289e-01 7.861256e-01 7.735550e-01 5.283658e-01 3.914770e-01 4.890648e-01 7.418249e-01 1.011008e+00 
9.404386e-01 8.818712e-01 6.713575e-01 4.979079e-01 4.976977e-01 6.204214e-01 8.332472e-01 8.827180e-01 9.826638e-01 8.960343e-01 6.180682e-01 6.733363e-01 5.169601e-01 7.664612e-01 1.212546e+00 6.895489e-01 6.061614e-01 6.895489e-01 1.212546e+00 7.664612e-01 5.169601e-01 6.733363e-01 6.180682e-01 8.960343e-01 9.826638e-01 8.827180e-01 8.332472e-01 6.204214e-01 4.976977e-01 4.979079e-01 6.713575e-01 8.818712e-01 
7.595679e-01 7.204577e-01 5.731624e-01 4.956530e-01 5.685231e-01 6.997743e-01 8.679419e-01 9.249089e-01 9.407885e-01 9.154202e-01 7.483317e-01 1.098147e+00 1.644066e+00 1.708625e+00 5.424753e-01 2.418422e-01 4.360159e-01 2.418422e-01 5.424753e-01 1.708625e+00 1.644066e+00 1.098147e+00 7.483317e-01 9.154202e-01 9.407885e-01 9.249089e-01 8.679419e-01 6.997743e-01 5.685231e-01 4.956530e-01 5.731624e-01 7.204577e-01 
5.767860e-01 5.527505e-01 4.661089e-01 4.558741e-01 5.713055e-01 6.960144e-01 8.491546e-01 8.937865e-01 9.120845e-01 8.264206e-01 6.431183e-01 5.158585e-01 7.320159e-01 1.478321e+00 1.650473e+00 1.207805e+00 6.349639e-01 1.207805e+00 1.650473e+00 1.478321e+00 7.320159e-01 5.158585e-01 6.431183e-01 8.264206e-01 9.120845e-01 8.937865e-01 8.491546e-01 6.960144e-01 5.713055e-01 4.558741e-01 4.661089e-01 5.527505e-01 
4.012210e-01 3.933200e-01 3.615944e-01 4.050312e-01 5.353619e-01 6.530130e-01 7.758121e-01 8.130332e-01 8.015925e-01 6.977820e-01 5.394835e-01 3.033538e-01 3.822135e-01 4.939038e-01 9.068081e-01 1.140310e+00 1.027591e+00 1.140310e+00 9.068081e-01 4.939038e-01 3.822135e-01 3.033538e-01 5.394835e-01 6.977820e-01 8.015925e-01 8.130332e-01 7.758121e-01 6.530130e-01 5.353619e-01 4.050312e-01 3.615944e-01 3.933200e-01 
2.495313e-01 2.527396e-01 2.617100e-01 3.310025e-01 4.633205e-01 5.706862e-01 6.810545e-01 7.153051e-01 7.025824e-01 6.039326e-01 4.385686e-01 2.200434e-01 2.195398e-01 4.401674e-01 9.647361e-01 1.341113e+00 1.388396e+00 1.341113e+00 9.647361e-01 4.401674e-01 2.195398e-01 2.200434e-01 4.385686e-01 6.039326e-01 7.025824e-01 7.153051e-01 6.810545e-01 5.706862e-01 4.633205e-01 3.310025e-01 2.617100e-01 2.527396e-01 
1.345086e-01 1.454276e-01 1.795958e-01 2.524891e-01 3.676973e-01 4.607334e-01 5.505379e-01 5.874024e-01 5.739538e-01 5.020988e-01 3.671724e-01 2.276019e-01 2.166619e-01 4.526104e-01 8.696795e-01 1.238426e+00 1.370640e+00 1.238426e+00 8.696795e-01 4.526104e-01 2.166619e-01 2.276019e-01 3.671724e-01 5.020988e-01 5.739538e-01 5.874024e-01 5.505379e-01 4.607334e-01 3.676973e-01 2.524891e-01 1.795958e-01 1.454276e-01 
5.449257e-02 6.989592e-02 1.155216e-01 1.802800e-01 2.789549e-01 3.681087e-01 4.607638e-01 5.311512e-01 5.681678e-01 5.822093e-01 5.500319e-01 5.261019e-01 5.071574e-01 6.180852e-01 8.887659e-01 1.169427e+00 1.292195e+00 1.169427e+00 8.887659e-01 6.180852e-01 5.071574e-01 5.261019e-01 5.500319e-01 5.822093e-01 5.681678e-01 5.311512e-01 4.607638e-01 3.681087e-01 2.789549e-01 1.802800e-01 1.155216e-01 6.989592e-02 
1.363823e-02 2.805027e-02 6.651019e-02 1.170332e-01 1.992926e-01 3.010965e-01 4.148740e-01 5.487145e-01 6.616054e-01 7.807298e-01 8.505034e-01 9.092108e-01 9.112185e-01 9.051232e-01 8.996667e-01 9.239353e-01 9.570179e-01 9.239353e-01 8.996667e-01 9.051232e-01 9.112185e-01 9.092108e-01 8.505034e-01 7.807298e-01 6.616054e-01 5.487145e-01 4.148740e-01 3.010965e-01 1.992926e-01 1.170332e-01 6.651019e-02 2.805027e-02 
1.583607e-03 1.046753e-02 3.403648e-02 8.009010e-02 1.583518e-01 2.822153e-01 4.244295e-01 6.048784e-01 7.719683e-01 9.450605e-01 1.064652e+00 1.149690e+00 1.146353e+00 1.074552e+00 9.018867e-01 6.671472e-01 5.287916e-01 6.671472e-01 9.018867e-01 1.074552e+00 1.146353e+00 1.149690e+00 1.064652e+00 9.450605e-01 7.719683e-01 6.048784e-01 4.244295e-01 2.822153e-01 1.583518e-01 8.009010e-02 3.403648e-02 1.046753e-02 
