# vtk DataFile Version 2.0
Comment goes here
ASCII

DATASET STRUCTURED_POINTS
FIELD FieldData 1
TIME 1 1 double
1.28000000
DIMENSIONS    32   32   1

ORIGIN    0.000   0.000   0.000
SPACING   0.03125 0.03125   1.000

POINT_DATA   1024
SCALARS uMag double
LOOKUP_TABLE default

2.154241e-13 3.089184e-02 4.806369e-02 2.849736e-02 2.185054e-02 1.240485e-01 2.542856e-01 4.239171e-01 5.990169e-01 7.761551e-01 9.247349e-01 1.024408e+00 1.059751e+00 9.840381e-01 8.005101e-01 4.416082e-01 7.204770e-13 4.416082e-01 8.005101e-01 9.840381e-01 1.059751e+00 1.024408e+00 9.247349e-01 7.761551e-01 5.990169e-01 4.239171e-01 2.542856e-01 1.240485e-01 2.185054e-02 2.849736e-02 4.806369e-02 3.089184e-02 
3.089184e-02 4.577072e-02 6.414856e-02 6.410721e-02 7.734443e-02 1.391347e-01 2.452012e-01 3.861162e-01 5.353279e-01 6.820844e-01 8.082906e-01 8.888518e-01 9.216035e-01 8.687606e-01 7.520192e-01 5.571030e-01 4.416082e-01 5.571030e-01 7.520192e-01 8.687606e-01 9.216035e-01 8.888518e-01 8.082906e-01 6.820844e-01 5.353279e-01 3.861162e-01 2.452012e-01 1.391347e-01 7.734443e-02 6.410721e-02 6.414856e-02 4.577072e-02 
7.790839e-02 8.793008e-02 1.078999e-01 1.274277e-01 1.636772e-01 2.092870e-01 2.749207e-01 3.615251e-01 4.444082e-01 5.349498e-01 6.043816e-01 6.570943e-01 6.915937e-01 7.001398e-01 7.406199e-01 7.658946e-01 7.750087e-01 7.658946e-01 7.406199e-01 7.001398e-01 6.915937e-01 6.570943e-01 6.043816e-01 5.349498e-01 4.444082e-01 3.615251e-01 2.749207e-01 2.092870e-01 1.636772e-01 1.274277e-01 1.078999e-01 8.793008e-02 
1.511930e-01 1.594673e-01 1.774458e-01 2.128840e-01 2.757101e-01 3.330061e-01 3.927328e-01 4.320340e-01 4.404594e-01 4.250121e-01 3.679023e-01 3.010255e-01 2.671423e-01 3.754132e-01 6.865790e-01 9.818726e-01 1.056813e+00 9.818726e-01 6.865790e-01 3.754132e-01 2.671423e-01 3.010255e-01 3.679023e-01 4.250121e-01 4.404594e-01 4.320340e-01 3.927328e-01 3.330061e-01 2.757101e-01 2.128840e-01 1.774458e-01 1.594673e-01 
2.600214e-01 2.651165e-01 2.739514e-01 3.122685e-01 3.910249e-01 4.622364e-01 5.338880e-01 5.669405e-01 5.563906e-01 5.037007e-01 3.903737e-01 2.430875e-01 6.088813e-02 2.135489e-01 6.248636e-01 9.789950e-01 1.061427e+00 9.789950e-01 6.248636e-01 2.135489e-01 6.088813e-02 2.430875e-01 3.903737e-01 5.037007e-01 5.563906e-01 5.669405e-01 5.338880e-01 4.622364e-01 3.910249e-01 3.122685e-01 2.739514e-01 2.651165e-01 
4.050832e-01 4.033273e-01 3.869327e-01 4.109096e-01 4.962605e-01 5.822204e-01 6.833786e-01 7.366808e-01 7.583017e-01 7.426999e-01 6.682786e-01 6.030055e-01 5.261812e-01 4.535397e-01 6.996372e-01 1.134462e+00 1.134035e+00 1.134462e+00 6.996372e-01 4.535397e-01 5.261812e-01 6.030055e-01 6.682786e-01 7.426999e-01 7.583017e-01 7.366808e-01 6.833786e-01 5.822204e-01 4.962605e-01 4.109096e-01 3.869327e-01 4.033273e-01 
5.773399e-01 5.668563e-01 5.174292e-01 5.125343e-01 5.844029e-01 6.726738e-01 7.889068e-01 8.547771e-01 9.029023e-01 9.167097e-01 8.915216e-01 8.490089e-01 7.655625e-01 5.634244e-01 5.386182e-01 7.747480e-01 6.145343e-01 7.747480e-01 5.386182e-01 5.634244e-01 7.655625e-01 8.490089e-01 8.915216e-01 9.167097e-01 9.029023e-01 8.547771e-01 7.889068e-01 6.726738e-01 5.844029e-01 5.125343e-01 5.174292e-01 5.668563e-01 
7.752728e-01 7.508133e-01 6.501349e-01 5.870030e-01 6.174430e-01 6.891717e-01 8.252967e-01 8.944227e-01 9.833791e-01 1.048477e+00 1.020820e+00 1.160549e+00 1.227467e+00 1.625949e+00 1.737517e+00 1.231447e+00 3.475148e-01 1.231447e+00 1.737517e+00 1.625949e+00 1.227467e+00 1.160549e+00 1.020820e+00 1.048477e+00 9.833791e-01 8.944227e-01 8.252967e-01 6.891717e-01 6.174430e-01 5.870030e-01 6.501349e-01 7.508133e-01 
9.637274e-01 9.265973e-01 7.726029e-01 6.500187e-01 6.169535e-01 6.680342e-01 8.042299e-01 8.773539e-01 9.977882e-01 1.124716e+00 1.204579e+00 1.699620e+00 1.942229e+00 2.180426e+00 1.478259e+00 1.090637e+00 1.365455e+00 1.090637e+00 1.478259e+00 2.180426e+00 1.942229e+00 1.699620e+00 1.204579e+00 1.124716e+00 9.977882e-01 8.773539e-01 8.042299e-01 6.680342e-01 6.169535e-01 6.500187e-01 7.726029e-01 9.265973e-01 
1.152786e+00 1.097876e+00 8.852926e-01 6.796405e-01 5.399829e-01 5.248432e-01 6.613895e-01 6.823689e-01 9.005166e-01 1.000918e+00 1.098832e+00 8.064148e-01 4.482771e-01 9.042333e-01 1.664868e+00 9.883931e-01 4.813553e-01 9.883931e-01 1.664868e+00 9.042333e-01 4.482771e-01 8.064148e-01 1.098832e+00 1.000918e+00 9.005166e-01 6.823689e-01 6.613895e-01 5.248432e-01 5.399829e-01 6.796405e-01 8.852926e-01 1.097876e+00 
1.277711e+00 1.211558e+00 9.478520e-01 6.838615e-01 4.286056e-01 3.710713e-01 4.750884e-01 4.547366e-01 6.440289e-01 3.558755e-01 4.556548e-01 6.898612e-01 9.189820e-01 1.175870e+00 4.125680e-01 3.134602e-01 3.120135e-02 3.134602e-01 4.125680e-01 1.175870e+00 9.189820e-01 6.898612e-01 4.556548e-01 3.558755e-01 6.440289e-01 4.547366e-01 4.750884e-01 3.710713e-01 4.286056e-01 6.838615e-01 9.478520e-01 1.211558e+00 
1.371457e+00 1.292967e+00 1.005630e+00 6.924533e-01 3.202325e-01 1.224887e-01 1.423168e-01 1.316919e-01 3.658550e-01 1.159741e+00 6.670574e-01 1.737451e-01 5.628679e-01 3.963836e-01 5.186311e-01 7.039202e-01 1.075412e+00 7.039202e-01 5.186311e-01 3.963836e-01 5.628679e-01 1.737451e-01 6.670574e-01 1.159741e+00 3.658550e-01 1.316919e-01 1.423168e-01 1.224887e-01 3.202325e-01 6.924533e-01 1.005630e+00 1.292967e+00 
1.340083e+00 1.265477e+00 9.860665e-01 6.759343e-01 2.968521e-01 1.399871e-01 4.037449e-01 3.257542e-01 8.213610e-01 1.258941e+00 2.197843e-01 5.602397e-01 9.841359e-01 4.179120e-01 3.838095e-01 3.727692e-01 5.273054e-01 3.727692e-01 3.838095e-01 4.179120e-01 9.841359e-01 5.602397e-01 2.197843e-01 1.258941e+00 8.213610e-01 3.257542e-01 4.037449e-01 1.399871e-01 2.968521e-01 6.759343e-01 9.860665e-01 1.265477e+00 
1.237684e+00 1.183266e+00 9.989698e-01 7.777302e-01 5.812133e-01 4.171958e-01 5.800333e-01 4.816356e-01 1.539793e+00 7.945604e-01 4.663637e-01 9.723090e-01 5.392391e-01 2.192013e-01 2.802696e-01 3.509655e-01 5.693475e-01 3.509655e-01 2.802696e-01 2.192013e-01 5.392391e-01 9.723090e-01 4.663637e-01 7.945604e-01 1.539793e+00 4.816356e-01 5.800333e-01 4.171958e-01 5.812133e-01 7.777302e-01 9.989698e-01 1.183266e+00 
9.577723e-01 9.703043e-01 9.834310e-01 9.893205e-01 1.014317e+00 9.857563e-01 1.109351e+00 1.222898e+00 1.599341e+00 3.625104e-01 6.466041e-01 1.175785e+00 4.227541e-01 4.283749e-01 2.791275e-01 2.489211e-01 2.332259e-01 2.489211e-01 2.791275e-01 4.283749e-01 4.227541e-01 1.175785e+00 6.466041e-01 3.625104e-01 1.599341e+00 1.222898e+00 1.109351e+00 9.857563e-01 1.014317e+00 9.893205e-01 9.834310e-01 9.703043e-01 
5.486581e-01 7.085716e-01 1.007292e+00 1.260939e+00 1.439012e+00 1.483680e+00 1.424103e+00 1.321430e+00 7.634666e-01 3.373870e-01 9.671647e-01 7.297690e-01 1.573732e-01 2.252943e-01 1.194215e-01 1.313150e-01 1.295699e-01 1.313150e-01 1.194215e-01 2.252943e-01 1.573732e-01 7.297690e-01 9.671647e-01 3.373870e-01 7.634666e-01 1.321430e+00 1.424103e+00 1.483680e+00 1.439012e+00 1.260939e+00 1.007292e+00 7.085716e-01 
5.577874e-13 5.486581e-01 1.044494e+00 1.424640e+00 1.675412e+00 1.741564e+00 1.591914e+00 1.305729e+00 5.512407e-01 5.607740e-01 1.069764e+00 2.086557e-01 4.876567e-02 1.805952e-01 1.207487e-01 1.295699e-01 1.854133e-13 1.295699e-01 1.207487e-01 1.805952e-01 4.876567e-02 2.086557e-01 1.069764e+00 5.607740e-01 5.512407e-01 1.305729e+00 1.591914e+00 1.741564e+00 1.675412e+00 1.424640e+00 1.044494e+00 5.486581e-01 
5.486581e-01 7.085716e-01 1.007292e+00 1.260939e+00 1.439012e+00 1.483680e+00 1.424103e+00 1.321430e+00 7.634666e-01 3.373870e-01 9.671647e-01 7.297690e-01 1.573732e-01 2.252943e-01 1.194215e-01 1.313150e-01 1.295699e-01 1.313150e-01 1.194215e-01 2.252943e-01 1.573732e-01 7.297690e-01 9.671647e-01 3.373870e-01 7.634666e-01 1.321430e+00 1.424103e+00 1.483680e+00 1.439012e+00 1.260939e+00 1.007292e+00 7.085716e-01 
9.577723e-01 9.703043e-01 9.834310e-01 9.893205e-01 1.014317e+00 9.857563e-01 1.109351e+00 1.222898e+00 1.599341e+00 3.625104e-01 6.466041e-01 1.175785e+00 4.227541e-01 4.283749e-01 2.791275e-01 2.489211e-01 2.332259e-01 2.489211e-01 2.791275e-01 4.283749e-01 4.227541e-01 1.175785e+00 6.466041e-01 3.625104e-01 1.599341e+00 1.222898e+00 1.109351e+00 9.857563e-01 1.014317e+00 9.893205e-01 9.834310e-01 9.703043e-01 
1.237684e+00 1.183266e+00 9.989698e-01 7.777302e-01 5.812133e-01 4.171958e-01 5.800333e-01 4.816356e-01 1.539793e+00 7.945604e-01 4.663637e-01 9.723090e-01 5.392391e-01 2.192013e-01 2.802696e-01 3.509655e-01 5.693475e-01 3.509655e-01 2.802696e-01 2.192013e-01 5.392391e-01 9.723090e-01 4.663637e-01 7.945604e-01 1.539793e+00 4.816356e-01 5.800333e-01 4.171958e-01 5.812133e-01 7.777302e-01 9.989698e-01 1.183266e+00 
1.340083e+00 1.265477e+00 9.860665e-01 6.759343e-01 2.968521e-01 1.399871e-01 4.037449e-01 3.257542e-01 8.213610e-01 1.258941e+00 2.197843e-01 5.602397e-01 9.841359e-01 4.179120e-01 3.838095e-01 3.727692e-01 5.273054e-01 3.727692e-01 3.838095e-01 4.179120e-01 9.841359e-01 5.602397e-01 2.197843e-01 1.258941e+00 8.213610e-01 3.257542e-01 4.037449e-01 1.399871e-01 2.968521e-01 6.759343e-01 9.860665e-01 1.265477e+00 
1.371457e+00 1.292967e+00 1.005630e+00 6.924533e-01 3.202325e-01 1.224887e-01 1.423168e-01 1.316919e-01 3.658550e-01 1.159741e+00 6.670574e-01 1.737451e-01 5.628679e-01 3.963836e-01 5.186311e-01 7.039202e-01 1.075412e+00 7.039202e-01 5.186311e-01 3.963836e-01 5.628679e-01 1.737451e-01 6.670574e-01 1.159741e+00 3.658550e-01 1.316919e-01 1.423168e-01 1.224887e-01 3.202325e-01 6.924533e-01 1.005630e+00 1.292967e+00 
1.277711e+00 1.211558e+00 9.478520e-01 6.838615e-01 4.286056e-01 3.710713e-01 4.750884e-01 4.547366e-01 6.440289e-01 3.558755e-01 4.556548e-01 6.898612e-01 9.189820e-01 1.175870e+00 4.125680e-01 3.134602e-01 3.120135e-02 3.134602e-01 4.125680e-01 1.175870e+00 9.189820e-01 6.898612e-01 4.556548e-01 3.558755e-01 6.440289e-01 4.547366e-01 4.750884e-01 3.710713e-01 4.286056e-01 6.838615e-01 9.478520e-01 1.211558e+00 
1.152786e+00 1.097876e+00 8.852926e-01 6.796405e-01 5.399829e-01 5.248432e-01 6.613895e-01 6.823689e-01 9.005166e-01 1.000918e+00 1.098832e+00 8.064148e-01 4.482771e-01 9.042333e-01 1.664868e+00 9.883931e-01 4.813553e-01 9.883931e-01 1.664868e+00 9.042333e-01 4.482771e-01 8.064148e-01 1.098832e+00 1.000918e+00 9.005166e-01 6.823689e-01 6.613895e-01 5.248432e-01 5.399829e-01 6.796405e-01 8.852926e-01 1.097876e+00 
9.637274e-01 9.265973e-01 7.726029e-01 6.500187e-01 6.169535e-01 6.680342e-01 8.042299e-01 8.773539e-01 9.977882e-01 1.124716e+00 1.204579e+00 1.699620e+00 1.942229e+00 2.180426e+00 1.478259e+00 1.090637e+00 1.365455e+00 1.090637e+00 1.478259e+00 2.180426e+00 1.942229e+00 1.699620e+00 1.204579e+00 1.124716e+00 9.977882e-01 8.773539e-01 8.042299e-01 6.680342e-01 6.169535e-01 6.500187e-01 7.726029e-01 9.265973e-01 
7.752728e-01 7.508133e-01 6.501349e-01 5.870030e-01 6.174430e-01 6.891717e-01 8.252967e-01 8.944227e-01 9.833791e-01 1.048477e+00 1.020820e+00 1.160549e+00 1.227467e+00 1.625949e+00 1.737517e+00 1.231447e+00 3.475148e-01 1.231447e+00 1.737517e+00 1.625949e+00 1.227467e+00 1.160549e+00 1.020820e+00 1.048477e+00 9.833791e-01 8.944227e-01 8.252967e-01 6.891717e-01 6.174430e-01 5.870030e-01 6.501349e-01 7.508133e-01 
5.773399e-01 5.668563e-01 5.174292e-01 5.125343e-01 5.844029e-01 6.726738e-01 7.889068e-01 8.547771e-01 9.029023e-01 9.167097e-01 8.915216e-01 8.490089e-01 7.655625e-01 5.634244e-01 5.386182e-01 7.747480e-01 6.145343e-01 7.747480e-01 5.386182e-01 5.634244e-01 7.655625e-01 8.490089e-01 8.915216e-01 9.167097e-01 9.029023e-01 8.547771e-01 7.889068e-01 6.726738e-01 5.844029e-01 5.125343e-01 5.174292e-01 5.668563e-01 
4.050832e-01 4.033273e-01 3.869327e-01 4.109096e-01 4.962605e-01 5.822204e-01 6.833786e-01 7.366808e-01 7.583017e-01 7.426999e-01 6.682786e-01 6.030055e-01 5.261812e-01 4.535397e-01 6.996372e-01 1.134462e+00 1.134035e+00 1.134462e+00 6.996372e-01 4.535397e-01 5.261812e-01 6.030055e-01 6.682786e-01 7.426999e-01 7.583017e-01 7.366808e-01 6.833786e-01 5.822204e-01 4.962605e-01 4.109096e-01 3.869327e-01 4.033273e-01 
2.600214e-01 2.651165e-01 2.739514e-01 3.122685e-01 3.910249e-01 4.622364e-01 5.338880e-01 5.669405e-01 5.563906e-01 5.037007e-01 3.903737e-01 2.430875e-01 6.088813e-02 2.135489e-01 6.248636e-01 9.789950e-01 1.061427e+00 9.789950e-01 6.248636e-01 2.135489e-01 6.088813e-02 2.430875e-01 3.903737e-01 5.037007e-01 5.563906e-01 5.669405e-01 5.338880e-01 4.622364e-01 3.910249e-01 3.122685e-01 2.739514e-01 2.651165e-01 
1.511930e-01 1.594673e-01 1.774458e-01 2.128840e-01 2.757101e-01 3.330061e-01 3.927328e-01 4.320340e-01 4.404594e-01 4.250121e-01 3.679023e-01 3.010255e-01 2.671423e-01 3.754132e-01 6.865790e-01 9.818726e-01 1.056813e+00 9.818726e-01 6.865790e-01 3.754132e-01 2.671423e-01 3.010255e-01 3.679023e-01 4.250121e-01 4.404594e-01 4.320340e-01 3.927328e-01 3.330061e-01 2.757101e-01 2.128840e-01 1.774458e-01 1.594673e-01 
7.790839e-02 8.793008e-02 1.078999e-01 1.274277e-01 1.636772e-01 2.092870e-01 2.749207e-01 3.615251e-01 4.444082e-01 5.349498e-01 6.043816e-01 6.570943e-01 6.915937e-01 7.001398e-01 7.406199e-01 7.658946e-01 7.750087e-01 7.658946e-01 7.406199e-01 7.001398e-01 6.915937e-01 6.570943e-01 6.043816e-01 5.349498e-01 4.444082e-01 3.615251e-01 2.749207e-01 2.092870e-01 1.636772e-01 1.274277e-01 1.078999e-01 8.793008e-02 
3.089184e-02 4.577072e-02 6.414856e-02 6.410721e-02 7.734443e-02 1.391347e-01 2.452012e-01 3.861162e-01 5.353279e-01 6.820844e-01 8.082906e-01 8.888518e-01 9.216035e-01 8.687606e-01 7.520192e-01 5.571030e-01 4.416082e-01 5.571030e-01 7.520192e-01 8.687606e-01 9.216035e-01 8.888518e-01 8.082906e-01 6.820844e-01 5.353279e-01 3.861162e-01 2.452012e-01 1.391347e-01 7.734443e-02 6.410721e-02 6.414856e-02 4.577072e-02 
