# vtk DataFile Version 2.0
Comment goes here
ASCII

DATASET STRUCTURED_POINTS
FIELD FieldData 1
TIME 1 1 double
0.28000000
DIMENSIONS    32   32   1

ORIGIN    0.000   0.000   0.000
SPACING   0.03125 0.03125   1.000

POINT_DATA   1024
SCALARS uMag double
LOOKUP_TABLE default

3.294529e-15 1.261067e-01 2.552505e-01 3.825296e-01 5.157799e-01 6.422602e-01 7.705463e-01 8.840598e-01 9.892420e-01 1.073530e+00 1.141646e+00 1.198629e+00 1.231719e+00 1.243921e+00 1.124127e+00 7.854970e-01 1.001691e-14 7.854970e-01 1.124127e+00 1.243921e+00 1.231719e+00 1.198629e+00 1.141646e+00 1.073530e+00 9.892420e-01 8.840598e-01 7.705463e-01 6.422602e-01 5.157799e-01 3.825296e-01 2.552505e-01 1.261067e-01 
1.261067e-01 1.792975e-01 2.854124e-01 4.043207e-01 5.324313e-01 6.566659e-01 7.819511e-01 8.935496e-01 9.938311e-01 1.071396e+00 1.128253e+00 1.170892e+00 1.193145e+00 1.192569e+00 1.088262e+00 9.098012e-01 7.854970e-01 9.098012e-01 1.088262e+00 1.192569e+00 1.193145e+00 1.170892e+00 1.128253e+00 1.071396e+00 9.938311e-01 8.935496e-01 7.819511e-01 6.566659e-01 5.324313e-01 4.043207e-01 2.854124e-01 1.792975e-01 
2.518683e-01 2.835346e-01 3.602504e-01 4.620913e-01 5.814356e-01 7.012003e-01 8.276440e-01 9.391831e-01 1.041038e+00 1.111028e+00 1.153011e+00 1.159505e+00 1.123601e+00 1.063234e+00 9.991131e-01 1.180905e+00 1.430836e+00 1.180905e+00 9.991131e-01 1.063234e+00 1.123601e+00 1.159505e+00 1.153011e+00 1.111028e+00 1.041038e+00 9.391831e-01 8.276440e-01 7.012003e-01 5.814356e-01 4.620913e-01 3.602504e-01 2.835346e-01 
3.740568e-01 3.990439e-01 4.587281e-01 5.489648e-01 6.601778e-01 7.782435e-01 9.049578e-01 1.018061e+00 1.114664e+00 1.166250e+00 1.165622e+00 1.104084e+00 9.918254e-01 8.893765e-01 9.769256e-01 1.462728e+00 1.810701e+00 1.462728e+00 9.769256e-01 8.893765e-01 9.918254e-01 1.104084e+00 1.165622e+00 1.166250e+00 1.114664e+00 1.018061e+00 9.049578e-01 7.782435e-01 6.601778e-01 5.489648e-01 4.587281e-01 3.990439e-01 
4.938995e-01 5.164505e-01 5.669425e-01 6.506193e-01 7.598566e-01 8.800246e-01 1.018113e+00 1.140254e+00 1.247689e+00 1.303862e+00 1.312369e+00 1.225493e+00 1.024691e+00 8.993931e-01 1.120997e+00 1.664094e+00 1.938515e+00 1.664094e+00 1.120997e+00 8.993931e-01 1.024691e+00 1.225493e+00 1.312369e+00 1.303862e+00 1.247689e+00 1.140254e+00 1.018113e+00 8.800246e-01 7.598566e-01 6.506193e-01 5.669425e-01 5.164505e-01 
6.002133e-01 6.256280e-01 6.771358e-01 7.693694e-01 8.895153e-01 1.029262e+00 1.190652e+00 1.342629e+00 1.481544e+00 1.565069e+00 1.564955e+00 1.487650e+00 1.345208e+00 1.290410e+00 1.477719e+00 1.808736e+00 1.954441e+00 1.808736e+00 1.477719e+00 1.290410e+00 1.345208e+00 1.487650e+00 1.564955e+00 1.565069e+00 1.481544e+00 1.342629e+00 1.190652e+00 1.029262e+00 8.895153e-01 7.693694e-01 6.771358e-01 6.256280e-01 
6.965505e-01 7.281817e-01 7.869607e-01 8.957010e-01 1.037461e+00 1.203110e+00 1.408785e+00 1.605611e+00 1.811453e+00 2.006238e+00 2.187343e+00 2.136484e+00 1.856949e+00 1.777674e+00 1.909284e+00 2.033432e+00 2.143255e+00 2.033432e+00 1.909284e+00 1.777674e+00 1.856949e+00 2.136484e+00 2.187343e+00 2.006238e+00 1.811453e+00 1.605611e+00 1.408785e+00 1.203110e+00 1.037461e+00 8.957010e-01 7.869607e-01 7.281817e-01 
7.539146e-01 7.984275e-01 8.808269e-01 1.030301e+00 1.214652e+00 1.436422e+00 1.710314e+00 2.059666e+00 2.516430e+00 2.690905e+00 2.352686e+00 1.980144e+00 2.031827e+00 2.307738e+00 2.337862e+00 2.284445e+00 2.474121e+00 2.284445e+00 2.337862e+00 2.307738e+00 2.031827e+00 1.980144e+00 2.352686e+00 2.690905e+00 2.516430e+00 2.059666e+00 1.710314e+00 1.436422e+00 1.214652e+00 1.030301e+00 8.808269e-01 7.984275e-01 
7.796693e-01 8.483626e-01 9.673516e-01 1.173418e+00 1.410143e+00 1.703986e+00 2.189657e+00 2.739400e+00 2.739591e+00 1.736018e+00 1.258726e+00 1.550747e+00 1.776141e+00 2.237970e+00 2.408333e+00 2.492952e+00 2.761790e+00 2.492952e+00 2.408333e+00 2.237970e+00 1.776141e+00 1.550747e+00 1.258726e+00 1.736018e+00 2.739591e+00 2.739400e+00 2.189657e+00 1.703986e+00 1.410143e+00 1.173418e+00 9.673516e-01 8.483626e-01 
7.172235e-01 8.198955e-01 1.006982e+00 1.308277e+00 1.645461e+00 2.116812e+00 2.660080e+00 2.649762e+00 1.349082e+00 2.944833e-01 1.058828e+00 1.678943e+00 2.164052e+00 2.511984e+00 2.536294e+00 2.561546e+00 2.621781e+00 2.561546e+00 2.536294e+00 2.511984e+00 2.164052e+00 1.678943e+00 1.058828e+00 2.944833e-01 1.349082e+00 2.649762e+00 2.660080e+00 2.116812e+00 1.645461e+00 1.308277e+00 1.006982e+00 8.198955e-01 
5.917157e-01 7.569350e-01 1.036914e+00 1.472663e+00 1.888298e+00 2.338769e+00 2.734526e+00 2.061794e+00 6.836904e-01 1.283643e+00 1.983894e+00 2.880261e+00 3.231798e+00 3.055288e+00 2.492541e+00 1.803262e+00 1.411394e+00 1.803262e+00 2.492541e+00 3.055288e+00 3.231798e+00 2.880261e+00 1.983894e+00 1.283643e+00 6.836904e-01 2.061794e+00 2.734526e+00 2.338769e+00 1.888298e+00 1.472663e+00 1.036914e+00 7.569350e-01 
3.416783e-01 5.701064e-01 9.576680e-01 1.514822e+00 1.980125e+00 2.581388e+00 2.978253e+00 1.737232e+00 1.758297e+00 2.209389e+00 2.918292e+00 3.059397e+00 2.574665e+00 1.989315e+00 1.396803e+00 8.717243e-01 6.462358e-01 8.717243e-01 1.396803e+00 1.989315e+00 2.574665e+00 3.059397e+00 2.918292e+00 2.209389e+00 1.758297e+00 1.737232e+00 2.978253e+00 2.581388e+00 1.980125e+00 1.514822e+00 9.576680e-01 5.701064e-01 
5.715266e-02 3.776677e-01 8.268002e-01 1.518536e+00 2.117990e+00 3.245989e+00 3.003432e+00 1.857773e+00 2.711514e+00 2.481674e+00 2.261447e+00 1.752598e+00 1.542571e+00 1.378507e+00 1.127949e+00 8.141503e-01 6.844303e-01 8.141503e-01 1.127949e+00 1.378507e+00 1.542571e+00 1.752598e+00 2.261447e+00 2.481674e+00 2.711514e+00 1.857773e+00 3.003432e+00 3.245989e+00 2.117990e+00 1.518536e+00 8.268002e-01 3.776677e-01 
2.350105e-01 2.500426e-01 6.367985e-01 1.207073e+00 2.317925e+00 3.730722e+00 2.824722e+00 3.043106e+00 2.534740e+00 1.907718e+00 1.523191e+00 1.519416e+00 1.547770e+00 1.325684e+00 9.905785e-01 6.575666e-01 5.256663e-01 6.575666e-01 9.905785e-01 1.325684e+00 1.547770e+00 1.519416e+00 1.523191e+00 1.907718e+00 2.534740e+00 3.043106e+00 2.824722e+00 3.730722e+00 2.317925e+00 1.207073e+00 6.367985e-01 2.500426e-01 
4.068247e-01 3.595883e-01 3.333851e-01 6.698880e-01 2.026392e+00 3.386864e+00 2.806335e+00 2.810854e+00 2.068580e+00 1.942545e+00 1.862371e+00 1.699593e+00 1.425710e+00 1.102658e+00 8.059693e-01 5.620949e-01 4.724657e-01 5.620949e-01 8.059693e-01 1.102658e+00 1.425710e+00 1.699593e+00 1.862371e+00 1.942545e+00 2.068580e+00 2.810854e+00 2.806335e+00 3.386864e+00 2.026392e+00 6.698880e-01 3.333851e-01 3.595883e-01 
3.934563e-01 4.222188e-01 5.040811e-01 3.896572e-01 1.606504e+00 2.393946e+00 3.033811e+00 2.396237e+00 2.368283e+00 2.502496e+00 2.277503e+00 1.979125e+00 1.528911e+00 1.095127e+00 6.887639e-01 3.900394e-01 2.666142e-01 3.900394e-01 6.887639e-01 1.095127e+00 1.528911e+00 1.979125e+00 2.277503e+00 2.502496e+00 2.368283e+00 2.396237e+00 3.033811e+00 2.393946e+00 1.606504e+00 3.896572e-01 5.040811e-01 4.222188e-01 
1.001754e-14 3.934563e-01 7.399787e-01 1.117529e+00 7.102594e-01 2.032134e+00 3.174528e+00 2.545323e+00 2.632880e+00 2.760458e+00 2.563621e+00 2.205598e+00 1.646412e+00 1.103805e+00 6.207248e-01 2.666142e-01 6.706142e-15 2.666142e-01 6.207248e-01 1.103805e+00 1.646412e+00 2.205598e+00 2.563621e+00 2.760458e+00 2.632880e+00 2.545323e+00 3.174528e+00 2.032134e+00 7.102594e-01 1.117529e+00 7.399787e-01 3.934563e-01 
3.934563e-01 4.222188e-01 5.040811e-01 3.896572e-01 1.606504e+00 2.393946e+00 3.033811e+00 2.396237e+00 2.368283e+00 2.502496e+00 2.277503e+00 1.979125e+00 1.528911e+00 1.095127e+00 6.887639e-01 3.900394e-01 2.666142e-01 3.900394e-01 6.887639e-01 1.095127e+00 1.528911e+00 1.979125e+00 2.277503e+00 2.502496e+00 2.368283e+00 2.396237e+00 3.033811e+00 2.393946e+00 1.606504e+00 3.896572e-01 5.040811e-01 4.222188e-01 
4.068247e-01 3.595883e-01 3.333851e-01 6.698880e-01 2.026392e+00 3.386864e+00 2.806335e+00 2.810854e+00 2.068580e+00 1.942545e+00 1.862371e+00 1.699593e+00 1.425710e+00 1.102658e+00 8.059693e-01 5.620949e-01 4.724657e-01 5.620949e-01 8.059693e-01 1.102658e+00 1.425710e+00 1.699593e+00 1.862371e+00 1.942545e+00 2.068580e+00 2.810854e+00 2.806335e+00 3.386864e+00 2.026392e+00 6.698880e-01 3.333851e-01 3.595883e-01 
2.350105e-01 2.500426e-01 6.367985e-01 1.207073e+00 2.317925e+00 3.730722e+00 2.824722e+00 3.043106e+00 2.534740e+00 1.907718e+00 1.523191e+00 1.519416e+00 1.547770e+00 1.325684e+00 9.905785e-01 6.575666e-01 5.256663e-01 6.575666e-01 9.905785e-01 1.325684e+00 1.547770e+00 1.519416e+00 1.523191e+00 1.907718e+00 2.534740e+00 3.043106e+00 2.824722e+00 3.730722e+00 2.317925e+00 1.207073e+00 6.367985e-01 2.500426e-01 
5.715266e-02 3.776677e-01 8.268002e-01 1.518536e+00 2.117990e+00 3.245989e+00 3.003432e+00 1.857773e+00 2.711514e+00 2.481674e+00 2.261447e+00 1.752598e+00 1.542571e+00 1.378507e+00 1.127949e+00 8.141503e-01 6.844303e-01 8.141503e-01 1.127949e+00 1.378507e+00 1.542571e+00 1.752598e+00 2.261447e+00 2.481674e+00 2.711514e+00 1.857773e+00 3.003432e+00 3.245989e+00 2.117990e+00 1.518536e+00 8.268002e-01 3.776677e-01 
3.416783e-01 5.701064e-01 9.576680e-01 1.514822e+00 1.980125e+00 2.581388e+00 2.978253e+00 1.737232e+00 1.758297e+00 2.209389e+00 2.918292e+00 3.059397e+00 2.574665e+00 1.989315e+00 1.396803e+00 8.717243e-01 6.462358e-01 8.717243e-01 1.396803e+00 1.989315e+00 2.574665e+00 3.059397e+00 2.918292e+00 2.209389e+00 1.758297e+00 1.737232e+00 2.978253e+00 2.581388e+00 1.980125e+00 1.514822e+00 9.576680e-01 5.701064e-01 
5.917157e-01 7.569350e-01 1.036914e+00 1.472663e+00 1.888298e+00 2.338769e+00 2.734526e+00 2.061794e+00 6.836904e-01 1.283643e+00 1.983894e+00 2.880261e+00 3.231798e+00 3.055288e+00 2.492541e+00 1.803262e+00 1.411394e+00 1.803262e+00 2.492541e+00 3.055288e+00 3.231798e+00 2.880261e+00 1.983894e+00 1.283643e+00 6.836904e-01 2.061794e+00 2.734526e+00 2.338769e+00 1.888298e+00 1.472663e+00 1.036914e+00 7.569350e-01 
7.172235e-01 8.198955e-01 1.006982e+00 1.308277e+00 1.645461e+00 2.116812e+00 2.660080e+00 2.649762e+00 1.349082e+00 2.944833e-01 1.058828e+00 1.678943e+00 2.164052e+00 2.511984e+00 2.536294e+00 2.561546e+00 2.621781e+00 2.561546e+00 2.536294e+00 2.511984e+00 2.164052e+00 1.678943e+00 1.058828e+00 2.944833e-01 1.349082e+00 2.649762e+00 2.660080e+00 2.116812e+00 1.645461e+00 1.308277e+00 1.006982e+00 8.198955e-01 
7.796693e-01 8.483626e-01 9.673516e-01 1.173418e+00 1.410143e+00 1.703986e+00 2.189657e+00 2.739400e+00 2.739591e+00 1.736018e+00 1.258726e+00 1.550747e+00 1.776141e+00 2.237970e+00 2.408333e+00 2.492952e+00 2.761790e+00 2.492952e+00 2.408333e+00 2.237970e+00 1.776141e+00 1.550747e+00 1.258726e+00 1.736018e+00 2.739591e+00 2.739400e+00 2.189657e+00 1.703986e+00 1.410143e+00 1.173418e+00 9.673516e-01 8.483626e-01 
7.539146e-01 7.984275e-01 8.808269e-01 1.030301e+00 1.214652e+00 1.436422e+00 1.710314e+00 2.059666e+00 2.516430e+00 2.690905e+00 2.352686e+00 1.980144e+00 2.031827e+00 2.307738e+00 2.337862e+00 2.284445e+00 2.474121e+00 2.284445e+00 2.337862e+00 2.307738e+00 2.031827e+00 1.980144e+00 2.352686e+00 2.690905e+00 2.516430e+00 2.059666e+00 1.710314e+00 1.436422e+00 1.214652e+00 1.030301e+00 8.808269e-01 7.984275e-01 
6.965505e-01 7.281817e-01 7.869607e-01 8.957010e-01 1.037461e+00 1.203110e+00 1.408785e+00 1.605611e+00 1.811453e+00 2.006238e+00 2.187343e+00 2.136484e+00 1.856949e+00 1.777674e+00 1.909284e+00 2.033432e+00 2.143255e+00 2.033432e+00 1.909284e+00 1.777674e+00 1.856949e+00 2.136484e+00 2.187343e+00 2.006238e+00 1.811453e+00 1.605611e+00 1.408785e+00 1.203110e+00 1.037461e+00 8.957010e-01 7.869607e-01 7.281817e-01 
6.002133e-01 6.256280e-01 6.771358e-01 7.693694e-01 8.895153e-01 1.029262e+00 1.190652e+00 1.342629e+00 1.481544e+00 1.565069e+00 1.564955e+00 1.487650e+00 1.345208e+00 1.290410e+00 1.477719e+00 1.808736e+00 1.954441e+00 1.808736e+00 1.477719e+00 1.290410e+00 1.345208e+00 1.487650e+00 1.564955e+00 1.565069e+00 1.481544e+00 1.342629e+00 1.190652e+00 1.029262e+00 8.895153e-01 7.693694e-01 6.771358e-01 6.256280e-01 
4.938995e-01 5.164505e-01 5.669425e-01 6.506193e-01 7.598566e-01 8.800246e-01 1.018113e+00 1.140254e+00 1.247689e+00 1.303862e+00 1.312369e+00 1.225493e+00 1.024691e+00 8.993931e-01 1.120997e+00 1.664094e+00 1.938515e+00 1.664094e+00 1.120997e+00 8.993931e-01 1.024691e+00 1.225493e+00 1.312369e+00 1.303862e+00 1.247689e+00 1.140254e+00 1.018113e+00 8.800246e-01 7.598566e-01 6.506193e-01 5.669425e-01 5.164505e-01 
3.740568e-01 3.990439e-01 4.587281e-01 5.489648e-01 6.601778e-01 7.782435e-01 9.049578e-01 1.018061e+00 1.114664e+00 1.166250e+00 1.165622e+00 1.104084e+00 9.918254e-01 8.893765e-01 9.769256e-01 1.462728e+00 1.810701e+00 1.462728e+00 9.769256e-01 8.893765e-01 9.918254e-01 1.104084e+00 1.165622e+00 1.166250e+00 1.114664e+00 1.018061e+00 9.049578e-01 7.782435e-01 6.601778e-01 5.489648e-01 4.587281e-01 3.990439e-01 
2.518683e-01 2.835346e-01 3.602504e-01 4.620913e-01 5.814356e-01 7.012003e-01 8.276440e-01 9.391831e-01 1.041038e+00 1.111028e+00 1.153011e+00 1.159505e+00 1.123601e+00 1.063234e+00 9.991131e-01 1.180905e+00 1.430836e+00 1.180905e+00 9.991131e-01 1.063234e+00 1.123601e+00 1.159505e+00 1.153011e+00 1.111028e+00 1.041038e+00 9.391831e-01 8.276440e-01 7.012003e-01 5.814356e-01 4.620913e-01 3.602504e-01 2.835346e-01 
1.261067e-01 1.792975e-01 2.854124e-01 4.043207e-01 5.324313e-01 6.566659e-01 7.819511e-01 8.935496e-01 9.938311e-01 1.071396e+00 1.128253e+00 1.170892e+00 1.193145e+00 1.192569e+00 1.088262e+00 9.098012e-01 7.854970e-01 9.098012e-01 1.088262e+00 1.192569e+00 1.193145e+00 1.170892e+00 1.128253e+00 1.071396e+00 9.938311e-01 8.935496e-01 7.819511e-01 6.566659e-01 5.324313e-01 4.043207e-01 2.854124e-01 1.792975e-01 
