# vtk DataFile Version 2.0
Comment goes here
ASCII

DATASET STRUCTURED_POINTS
FIELD FieldData 1
TIME 1 1 double
0.32000000
DIMENSIONS    32   32   1

ORIGIN    0.000   0.000   0.000
SPACING   0.03125 0.03125   1.000

POINT_DATA   1024
SCALARS uMag double
LOOKUP_TABLE default

2.265426e-15 3.156144e-02 6.721640e-02 1.062139e-01 1.569631e-01 2.157558e-01 2.937899e-01 3.880996e-01 5.101609e-01 6.586765e-01 8.336146e-01 1.016277e+00 1.151449e+00 1.175885e+00 9.977481e-01 6.049028e-01 2.212689e-14 6.049028e-01 9.977481e-01 1.175885e+00 1.151449e+00 1.016277e+00 8.336146e-01 6.586765e-01 5.101609e-01 3.880996e-01 2.937899e-01 2.157558e-01 1.569631e-01 1.062139e-01 6.721640e-02 3.156144e-02 
3.156144e-02 4.487608e-02 7.400432e-02 1.101667e-01 1.596440e-01 2.170189e-01 2.951437e-01 3.888492e-01 5.111110e-01 6.584242e-01 8.285556e-01 1.004053e+00 1.125015e+00 1.156721e+00 9.936862e-01 7.374169e-01 6.049028e-01 7.374169e-01 9.936862e-01 1.156721e+00 1.125015e+00 1.004053e+00 8.285556e-01 6.584242e-01 5.111110e-01 3.888492e-01 2.951437e-01 2.170189e-01 1.596440e-01 1.101667e-01 7.400432e-02 4.487608e-02 
5.947611e-02 6.893510e-02 9.044637e-02 1.241052e-01 1.710685e-01 2.286169e-01 3.057026e-01 3.961932e-01 5.096704e-01 6.315656e-01 7.547725e-01 8.327334e-01 8.214863e-01 7.474934e-01 8.106045e-01 1.000034e+00 1.086109e+00 1.000034e+00 8.106045e-01 7.474934e-01 8.214863e-01 8.327334e-01 7.547725e-01 6.315656e-01 5.096704e-01 3.961932e-01 3.057026e-01 2.286169e-01 1.710685e-01 1.241052e-01 9.044637e-02 6.893510e-02 
8.327819e-02 9.170249e-02 1.095091e-01 1.410400e-01 1.860661e-01 2.413764e-01 3.154140e-01 3.973173e-01 4.953857e-01 5.864572e-01 6.621326e-01 6.722705e-01 6.299455e-01 6.597917e-01 7.637336e-01 1.035831e+00 1.218615e+00 1.035831e+00 7.637336e-01 6.597917e-01 6.299455e-01 6.722705e-01 6.621326e-01 5.864572e-01 4.953857e-01 3.973173e-01 3.154140e-01 2.413764e-01 1.860661e-01 1.410400e-01 1.095091e-01 9.170249e-02 
9.666752e-02 1.068527e-01 1.229162e-01 1.571353e-01 2.022562e-01 2.615910e-01 3.381925e-01 4.230616e-01 5.234308e-01 6.147247e-01 6.910645e-01 6.139701e-01 1.608556e-01 7.480908e-01 1.382699e+00 1.342817e+00 1.276712e+00 1.342817e+00 1.382699e+00 7.480908e-01 1.608556e-01 6.139701e-01 6.910645e-01 6.147247e-01 5.234308e-01 4.230616e-01 3.381925e-01 2.615910e-01 2.022562e-01 1.571353e-01 1.229162e-01 1.068527e-01 
1.011802e-01 1.143632e-01 1.350393e-01 1.766275e-01 2.279198e-01 2.919805e-01 3.708111e-01 4.533430e-01 5.436042e-01 6.076706e-01 5.360628e-01 1.775554e-01 1.394495e+00 1.851334e+00 1.006779e+00 2.697928e-01 1.976278e-01 2.697928e-01 1.006779e+00 1.851334e+00 1.394495e+00 1.775554e-01 5.360628e-01 6.076706e-01 5.436042e-01 4.533430e-01 3.708111e-01 2.919805e-01 2.279198e-01 1.766275e-01 1.350393e-01 1.143632e-01 
8.979278e-02 1.109815e-01 1.381207e-01 1.916716e-01 2.457268e-01 3.165269e-01 4.002703e-01 4.922645e-01 5.819655e-01 5.450718e-01 8.064896e-02 9.413320e-01 1.072864e+00 6.674462e-01 1.126663e+00 7.713404e-01 8.457761e-01 7.713404e-01 1.126663e+00 6.674462e-01 1.072864e+00 9.413320e-01 8.064896e-02 5.450718e-01 5.819655e-01 4.922645e-01 4.002703e-01 3.165269e-01 2.457268e-01 1.916716e-01 1.381207e-01 1.109815e-01 
5.923267e-02 9.536462e-02 1.414984e-01 2.150725e-01 2.861986e-01 3.727137e-01 4.813308e-01 5.919783e-01 5.858957e-01 3.235992e-01 2.814632e-01 4.908951e-01 4.205684e-01 4.192939e-01 7.332451e-01 1.349408e+00 1.389923e+00 1.349408e+00 7.332451e-01 4.192939e-01 4.205684e-01 4.908951e-01 2.814632e-01 3.235992e-01 5.858957e-01 5.919783e-01 4.813308e-01 3.727137e-01 2.861986e-01 2.150725e-01 1.414984e-01 9.536462e-02 
7.540255e-03 8.724183e-02 1.569790e-01 2.527846e-01 3.250549e-01 4.258195e-01 5.458030e-01 5.821807e-01 3.677791e-01 1.253281e-01 1.877922e-01 2.397733e-01 4.676769e-01 1.343571e+00 1.499236e+00 8.221822e-01 4.749239e-02 8.221822e-01 1.499236e+00 1.343571e+00 4.676769e-01 2.397733e-01 1.877922e-01 1.253281e-01 3.677791e-01 5.821807e-01 5.458030e-01 4.258195e-01 3.250549e-01 2.527846e-01 1.569790e-01 8.724183e-02 
8.730940e-02 1.112509e-01 1.836671e-01 2.930091e-01 3.853633e-01 5.166053e-01 6.878728e-01 5.151846e-01 4.278723e-01 1.945093e-01 4.189902e-01 5.461547e-01 9.141614e-01 1.173133e+00 6.882109e-01 2.839323e-01 1.812227e-01 2.839323e-01 6.882109e-01 1.173133e+00 9.141614e-01 5.461547e-01 4.189902e-01 1.945093e-01 4.278723e-01 5.151846e-01 6.878728e-01 5.166053e-01 3.853633e-01 2.930091e-01 1.836671e-01 1.112509e-01 
2.066793e-01 1.961391e-01 2.541183e-01 3.937640e-01 4.967203e-01 6.758410e-01 6.708093e-01 5.699919e-01 3.869992e-01 3.791723e-01 7.654555e-01 3.762300e-01 8.668081e-01 9.369001e-01 3.670916e-01 2.484649e-01 5.202646e-01 2.484649e-01 3.670916e-01 9.369001e-01 8.668081e-01 3.762300e-01 7.654555e-01 3.791723e-01 3.869992e-01 5.699919e-01 6.708093e-01 6.758410e-01 4.967203e-01 3.937640e-01 2.541183e-01 1.961391e-01 
3.877373e-01 3.335197e-01 3.386877e-01 4.647936e-01 5.793851e-01 7.536964e-01 6.124419e-01 7.660688e-01 5.040042e-01 6.904645e-01 4.406083e-01 1.954435e-01 7.927591e-01 8.425211e-01 5.504115e-01 2.546329e-01 2.781189e-01 2.546329e-01 5.504115e-01 8.425211e-01 7.927591e-01 1.954435e-01 4.406083e-01 6.904645e-01 5.040042e-01 7.660688e-01 6.124419e-01 7.536964e-01 5.793851e-01 4.647936e-01 3.386877e-01 3.335197e-01 
5.562458e-01 4.768004e-01 4.115282e-01 4.893438e-01 7.039394e-01 8.707214e-01 8.152641e-01 9.292079e-01 4.222211e-01 9.783415e-01 3.551120e-01 1.094963e-01 6.209488e-01 6.775141e-01 5.738360e-01 2.410415e-01 3.128769e-02 2.410415e-01 5.738360e-01 6.775141e-01 6.209488e-01 1.094963e-01 3.551120e-01 9.783415e-01 4.222211e-01 9.292079e-01 8.152641e-01 8.707214e-01 7.039394e-01 4.893438e-01 4.115282e-01 4.768004e-01 
7.213744e-01 6.252565e-01 4.780779e-01 4.089559e-01 7.030445e-01 8.749918e-01 9.212957e-01 8.878197e-01 5.608916e-01 6.555262e-01 7.478778e-01 3.070562e-01 5.406317e-01 5.222560e-01 5.214228e-01 2.487007e-01 1.576742e-01 2.487007e-01 5.214228e-01 5.222560e-01 5.406317e-01 3.070562e-01 7.478778e-01 6.555262e-01 5.608916e-01 8.878197e-01 9.212957e-01 8.749918e-01 7.030445e-01 4.089559e-01 4.780779e-01 6.252565e-01 
7.490083e-01 6.882586e-01 5.535400e-01 2.190985e-01 2.862703e-01 8.293851e-01 1.262536e+00 8.254547e-01 6.711094e-01 4.743656e-01 6.944544e-01 6.802012e-01 5.041204e-01 4.572700e-01 4.121952e-01 2.322299e-01 2.076452e-01 2.322299e-01 4.121952e-01 4.572700e-01 5.041204e-01 6.802012e-01 6.944544e-01 4.743656e-01 6.711094e-01 8.254547e-01 1.262536e+00 8.293851e-01 2.862703e-01 2.190985e-01 5.535400e-01 6.882586e-01 
6.349772e-01 7.103162e-01 8.430118e-01 9.406615e-01 9.555024e-01 1.036492e+00 8.559917e-01 6.420808e-01 8.008763e-01 2.560124e-01 5.724081e-01 8.671340e-01 6.219203e-01 5.526497e-01 3.360782e-01 1.918110e-01 1.525656e-01 1.918110e-01 3.360782e-01 5.526497e-01 6.219203e-01 8.671340e-01 5.724081e-01 2.560124e-01 8.008763e-01 6.420808e-01 8.559917e-01 1.036492e+00 9.555024e-01 9.406615e-01 8.430118e-01 7.103162e-01 
7.752939e-15 6.349772e-01 1.207138e+00 1.612393e+00 1.516440e+00 9.912734e-01 4.853451e-02 7.130857e-01 5.896024e-01 1.205889e-01 4.396311e-01 9.264093e-01 7.382418e-01 6.384641e-01 3.225668e-01 1.525656e-01 1.154203e-14 1.525656e-01 3.225668e-01 6.384641e-01 7.382418e-01 9.264093e-01 4.396311e-01 1.205889e-01 5.896024e-01 7.130857e-01 4.853451e-02 9.912734e-01 1.516440e+00 1.612393e+00 1.207138e+00 6.349772e-01 
6.349772e-01 7.103162e-01 8.430118e-01 9.406615e-01 9.555024e-01 1.036492e+00 8.559917e-01 6.420808e-01 8.008763e-01 2.560124e-01 5.724081e-01 8.671340e-01 6.219203e-01 5.526497e-01 3.360782e-01 1.918110e-01 1.525656e-01 1.918110e-01 3.360782e-01 5.526497e-01 6.219203e-01 8.671340e-01 5.724081e-01 2.560124e-01 8.008763e-01 6.420808e-01 8.559917e-01 1.036492e+00 9.555024e-01 9.406615e-01 8.430118e-01 7.103162e-01 
7.490083e-01 6.882586e-01 5.535400e-01 2.190985e-01 2.862703e-01 8.293851e-01 1.262536e+00 8.254547e-01 6.711094e-01 4.743656e-01 6.944544e-01 6.802012e-01 5.041204e-01 4.572700e-01 4.121952e-01 2.322299e-01 2.076452e-01 2.322299e-01 4.121952e-01 4.572700e-01 5.041204e-01 6.802012e-01 6.944544e-01 4.743656e-01 6.711094e-01 8.254547e-01 1.262536e+00 8.293851e-01 2.862703e-01 2.190985e-01 5.535400e-01 6.882586e-01 
7.213744e-01 6.252565e-01 4.780779e-01 4.089559e-01 7.030445e-01 8.749918e-01 9.212957e-01 8.878197e-01 5.608916e-01 6.555262e-01 7.478778e-01 3.070562e-01 5.406317e-01 5.222560e-01 5.214228e-01 2.487007e-01 1.576742e-01 2.487007e-01 5.214228e-01 5.222560e-01 5.406317e-01 3.070562e-01 7.478778e-01 6.555262e-01 5.608916e-01 8.878197e-01 9.212957e-01 8.749918e-01 7.030445e-01 4.089559e-01 4.780779e-01 6.252565e-01 
5.562458e-01 4.768004e-01 4.115282e-01 4.893438e-01 7.039394e-01 8.707214e-01 8.152641e-01 9.292079e-01 4.222211e-01 9.783415e-01 3.551120e-01 1.094963e-01 6.209488e-01 6.775141e-01 5.738360e-01 2.410415e-01 3.128769e-02 2.410415e-01 5.738360e-01 6.775141e-01 6.209488e-01 1.094963e-01 3.551120e-01 9.783415e-01 4.222211e-01 9.292079e-01 8.152641e-01 8.707214e-01 7.039394e-01 4.893438e-01 4.115282e-01 4.768004e-01 
3.877373e-01 3.335197e-01 3.386877e-01 4.647936e-01 5.793851e-01 7.536964e-01 6.124419e-01 7.660688e-01 5.040042e-01 6.904645e-01 4.406083e-01 1.954435e-01 7.927591e-01 8.425211e-01 5.504115e-01 2.546329e-01 2.781189e-01 2.546329e-01 5.504115e-01 8.425211e-01 7.927591e-01 1.954435e-01 4.406083e-01 6.904645e-01 5.040042e-01 7.660688e-01 6.124419e-01 7.536964e-01 5.793851e-01 4.647936e-01 3.386877e-01 3.335197e-01 
2.066793e-01 1.961391e-01 2.541183e-01 3.937640e-01 4.967203e-01 6.758410e-01 6.708093e-01 5.699919e-01 3.869992e-01 3.791723e-01 7.654555e-01 3.762300e-01 8.668081e-01 9.369001e-01 3.670916e-01 2.484649e-01 5.202646e-01 2.484649e-01 3.670916e-01 9.369001e-01 8.668081e-01 3.762300e-01 7.654555e-01 3.791723e-01 3.869992e-01 5.699919e-01 6.708093e-01 6.758410e-01 4.967203e-01 3.937640e-01 2.541183e-01 1.961391e-01 
8.730940e-02 1.112509e-01 1.836671e-01 2.930091e-01 3.853633e-01 5.166053e-01 6.878728e-01 5.151846e-01 4.278723e-01 1.945093e-01 4.189902e-01 5.461547e-01 9.141614e-01 1.173133e+00 6.882109e-01 2.839323e-01 1.812227e-01 2.839323e-01 6.882109e-01 1.173133e+00 9.141614e-01 5.461547e-01 4.189902e-01 1.945093e-01 4.278723e-01 5.151846e-01 6.878728e-01 5.166053e-01 3.853633e-01 2.930091e-01 1.836671e-01 1.112509e-01 
7.540255e-03 8.724183e-02 1.569790e-01 2.527846e-01 3.250549e-01 4.258195e-01 5.458030e-01 5.821807e-01 3.677791e-01 1.253281e-01 1.877922e-01 2.397733e-01 4.676769e-01 1.343571e+00 1.499236e+00 8.221822e-01 4.749239e-02 8.221822e-01 1.499236e+00 1.343571e+00 4.676769e-01 2.397733e-01 1.877922e-01 1.253281e-01 3.677791e-01 5.821807e-01 5.458030e-01 4.258195e-01 3.250549e-01 2.527846e-01 1.569790e-01 8.724183e-02 
5.923267e-02 9.536462e-02 1.414984e-01 2.150725e-01 2.861986e-01 3.727137e-01 4.813308e-01 5.919783e-01 5.858957e-01 3.235992e-01 2.814632e-01 4.908951e-01 4.205684e-01 4.192939e-01 7.332451e-01 1.349408e+00 1.389923e+00 1.349408e+00 7.332451e-01 4.192939e-01 4.205684e-01 4.908951e-01 2.814632e-01 3.235992e-01 5.858957e-01 5.919783e-01 4.813308e-01 3.727137e-01 2.861986e-01 2.150725e-01 1.414984e-01 9.536462e-02 
8.979278e-02 1.109815e-01 1.381207e-01 1.916716e-01 2.457268e-01 3.165269e-01 4.002703e-01 4.922645e-01 5.819655e-01 5.450718e-01 8.064896e-02 9.413320e-01 1.072864e+00 6.674462e-01 1.126663e+00 7.713404e-01 8.457761e-01 7.713404e-01 1.126663e+00 6.674462e-01 1.072864e+00 9.413320e-01 8.064896e-02 5.450718e-01 5.819655e-01 4.922645e-01 4.002703e-01 3.165269e-01 2.457268e-01 1.916716e-01 1.381207e-01 1.109815e-01 
1.011802e-01 1.143632e-01 1.350393e-01 1.766275e-01 2.279198e-01 2.919805e-01 3.708111e-01 4.533430e-01 5.436042e-01 6.076706e-01 5.360628e-01 1.775554e-01 1.394495e+00 1.851334e+00 1.006779e+00 2.697928e-01 1.976278e-01 2.697928e-01 1.006779e+00 1.851334e+00 1.394495e+00 1.775554e-01 5.360628e-01 6.076706e-01 5.436042e-01 4.533430e-01 3.708111e-01 2.919805e-01 2.279198e-01 1.766275e-01 1.350393e-01 1.143632e-01 
9.666752e-02 1.068527e-01 1.229162e-01 1.571353e-01 2.022562e-01 2.615910e-01 3.381925e-01 4.230616e-01 5.234308e-01 6.147247e-01 6.910645e-01 6.139701e-01 1.608556e-01 7.480908e-01 1.382699e+00 1.342817e+00 1.276712e+00 1.342817e+00 1.382699e+00 7.480908e-01 1.608556e-01 6.139701e-01 6.910645e-01 6.147247e-01 5.234308e-01 4.230616e-01 3.381925e-01 2.615910e-01 2.022562e-01 1.571353e-01 1.229162e-01 1.068527e-01 
8.327819e-02 9.170249e-02 1.095091e-01 1.410400e-01 1.860661e-01 2.413764e-01 3.154140e-01 3.973173e-01 4.953857e-01 5.864572e-01 6.621326e-01 6.722705e-01 6.299455e-01 6.597917e-01 7.637336e-01 1.035831e+00 1.218615e+00 1.035831e+00 7.637336e-01 6.597917e-01 6.299455e-01 6.722705e-01 6.621326e-01 5.864572e-01 4.953857e-01 3.973173e-01 3.154140e-01 2.413764e-01 1.860661e-01 1.410400e-01 1.095091e-01 9.170249e-02 
5.947611e-02 6.893510e-02 9.044637e-02 1.241052e-01 1.710685e-01 2.286169e-01 3.057026e-01 3.961932e-01 5.096704e-01 6.315656e-01 7.547725e-01 8.327334e-01 8.214863e-01 7.474934e-01 8.106045e-01 1.000034e+00 1.086109e+00 1.000034e+00 8.106045e-01 7.474934e-01 8.214863e-01 8.327334e-01 7.547725e-01 6.315656e-01 5.096704e-01 3.961932e-01 3.057026e-01 2.286169e-01 1.710685e-01 1.241052e-01 9.044637e-02 6.893510e-02 
3.156144e-02 4.487608e-02 7.400432e-02 1.101667e-01 1.596440e-01 2.170189e-01 2.951437e-01 3.888492e-01 5.111110e-01 6.584242e-01 8.285556e-01 1.004053e+00 1.125015e+00 1.156721e+00 9.936862e-01 7.374169e-01 6.049028e-01 7.374169e-01 9.936862e-01 1.156721e+00 1.125015e+00 1.004053e+00 8.285556e-01 6.584242e-01 5.111110e-01 3.888492e-01 2.951437e-01 2.170189e-01 1.596440e-01 1.101667e-01 7.400432e-02 4.487608e-02 
