# vtk DataFile Version 2.0
Comment goes here
ASCII

DATASET STRUCTURED_POINTS
FIELD FieldData 1
TIME 1 1 double
0.86000000
DIMENSIONS    32   32   1

ORIGIN    0.000   0.000   0.000
SPACING   0.03125 0.03125   1.000

POINT_DATA   1024
SCALARS uMag double
LOOKUP_TABLE default

4.499375e-15 4.506662e-02 7.779514e-02 8.373897e-02 5.938369e-02 1.116346e-02 1.180107e-01 2.799420e-01 4.616446e-01 6.847334e-01 8.794364e-01 1.071143e+00 1.155579e+00 1.148557e+00 9.440525e-01 5.700465e-01 4.046786e-15 5.700465e-01 9.440525e-01 1.148557e+00 1.155579e+00 1.071143e+00 8.794364e-01 6.847334e-01 4.616446e-01 2.799420e-01 1.180107e-01 1.116346e-02 5.938369e-02 8.373897e-02 7.779514e-02 4.506662e-02 
4.506662e-02 6.484055e-02 9.341633e-02 1.051619e-01 1.009816e-01 9.377462e-02 1.476411e-01 2.662106e-01 4.149601e-01 5.988208e-01 7.570145e-01 9.202260e-01 9.916381e-01 1.014473e+00 8.998327e-01 7.105378e-01 5.700465e-01 7.105378e-01 8.998327e-01 1.014473e+00 9.916381e-01 9.202260e-01 7.570145e-01 5.988208e-01 4.149601e-01 2.662106e-01 1.476411e-01 9.377462e-02 1.009816e-01 1.051619e-01 9.341633e-02 6.484055e-02 
1.037550e-01 1.142870e-01 1.345511e-01 1.527590e-01 1.703422e-01 1.899419e-01 2.392641e-01 3.063372e-01 3.994246e-01 5.003526e-01 5.883888e-01 6.861955e-01 7.330163e-01 7.968749e-01 8.496833e-01 9.712650e-01 1.062177e+00 9.712650e-01 8.496833e-01 7.968749e-01 7.330163e-01 6.861955e-01 5.883888e-01 5.003526e-01 3.994246e-01 3.063372e-01 2.392641e-01 1.899419e-01 1.703422e-01 1.527590e-01 1.345511e-01 1.142870e-01 
1.823081e-01 1.887305e-01 2.040886e-01 2.299881e-01 2.672610e-01 3.131269e-01 3.784946e-01 4.342230e-01 4.954240e-01 5.058383e-01 4.938940e-01 4.242376e-01 2.987751e-01 3.776027e-01 7.370531e-01 1.219776e+00 1.502410e+00 1.219776e+00 7.370531e-01 3.776027e-01 2.987751e-01 4.242376e-01 4.938940e-01 5.058383e-01 4.954240e-01 4.342230e-01 3.784946e-01 3.131269e-01 2.672610e-01 2.299881e-01 2.040886e-01 1.887305e-01 
2.953110e-01 2.970199e-01 3.032465e-01 3.272744e-01 3.688646e-01 4.258327e-01 4.972993e-01 5.582585e-01 6.221242e-01 6.164052e-01 6.117560e-01 4.829300e-01 3.125333e-01 4.716754e-02 5.156321e-01 1.273561e+00 1.719926e+00 1.273561e+00 5.156321e-01 4.716754e-02 3.125333e-01 4.829300e-01 6.117560e-01 6.164052e-01 6.221242e-01 5.582585e-01 4.972993e-01 4.258327e-01 3.688646e-01 3.272744e-01 3.032465e-01 2.970199e-01 
4.412543e-01 4.343521e-01 4.224811e-01 4.334835e-01 4.728877e-01 5.394930e-01 6.195954e-01 7.025453e-01 7.917052e-01 8.282450e-01 9.053424e-01 8.501098e-01 8.337980e-01 5.956167e-01 6.260855e-01 1.306850e+00 1.716626e+00 1.306850e+00 6.260855e-01 5.956167e-01 8.337980e-01 8.501098e-01 9.053424e-01 8.282450e-01 7.917052e-01 7.025453e-01 6.195954e-01 5.394930e-01 4.728877e-01 4.334835e-01 4.224811e-01 4.343521e-01 
6.243974e-01 6.053841e-01 5.651989e-01 5.486712e-01 5.728637e-01 6.359449e-01 7.063072e-01 7.937246e-01 8.726268e-01 9.219707e-01 1.042352e+00 8.981955e-01 8.624981e-01 8.519600e-01 1.026939e+00 1.292480e+00 1.242986e+00 1.292480e+00 1.026939e+00 8.519600e-01 8.624981e-01 8.981955e-01 1.042352e+00 9.219707e-01 8.726268e-01 7.937246e-01 7.063072e-01 6.359449e-01 5.728637e-01 5.486712e-01 5.651989e-01 6.053841e-01 
8.363828e-01 7.985557e-01 7.108940e-01 6.384202e-01 6.284388e-01 6.760569e-01 7.362393e-01 8.312126e-01 8.912112e-01 9.708673e-01 1.103687e+00 1.205057e+00 1.633736e+00 2.049934e+00 2.055811e+00 1.144867e+00 1.229288e-01 1.144867e+00 2.055811e+00 2.049934e+00 1.633736e+00 1.205057e+00 1.103687e+00 9.708673e-01 8.912112e-01 8.312126e-01 7.362393e-01 6.760569e-01 6.284388e-01 6.384202e-01 7.108940e-01 7.985557e-01 
1.055688e+00 9.979079e-01 8.532954e-01 7.100530e-01 6.549218e-01 6.827583e-01 7.355555e-01 8.502133e-01 8.736672e-01 9.832946e-01 1.185606e+00 1.753555e+00 2.046416e+00 1.503212e+00 1.027364e+00 1.031903e+00 9.822529e-01 1.031903e+00 1.027364e+00 1.503212e+00 2.046416e+00 1.753555e+00 1.185606e+00 9.832946e-01 8.736672e-01 8.502133e-01 7.355555e-01 6.827583e-01 6.549218e-01 7.100530e-01 8.532954e-01 9.979079e-01 
1.273548e+00 1.194401e+00 9.799551e-01 7.374770e-01 6.026920e-01 5.729679e-01 6.228701e-01 7.325677e-01 6.786261e-01 5.347546e-01 5.841978e-01 5.944254e-01 7.926416e-01 1.449044e+00 1.039881e+00 4.900698e-01 2.943684e-01 4.900698e-01 1.039881e+00 1.449044e+00 7.926416e-01 5.944254e-01 5.841978e-01 5.347546e-01 6.786261e-01 7.325677e-01 6.228701e-01 5.729679e-01 6.026920e-01 7.374770e-01 9.799551e-01 1.194401e+00 
1.442554e+00 1.346961e+00 1.063299e+00 7.285986e-01 5.044641e-01 4.177084e-01 4.838649e-01 5.911511e-01 4.956460e-01 3.760594e-01 3.740587e-01 8.813022e-01 9.509591e-01 4.263413e-01 2.841542e-01 3.663016e-01 4.176961e-01 3.663016e-01 2.841542e-01 4.263413e-01 9.509591e-01 8.813022e-01 3.740587e-01 3.760594e-01 4.956460e-01 5.911511e-01 4.838649e-01 4.177084e-01 5.044641e-01 7.285986e-01 1.063299e+00 1.346961e+00 
1.566528e+00 1.462008e+00 1.118037e+00 7.140800e-01 3.678747e-01 1.217148e-01 1.600557e-01 7.709762e-01 1.448934e+00 5.057778e-01 4.039013e-01 5.941507e-01 2.000348e-01 3.491133e-01 4.423990e-01 6.421416e-01 7.571033e-01 6.421416e-01 4.423990e-01 3.491133e-01 2.000348e-01 5.941507e-01 4.039013e-01 5.057778e-01 1.448934e+00 7.709762e-01 1.600557e-01 1.217148e-01 3.678747e-01 7.140800e-01 1.118037e+00 1.462008e+00 
1.578461e+00 1.473388e+00 1.097247e+00 6.962410e-01 2.927941e-01 3.247140e-01 5.095008e-01 2.018359e+00 1.244940e+00 5.062118e-01 6.108492e-01 6.882909e-01 5.385087e-01 4.358849e-01 3.622564e-01 4.215084e-01 4.859275e-01 4.215084e-01 3.622564e-01 4.358849e-01 5.385087e-01 6.882909e-01 6.108492e-01 5.062118e-01 1.244940e+00 2.018359e+00 5.095008e-01 3.247140e-01 2.927941e-01 6.962410e-01 1.097247e+00 1.473388e+00 
1.477914e+00 1.397974e+00 1.071630e+00 8.193599e-01 6.301074e-01 7.749042e-01 1.311118e+00 2.118187e+00 5.608049e-01 4.626897e-01 1.245854e+00 5.743529e-01 4.401346e-01 3.157302e-01 3.176885e-01 3.846074e-01 4.338331e-01 3.846074e-01 3.176885e-01 3.157302e-01 4.401346e-01 5.743529e-01 1.245854e+00 4.626897e-01 5.608049e-01 2.118187e+00 1.311118e+00 7.749042e-01 6.301074e-01 8.193599e-01 1.071630e+00 1.397974e+00 
1.182079e+00 1.168270e+00 1.085112e+00 1.079694e+00 1.185718e+00 1.177971e+00 1.759605e+00 1.075105e+00 1.104334e+00 7.484905e-01 1.348595e+00 4.605371e-01 4.007380e-01 3.476574e-01 2.869041e-01 2.246083e-01 1.954664e-01 2.246083e-01 2.869041e-01 3.476574e-01 4.007380e-01 4.605371e-01 1.348595e+00 7.484905e-01 1.104334e+00 1.075105e+00 1.759605e+00 1.177971e+00 1.185718e+00 1.079694e+00 1.085112e+00 1.168270e+00 
6.798429e-01 8.565415e-01 1.174963e+00 1.377746e+00 1.540726e+00 1.378738e+00 1.429721e+00 2.556957e-01 8.372522e-01 1.371026e+00 7.857539e-01 1.778104e-01 1.686338e-01 1.685048e-01 1.542399e-01 1.248737e-01 1.021507e-01 1.248737e-01 1.542399e-01 1.685048e-01 1.686338e-01 1.778104e-01 7.857539e-01 1.371026e+00 8.372522e-01 2.556957e-01 1.429721e+00 1.378738e+00 1.540726e+00 1.377746e+00 1.174963e+00 8.565415e-01 
3.576339e-14 6.798429e-01 1.239897e+00 1.516295e+00 1.659226e+00 1.483673e+00 1.264717e+00 2.602562e-01 9.816861e-01 1.516709e+00 2.176311e-01 8.127254e-02 1.112364e-01 1.602654e-01 1.554564e-01 1.021507e-01 1.141280e-14 1.021507e-01 1.554564e-01 1.602654e-01 1.112364e-01 8.127254e-02 2.176311e-01 1.516709e+00 9.816861e-01 2.602562e-01 1.264717e+00 1.483673e+00 1.659226e+00 1.516295e+00 1.239897e+00 6.798429e-01 
6.798429e-01 8.565415e-01 1.174963e+00 1.377746e+00 1.540726e+00 1.378738e+00 1.429721e+00 2.556957e-01 8.372522e-01 1.371026e+00 7.857539e-01 1.778104e-01 1.686338e-01 1.685048e-01 1.542399e-01 1.248737e-01 1.021507e-01 1.248737e-01 1.542399e-01 1.685048e-01 1.686338e-01 1.778104e-01 7.857539e-01 1.371026e+00 8.372522e-01 2.556957e-01 1.429721e+00 1.378738e+00 1.540726e+00 1.377746e+00 1.174963e+00 8.565415e-01 
1.182079e+00 1.168270e+00 1.085112e+00 1.079694e+00 1.185718e+00 1.177971e+00 1.759605e+00 1.075105e+00 1.104334e+00 7.484905e-01 1.348595e+00 4.605371e-01 4.007380e-01 3.476574e-01 2.869041e-01 2.246083e-01 1.954664e-01 2.246083e-01 2.869041e-01 3.476574e-01 4.007380e-01 4.605371e-01 1.348595e+00 7.484905e-01 1.104334e+00 1.075105e+00 1.759605e+00 1.177971e+00 1.185718e+00 1.079694e+00 1.085112e+00 1.168270e+00 
1.477914e+00 1.397974e+00 1.071630e+00 8.193599e-01 6.301074e-01 7.749042e-01 1.311118e+00 2.118187e+00 5.608049e-01 4.626897e-01 1.245854e+00 5.743529e-01 4.401346e-01 3.157302e-01 3.176885e-01 3.846074e-01 4.338331e-01 3.846074e-01 3.176885e-01 3.157302e-01 4.401346e-01 5.743529e-01 1.245854e+00 4.626897e-01 5.608049e-01 2.118187e+00 1.311118e+00 7.749042e-01 6.301074e-01 8.193599e-01 1.071630e+00 1.397974e+00 
1.578461e+00 1.473388e+00 1.097247e+00 6.962410e-01 2.927941e-01 3.247140e-01 5.095008e-01 2.018359e+00 1.244940e+00 5.062118e-01 6.108492e-01 6.882909e-01 5.385087e-01 4.358849e-01 3.622564e-01 4.215084e-01 4.859275e-01 4.215084e-01 3.622564e-01 4.358849e-01 5.385087e-01 6.882909e-01 6.108492e-01 5.062118e-01 1.244940e+00 2.018359e+00 5.095008e-01 3.247140e-01 2.927941e-01 6.962410e-01 1.097247e+00 1.473388e+00 
1.566528e+00 1.462008e+00 1.118037e+00 7.140800e-01 3.678747e-01 1.217148e-01 1.600557e-01 7.709762e-01 1.448934e+00 5.057778e-01 4.039013e-01 5.941507e-01 2.000348e-01 3.491133e-01 4.423990e-01 6.421416e-01 7.571033e-01 6.421416e-01 4.423990e-01 3.491133e-01 2.000348e-01 5.941507e-01 4.039013e-01 5.057778e-01 1.448934e+00 7.709762e-01 1.600557e-01 1.217148e-01 3.678747e-01 7.140800e-01 1.118037e+00 1.462008e+00 
1.442554e+00 1.346961e+00 1.063299e+00 7.285986e-01 5.044641e-01 4.177084e-01 4.838649e-01 5.911511e-01 4.956460e-01 3.760594e-01 3.740587e-01 8.813022e-01 9.509591e-01 4.263413e-01 2.841542e-01 3.663016e-01 4.176961e-01 3.663016e-01 2.841542e-01 4.263413e-01 9.509591e-01 8.813022e-01 3.740587e-01 3.760594e-01 4.956460e-01 5.911511e-01 4.838649e-01 4.177084e-01 5.044641e-01 7.285986e-01 1.063299e+00 1.346961e+00 
1.273548e+00 1.194401e+00 9.799551e-01 7.374770e-01 6.026920e-01 5.729679e-01 6.228701e-01 7.325677e-01 6.786261e-01 5.347546e-01 5.841978e-01 5.944254e-01 7.926416e-01 1.449044e+00 1.039881e+00 4.900698e-01 2.943684e-01 4.900698e-01 1.039881e+00 1.449044e+00 7.926416e-01 5.944254e-01 5.841978e-01 5.347546e-01 6.786261e-01 7.325677e-01 6.228701e-01 5.729679e-01 6.026920e-01 7.374770e-01 9.799551e-01 1.194401e+00 
1.055688e+00 9.979079e-01 8.532954e-01 7.100530e-01 6.549218e-01 6.827583e-01 7.355555e-01 8.502133e-01 8.736672e-01 9.832946e-01 1.185606e+00 1.753555e+00 2.046416e+00 1.503212e+00 1.027364e+00 1.031903e+00 9.822529e-01 1.031903e+00 1.027364e+00 1.503212e+00 2.046416e+00 1.753555e+00 1.185606e+00 9.832946e-01 8.736672e-01 8.502133e-01 7.355555e-01 6.827583e-01 6.549218e-01 7.100530e-01 8.532954e-01 9.979079e-01 
8.363828e-01 7.985557e-01 7.108940e-01 6.384202e-01 6.284388e-01 6.760569e-01 7.362393e-01 8.312126e-01 8.912112e-01 9.708673e-01 1.103687e+00 1.205057e+00 1.633736e+00 2.049934e+00 2.055811e+00 1.144867e+00 1.229288e-01 1.144867e+00 2.055811e+00 2.049934e+00 1.633736e+00 1.205057e+00 1.103687e+00 9.708673e-01 8.912112e-01 8.312126e-01 7.362393e-01 6.760569e-01 6.284388e-01 6.384202e-01 7.108940e-01 7.985557e-01 
6.243974e-01 6.053841e-01 5.651989e-01 5.486712e-01 5.728637e-01 6.359449e-01 7.063072e-01 7.937246e-01 8.726268e-01 9.219707e-01 1.042352e+00 8.981955e-01 8.624981e-01 8.519600e-01 1.026939e+00 1.292480e+00 1.242986e+00 1.292480e+00 1.026939e+00 8.519600e-01 8.624981e-01 8.981955e-01 1.042352e+00 9.219707e-01 8.726268e-01 7.937246e-01 7.063072e-01 6.359449e-01 5.728637e-01 5.486712e-01 5.651989e-01 6.053841e-01 
4.412543e-01 4.343521e-01 4.224811e-01 4.334835e-01 4.728877e-01 5.394930e-01 6.195954e-01 7.025453e-01 7.917052e-01 8.282450e-01 9.053424e-01 8.501098e-01 8.337980e-01 5.956167e-01 6.260855e-01 1.306850e+00 1.716626e+00 1.306850e+00 6.260855e-01 5.956167e-01 8.337980e-01 8.501098e-01 9.053424e-01 8.282450e-01 7.917052e-01 7.025453e-01 6.195954e-01 5.394930e-01 4.728877e-01 4.334835e-01 4.224811e-01 4.343521e-01 
2.953110e-01 2.970199e-01 3.032465e-01 3.272744e-01 3.688646e-01 4.258327e-01 4.972993e-01 5.582585e-01 6.221242e-01 6.164052e-01 6.117560e-01 4.829300e-01 3.125333e-01 4.716754e-02 5.156321e-01 1.273561e+00 1.719926e+00 1.273561e+00 5.156321e-01 4.716754e-02 3.125333e-01 4.829300e-01 6.117560e-01 6.164052e-01 6.221242e-01 5.582585e-01 4.972993e-01 4.258327e-01 3.688646e-01 3.272744e-01 3.032465e-01 2.970199e-01 
1.823081e-01 1.887305e-01 2.040886e-01 2.299881e-01 2.672610e-01 3.131269e-01 3.784946e-01 4.342230e-01 4.954240e-01 5.058383e-01 4.938940e-01 4.242376e-01 2.987751e-01 3.776027e-01 7.370531e-01 1.219776e+00 1.502410e+00 1.219776e+00 7.370531e-01 3.776027e-01 2.987751e-01 4.242376e-01 4.938940e-01 5.058383e-01 4.954240e-01 4.342230e-01 3.784946e-01 3.131269e-01 2.672610e-01 2.299881e-01 2.040886e-01 1.887305e-01 
1.037550e-01 1.142870e-01 1.345511e-01 1.527590e-01 1.703422e-01 1.899419e-01 2.392641e-01 3.063372e-01 3.994246e-01 5.003526e-01 5.883888e-01 6.861955e-01 7.330163e-01 7.968749e-01 8.496833e-01 9.712650e-01 1.062177e+00 9.712650e-01 8.496833e-01 7.968749e-01 7.330163e-01 6.861955e-01 5.883888e-01 5.003526e-01 3.994246e-01 3.063372e-01 2.392641e-01 1.899419e-01 1.703422e-01 1.527590e-01 1.345511e-01 1.142870e-01 
4.506662e-02 6.484055e-02 9.341633e-02 1.051619e-01 1.009816e-01 9.377462e-02 1.476411e-01 2.662106e-01 4.149601e-01 5.988208e-01 7.570145e-01 9.202260e-01 9.916381e-01 1.014473e+00 8.998327e-01 7.105378e-01 5.700465e-01 7.105378e-01 8.998327e-01 1.014473e+00 9.916381e-01 9.202260e-01 7.570145e-01 5.988208e-01 4.149601e-01 2.662106e-01 1.476411e-01 9.377462e-02 1.009816e-01 1.051619e-01 9.341633e-02 6.484055e-02 
