# vtk DataFile Version 2.0
Comment goes here
ASCII

DATASET STRUCTURED_POINTS
FIELD FieldData 1
TIME 1 1 double
1.30000000
DIMENSIONS    32   32   1

ORIGIN    0.000   0.000   0.000
SPACING   0.03125 0.03125   1.000

POINT_DATA   1024
SCALARS uMag double
LOOKUP_TABLE default

2.264835e-13 3.196658e-02 4.853385e-02 3.172480e-02 2.021221e-02 1.186422e-01 2.501132e-01 4.162688e-01 5.910328e-01 7.665198e-01 9.124901e-01 1.012964e+00 1.043083e+00 9.699770e-01 7.833471e-01 4.334173e-01 7.905218e-13 4.334173e-01 7.833471e-01 9.699770e-01 1.043083e+00 1.012964e+00 9.124901e-01 7.665198e-01 5.910328e-01 4.162688e-01 2.501132e-01 1.186422e-01 2.021221e-02 3.172480e-02 4.853385e-02 3.196658e-02 
3.196658e-02 4.548275e-02 6.154608e-02 6.209928e-02 7.552406e-02 1.410863e-01 2.523775e-01 3.954305e-01 5.501546e-01 7.011031e-01 8.313189e-01 9.158124e-01 9.460253e-01 8.913268e-01 7.608897e-01 5.560826e-01 4.334173e-01 5.560826e-01 7.608897e-01 8.913268e-01 9.460253e-01 9.158124e-01 8.313189e-01 7.011031e-01 5.501546e-01 3.954305e-01 2.523775e-01 1.410863e-01 7.552406e-02 6.209928e-02 6.154608e-02 4.548275e-02 
7.693625e-02 8.663579e-02 1.072770e-01 1.306291e-01 1.657418e-01 2.137134e-01 2.811368e-01 3.668412e-01 4.527232e-01 5.422138e-01 6.102111e-01 6.628190e-01 6.913645e-01 7.073997e-01 7.500188e-01 7.797748e-01 7.894802e-01 7.797748e-01 7.500188e-01 7.073997e-01 6.913645e-01 6.628190e-01 6.102111e-01 5.422138e-01 4.527232e-01 3.668412e-01 2.811368e-01 2.137134e-01 1.657418e-01 1.306291e-01 1.072770e-01 8.663579e-02 
1.539150e-01 1.590121e-01 1.749966e-01 2.103097e-01 2.683157e-01 3.275878e-01 3.875389e-01 4.286105e-01 4.458471e-01 4.359786e-01 3.981460e-01 3.508013e-01 3.397582e-01 4.350985e-01 7.006724e-01 9.801013e-01 1.069246e+00 9.801013e-01 7.006724e-01 4.350985e-01 3.397582e-01 3.508013e-01 3.981460e-01 4.359786e-01 4.458471e-01 4.286105e-01 3.875389e-01 3.275878e-01 2.683157e-01 2.103097e-01 1.749966e-01 1.590121e-01 
2.580051e-01 2.598314e-01 2.692331e-01 3.111699e-01 3.872718e-01 4.659514e-01 5.379396e-01 5.760758e-01 5.700794e-01 5.174805e-01 4.035934e-01 2.437348e-01 4.227276e-02 2.515221e-01 6.764827e-01 1.046430e+00 1.164346e+00 1.046430e+00 6.764827e-01 2.515221e-01 4.227276e-02 2.437348e-01 4.035934e-01 5.174805e-01 5.700794e-01 5.760758e-01 5.379396e-01 4.659514e-01 3.872718e-01 3.111699e-01 2.692331e-01 2.598314e-01 
4.076083e-01 3.996809e-01 3.833889e-01 4.061987e-01 4.842557e-01 5.750337e-01 6.702219e-01 7.206091e-01 7.367577e-01 6.984046e-01 6.042637e-01 4.990700e-01 3.841788e-01 2.894920e-01 6.206936e-01 1.136450e+00 1.258287e+00 1.136450e+00 6.206936e-01 2.894920e-01 3.841788e-01 4.990700e-01 6.042637e-01 6.984046e-01 7.367577e-01 7.206091e-01 6.702219e-01 5.750337e-01 4.842557e-01 4.061987e-01 3.833889e-01 3.996809e-01 
5.735424e-01 5.553508e-01 5.068323e-01 5.014126e-01 5.668608e-01 6.675761e-01 7.782652e-01 8.505165e-01 8.900315e-01 8.917647e-01 8.411738e-01 7.853354e-01 7.618252e-01 5.355708e-01 5.733118e-01 8.658807e-01 8.991067e-01 8.658807e-01 5.733118e-01 5.355708e-01 7.618252e-01 7.853354e-01 8.411738e-01 8.917647e-01 8.900315e-01 8.505165e-01 7.782652e-01 6.675761e-01 5.668608e-01 5.014126e-01 5.068323e-01 5.553508e-01 
7.746639e-01 7.388874e-01 6.423483e-01 5.745909e-01 5.963957e-01 6.822064e-01 8.087514e-01 8.812200e-01 9.582874e-01 9.740641e-01 9.027468e-01 9.582139e-01 9.419775e-01 1.101196e+00 1.364405e+00 1.242908e+00 8.438682e-01 1.242908e+00 1.364405e+00 1.101196e+00 9.419775e-01 9.582139e-01 9.027468e-01 9.740641e-01 9.582874e-01 8.812200e-01 8.087514e-01 6.822064e-01 5.963957e-01 5.745909e-01 6.423483e-01 7.388874e-01 
9.573232e-01 9.056237e-01 7.570645e-01 6.254058e-01 5.821037e-01 6.540643e-01 7.776725e-01 8.634845e-01 9.523508e-01 1.035851e+00 9.512005e-01 1.344882e+00 1.478235e+00 1.967466e+00 1.748270e+00 8.396552e-01 9.049354e-01 8.396552e-01 1.748270e+00 1.967466e+00 1.478235e+00 1.344882e+00 9.512005e-01 1.035851e+00 9.523508e-01 8.634845e-01 7.776725e-01 6.540643e-01 5.821037e-01 6.254058e-01 7.570645e-01 9.056237e-01 
1.146679e+00 1.072615e+00 8.719979e-01 6.517903e-01 5.067703e-01 5.244559e-01 6.496324e-01 7.099750e-01 9.089188e-01 9.177193e-01 9.380955e-01 1.041302e+00 8.349656e-01 3.723082e-01 1.076248e+00 9.957868e-01 5.088269e-01 9.957868e-01 1.076248e+00 3.723082e-01 8.349656e-01 1.041302e+00 9.380955e-01 9.177193e-01 9.089188e-01 7.099750e-01 6.496324e-01 5.244559e-01 5.067703e-01 6.517903e-01 8.719979e-01 1.072615e+00 
1.268069e+00 1.178619e+00 9.329356e-01 6.446400e-01 3.881426e-01 3.634867e-01 4.635803e-01 4.866367e-01 6.312569e-01 4.365884e-01 3.010926e-01 3.616470e-01 8.618943e-01 9.845984e-01 5.437496e-01 2.170540e-01 1.339057e-01 2.170540e-01 5.437496e-01 9.845984e-01 8.618943e-01 3.616470e-01 3.010926e-01 4.365884e-01 6.312569e-01 4.866367e-01 4.635803e-01 3.634867e-01 3.881426e-01 6.446400e-01 9.329356e-01 1.178619e+00 
1.358730e+00 1.254109e+00 9.919421e-01 6.441206e-01 2.919417e-01 1.075868e-01 1.921450e-01 1.865750e-01 7.775794e-01 1.028625e+00 2.944637e-01 5.284989e-01 4.583445e-01 1.198389e-01 3.671969e-01 6.531557e-01 9.424131e-01 6.531557e-01 3.671969e-01 1.198389e-01 4.583445e-01 5.284989e-01 2.944637e-01 1.028625e+00 7.775794e-01 1.865750e-01 1.921450e-01 1.075868e-01 2.919417e-01 6.441206e-01 9.919421e-01 1.254109e+00 
1.328052e+00 1.224612e+00 9.778411e-01 6.248224e-01 3.025089e-01 1.255574e-01 3.902902e-01 3.586807e-01 1.220152e+00 1.033304e+00 2.050491e-01 4.778251e-01 3.724496e-01 2.555944e-01 3.216635e-01 4.047787e-01 5.889022e-01 4.047787e-01 3.216635e-01 2.555944e-01 3.724496e-01 4.778251e-01 2.050491e-01 1.033304e+00 1.220152e+00 3.586807e-01 3.902902e-01 1.255574e-01 3.025089e-01 6.248224e-01 9.778411e-01 1.224612e+00 
1.223119e+00 1.142739e+00 9.852054e-01 7.293633e-01 5.838336e-01 4.198688e-01 5.867520e-01 7.185331e-01 1.908062e+00 3.397350e-01 5.700696e-01 9.257911e-01 3.738853e-01 3.261482e-01 2.105943e-01 3.448290e-01 4.973781e-01 3.448290e-01 2.105943e-01 3.261482e-01 3.738853e-01 9.257911e-01 5.700696e-01 3.397350e-01 1.908062e+00 7.185331e-01 5.867520e-01 4.198688e-01 5.838336e-01 7.293633e-01 9.852054e-01 1.142739e+00 
9.478114e-01 9.367942e-01 9.623908e-01 9.595033e-01 9.843535e-01 1.024587e+00 1.040495e+00 1.402065e+00 1.413964e+00 8.405755e-01 5.359610e-01 1.170483e+00 2.657734e-01 3.287883e-01 2.406468e-01 2.502450e-01 2.390079e-01 2.502450e-01 2.406468e-01 3.287883e-01 2.657734e-01 1.170483e+00 5.359610e-01 8.405755e-01 1.413964e+00 1.402065e+00 1.040495e+00 1.024587e+00 9.843535e-01 9.595033e-01 9.623908e-01 9.367942e-01 
5.404190e-01 6.892102e-01 9.685399e-01 1.233541e+00 1.339535e+00 1.464911e+00 1.232575e+00 1.420646e+00 4.399867e-01 5.054008e-01 1.184676e+00 5.447924e-01 2.324993e-01 1.759627e-01 1.543995e-01 1.350324e-01 9.983974e-02 1.350324e-01 1.543995e-01 1.759627e-01 2.324993e-01 5.447924e-01 1.184676e+00 5.054008e-01 4.399867e-01 1.420646e+00 1.232575e+00 1.464911e+00 1.339535e+00 1.233541e+00 9.685399e-01 6.892102e-01 
6.330819e-13 5.404190e-01 1.000848e+00 1.381861e+00 1.532618e+00 1.635766e+00 1.322281e+00 1.262577e+00 1.684509e-01 6.044043e-01 1.057664e+00 1.686465e-01 8.002853e-02 4.595790e-02 1.257386e-01 9.983974e-02 1.087250e-13 9.983974e-02 1.257386e-01 4.595790e-02 8.002853e-02 1.686465e-01 1.057664e+00 6.044043e-01 1.684509e-01 1.262577e+00 1.322281e+00 1.635766e+00 1.532618e+00 1.381861e+00 1.000848e+00 5.404190e-01 
5.404190e-01 6.892102e-01 9.685399e-01 1.233541e+00 1.339535e+00 1.464911e+00 1.232575e+00 1.420646e+00 4.399867e-01 5.054008e-01 1.184676e+00 5.447924e-01 2.324993e-01 1.759627e-01 1.543995e-01 1.350324e-01 9.983974e-02 1.350324e-01 1.543995e-01 1.759627e-01 2.324993e-01 5.447924e-01 1.184676e+00 5.054008e-01 4.399867e-01 1.420646e+00 1.232575e+00 1.464911e+00 1.339535e+00 1.233541e+00 9.685399e-01 6.892102e-01 
9.478114e-01 9.367942e-01 9.623908e-01 9.595033e-01 9.843535e-01 1.024587e+00 1.040495e+00 1.402065e+00 1.413964e+00 8.405755e-01 5.359610e-01 1.170483e+00 2.657734e-01 3.287883e-01 2.406468e-01 2.502450e-01 2.390079e-01 2.502450e-01 2.406468e-01 3.287883e-01 2.657734e-01 1.170483e+00 5.359610e-01 8.405755e-01 1.413964e+00 1.402065e+00 1.040495e+00 1.024587e+00 9.843535e-01 9.595033e-01 9.623908e-01 9.367942e-01 
1.223119e+00 1.142739e+00 9.852054e-01 7.293633e-01 5.838336e-01 4.198688e-01 5.867520e-01 7.185331e-01 1.908062e+00 3.397350e-01 5.700696e-01 9.257911e-01 3.738853e-01 3.261482e-01 2.105943e-01 3.448290e-01 4.973781e-01 3.448290e-01 2.105943e-01 3.261482e-01 3.738853e-01 9.257911e-01 5.700696e-01 3.397350e-01 1.908062e+00 7.185331e-01 5.867520e-01 4.198688e-01 5.838336e-01 7.293633e-01 9.852054e-01 1.142739e+00 
1.328052e+00 1.224612e+00 9.778411e-01 6.248224e-01 3.025089e-01 1.255574e-01 3.902902e-01 3.586807e-01 1.220152e+00 1.033304e+00 2.050491e-01 4.778251e-01 3.724496e-01 2.555944e-01 3.216635e-01 4.047787e-01 5.889022e-01 4.047787e-01 3.216635e-01 2.555944e-01 3.724496e-01 4.778251e-01 2.050491e-01 1.033304e+00 1.220152e+00 3.586807e-01 3.902902e-01 1.255574e-01 3.025089e-01 6.248224e-01 9.778411e-01 1.224612e+00 
1.358730e+00 1.254109e+00 9.919421e-01 6.441206e-01 2.919417e-01 1.075868e-01 1.921450e-01 1.865750e-01 7.775794e-01 1.028625e+00 2.944637e-01 5.284989e-01 4.583445e-01 1.198389e-01 3.671969e-01 6.531557e-01 9.424131e-01 6.531557e-01 3.671969e-01 1.198389e-01 4.583445e-01 5.284989e-01 2.944637e-01 1.028625e+00 7.775794e-01 1.865750e-01 1.921450e-01 1.075868e-01 2.919417e-01 6.441206e-01 9.919421e-01 1.254109e+00 
1.268069e+00 1.178619e+00 9.329356e-01 6.446400e-01 3.881426e-01 3.634867e-01 4.635803e-01 4.866367e-01 6.312569e-01 4.365884e-01 3.010926e-01 3.616470e-01 8.618943e-01 9.845984e-01 5.437496e-01 2.170540e-01 1.339057e-01 2.170540e-01 5.437496e-01 9.845984e-01 8.618943e-01 3.616470e-01 3.010926e-01 4.365884e-01 6.312569e-01 4.866367e-01 4.635803e-01 3.634867e-01 3.881426e-01 6.446400e-01 9.329356e-01 1.178619e+00 
1.146679e+00 1.072615e+00 8.719979e-01 6.517903e-01 5.067703e-01 5.244559e-01 6.496324e-01 7.099750e-01 9.089188e-01 9.177193e-01 9.380955e-01 1.041302e+00 8.349656e-01 3.723082e-01 1.076248e+00 9.957868e-01 5.088269e-01 9.957868e-01 1.076248e+00 3.723082e-01 8.349656e-01 1.041302e+00 9.380955e-01 9.177193e-01 9.089188e-01 7.099750e-01 6.496324e-01 5.244559e-01 5.067703e-01 6.517903e-01 8.719979e-01 1.072615e+00 
9.573232e-01 9.056237e-01 7.570645e-01 6.254058e-01 5.821037e-01 6.540643e-01 7.776725e-01 8.634845e-01 9.523508e-01 1.035851e+00 9.512005e-01 1.344882e+00 1.478235e+00 1.967466e+00 1.748270e+00 8.396552e-01 9.049354e-01 8.396552e-01 1.748270e+00 1.967466e+00 1.478235e+00 1.344882e+00 9.512005e-01 1.035851e+00 9.523508e-01 8.634845e-01 7.776725e-01 6.540643e-01 5.821037e-01 6.254058e-01 7.570645e-01 9.056237e-01 
7.746639e-01 7.388874e-01 6.423483e-01 5.745909e-01 5.963957e-01 6.822064e-01 8.087514e-01 8.812200e-01 9.582874e-01 9.740641e-01 9.027468e-01 9.582139e-01 9.419775e-01 1.101196e+00 1.364405e+00 1.242908e+00 8.438682e-01 1.242908e+00 1.364405e+00 1.101196e+00 9.419775e-01 9.582139e-01 9.027468e-01 9.740641e-01 9.582874e-01 8.812200e-01 8.087514e-01 6.822064e-01 5.963957e-01 5.745909e-01 6.423483e-01 7.388874e-01 
5.735424e-01 5.553508e-01 5.068323e-01 5.014126e-01 5.668608e-01 6.675761e-01 7.782652e-01 8.505165e-01 8.900315e-01 8.917647e-01 8.411738e-01 7.853354e-01 7.618252e-01 5.355708e-01 5.733118e-01 8.658807e-01 8.991067e-01 8.658807e-01 5.733118e-01 5.355708e-01 7.618252e-01 7.853354e-01 8.411738e-01 8.917647e-01 8.900315e-01 8.505165e-01 7.782652e-01 6.675761e-01 5.668608e-01 5.014126e-01 5.068323e-01 5.553508e-01 
4.076083e-01 3.996809e-01 3.833889e-01 4.061987e-01 4.842557e-01 5.750337e-01 6.702219e-01 7.206091e-01 7.367577e-01 6.984046e-01 6.042637e-01 4.990700e-01 3.841788e-01 2.894920e-01 6.206936e-01 1.136450e+00 1.258287e+00 1.136450e+00 6.206936e-01 2.894920e-01 3.841788e-01 4.990700e-01 6.042637e-01 6.984046e-01 7.367577e-01 7.206091e-01 6.702219e-01 5.750337e-01 4.842557e-01 4.061987e-01 3.833889e-01 3.996809e-01 
2.580051e-01 2.598314e-01 2.692331e-01 3.111699e-01 3.872718e-01 4.659514e-01 5.379396e-01 5.760758e-01 5.700794e-01 5.174805e-01 4.035934e-01 2.437348e-01 4.227276e-02 2.515221e-01 6.764827e-01 1.046430e+00 1.164346e+00 1.046430e+00 6.764827e-01 2.515221e-01 4.227276e-02 2.437348e-01 4.035934e-01 5.174805e-01 5.700794e-01 5.760758e-01 5.379396e-01 4.659514e-01 3.872718e-01 3.111699e-01 2.692331e-01 2.598314e-01 
1.539150e-01 1.590121e-01 1.749966e-01 2.103097e-01 2.683157e-01 3.275878e-01 3.875389e-01 4.286105e-01 4.458471e-01 4.359786e-01 3.981460e-01 3.508013e-01 3.397582e-01 4.350985e-01 7.006724e-01 9.801013e-01 1.069246e+00 9.801013e-01 7.006724e-01 4.350985e-01 3.397582e-01 3.508013e-01 3.981460e-01 4.359786e-01 4.458471e-01 4.286105e-01 3.875389e-01 3.275878e-01 2.683157e-01 2.103097e-01 1.749966e-01 1.590121e-01 
7.693625e-02 8.663579e-02 1.072770e-01 1.306291e-01 1.657418e-01 2.137134e-01 2.811368e-01 3.668412e-01 4.527232e-01 5.422138e-01 6.102111e-01 6.628190e-01 6.913645e-01 7.073997e-01 7.500188e-01 7.797748e-01 7.894802e-01 7.797748e-01 7.500188e-01 7.073997e-01 6.913645e-01 6.628190e-01 6.102111e-01 5.422138e-01 4.527232e-01 3.668412e-01 2.811368e-01 2.137134e-01 1.657418e-01 1.306291e-01 1.072770e-01 8.663579e-02 
3.196658e-02 4.548275e-02 6.154608e-02 6.209928e-02 7.552406e-02 1.410863e-01 2.523775e-01 3.954305e-01 5.501546e-01 7.011031e-01 8.313189e-01 9.158124e-01 9.460253e-01 8.913268e-01 7.608897e-01 5.560826e-01 4.334173e-01 5.560826e-01 7.608897e-01 8.913268e-01 9.460253e-01 9.158124e-01 8.313189e-01 7.011031e-01 5.501546e-01 3.954305e-01 2.523775e-01 1.410863e-01 7.552406e-02 6.209928e-02 6.154608e-02 4.548275e-02 
