# vtk DataFile Version 2.0
Comment goes here
ASCII

DATASET STRUCTURED_POINTS
FIELD FieldData 1
TIME 1 1 double
0.02000000
DIMENSIONS    32   32   1

ORIGIN    0.000   0.000   0.000
SPACING   0.03125 0.03125   1.000

POINT_DATA   1024
SCALARS uMag double
LOOKUP_TABLE default

7.444578e-16 1.616490e-01 3.275853e-01 5.031436e-01 6.898240e-01 8.956205e-01 1.113263e+00 1.354492e+00 1.594444e+00 1.840539e+00 2.040654e+00 2.177927e+00 2.160741e+00 1.928356e+00 1.646150e+00 8.766285e-01 8.266970e-15 8.766285e-01 1.646150e+00 1.928356e+00 2.160741e+00 2.177927e+00 2.040654e+00 1.840539e+00 1.594444e+00 1.354492e+00 1.113263e+00 8.956205e-01 6.898240e-01 5.031436e-01 3.275853e-01 1.616490e-01 
1.616490e-01 2.301135e-01 3.711244e-01 5.359957e-01 7.242749e-01 9.283534e-01 1.159106e+00 1.405347e+00 1.674633e+00 1.937947e+00 2.191853e+00 2.360975e+00 2.368116e+00 2.044077e+00 1.257151e+00 9.445562e-01 8.766285e-01 9.445562e-01 1.257151e+00 2.044077e+00 2.368116e+00 2.360975e+00 2.191853e+00 1.937947e+00 1.674633e+00 1.405347e+00 1.159106e+00 9.283534e-01 7.242749e-01 5.359957e-01 3.711244e-01 2.301135e-01 
3.232595e-01 3.631095e-01 4.623684e-01 6.027606e-01 7.707639e-01 9.677248e-01 1.186222e+00 1.438646e+00 1.700529e+00 1.987456e+00 2.249036e+00 2.481845e+00 2.505063e+00 2.579118e+00 2.722124e+00 1.930628e+00 9.267873e-01 1.930628e+00 2.722124e+00 2.579118e+00 2.505063e+00 2.481845e+00 2.249036e+00 1.987456e+00 1.700529e+00 1.438646e+00 1.186222e+00 9.677248e-01 7.707639e-01 6.027606e-01 4.623684e-01 3.631095e-01 
4.667381e-01 4.948650e-01 5.751333e-01 6.940309e-01 8.540878e-01 1.040544e+00 1.270326e+00 1.531631e+00 1.840275e+00 2.186482e+00 2.632034e+00 3.040813e+00 3.495536e+00 3.798792e+00 3.354591e+00 3.351432e+00 3.990101e+00 3.351432e+00 3.354591e+00 3.798792e+00 3.495536e+00 3.040813e+00 2.632034e+00 2.186482e+00 1.840275e+00 1.531631e+00 1.270326e+00 1.040544e+00 8.540878e-01 6.940309e-01 5.751333e-01 4.948650e-01 
6.074231e-01 6.330713e-01 6.967438e-01 8.044681e-01 9.509616e-01 1.137339e+00 1.369028e+00 1.661004e+00 1.998626e+00 2.463041e+00 3.032038e+00 3.244251e+00 2.600006e+00 1.891846e+00 4.156051e+00 4.514430e+00 3.701692e+00 4.514430e+00 4.156051e+00 1.891846e+00 2.600006e+00 3.244251e+00 3.032038e+00 2.463041e+00 1.998626e+00 1.661004e+00 1.369028e+00 1.137339e+00 9.509616e-01 8.044681e-01 6.967438e-01 6.330713e-01 
7.135954e-01 7.350983e-01 7.931794e-01 8.887716e-01 1.032417e+00 1.206175e+00 1.450315e+00 1.742194e+00 2.103781e+00 2.677261e+00 2.867588e+00 1.355479e+00 2.498989e+00 5.468025e+00 4.954455e+00 2.129953e+00 9.957333e-01 2.129953e+00 4.954455e+00 5.468025e+00 2.498989e+00 1.355479e+00 2.867588e+00 2.677261e+00 2.103781e+00 1.742194e+00 1.450315e+00 1.206175e+00 1.032417e+00 8.887716e-01 7.931794e-01 7.350983e-01 
8.090114e-01 8.341692e-01 8.841446e-01 9.810042e-01 1.119693e+00 1.297682e+00 1.556488e+00 1.858805e+00 2.284476e+00 2.793345e+00 1.301740e+00 2.276023e+00 5.208050e+00 5.064441e+00 2.213897e+00 1.061561e+00 1.220217e+00 1.061561e+00 2.213897e+00 5.064441e+00 5.208050e+00 2.276023e+00 1.301740e+00 2.793345e+00 2.284476e+00 1.858805e+00 1.556488e+00 1.297682e+00 1.119693e+00 9.810042e-01 8.841446e-01 8.341692e-01 
8.579582e-01 8.830983e-01 9.302694e-01 1.024197e+00 1.162850e+00 1.330250e+00 1.615496e+00 1.855741e+00 2.402194e+00 1.945950e+00 1.255737e+00 4.606498e+00 5.765012e+00 3.213678e+00 9.836213e-01 7.774106e-01 5.970561e-01 7.774106e-01 9.836213e-01 3.213678e+00 5.765012e+00 4.606498e+00 1.255737e+00 1.945950e+00 2.402194e+00 1.855741e+00 1.615496e+00 1.330250e+00 1.162850e+00 1.024197e+00 9.302694e-01 8.830983e-01 
8.874129e-01 9.193473e-01 9.589000e-01 1.062661e+00 1.189863e+00 1.373854e+00 1.640855e+00 1.890524e+00 2.251771e+00 9.631703e-01 2.997466e+00 5.610787e+00 4.702184e+00 1.326654e+00 5.675688e-01 4.775999e-01 3.831753e-01 4.775999e-01 5.675688e-01 1.326654e+00 4.702184e+00 5.610787e+00 2.997466e+00 9.631703e-01 2.251771e+00 1.890524e+00 1.640855e+00 1.373854e+00 1.189863e+00 1.062661e+00 9.589000e-01 9.193473e-01 
8.661349e-01 9.028182e-01 9.373932e-01 1.052896e+00 1.164508e+00 1.383483e+00 1.591007e+00 1.932175e+00 1.808926e+00 1.451112e+00 4.072745e+00 5.549666e+00 2.901346e+00 3.330815e-01 4.784306e-01 1.898511e-01 1.534862e-01 1.898511e-01 4.784306e-01 3.330815e-01 2.901346e+00 5.549666e+00 4.072745e+00 1.451112e+00 1.808926e+00 1.932175e+00 1.591007e+00 1.383483e+00 1.164508e+00 1.052896e+00 9.373932e-01 9.028182e-01 
8.232304e-01 8.668700e-01 8.967041e-01 1.026019e+00 1.124402e+00 1.370747e+00 1.524911e+00 1.894130e+00 1.458174e+00 2.132832e+00 4.436007e+00 4.639942e+00 1.417385e+00 3.312797e-01 2.885333e-01 1.034264e-01 7.995482e-02 1.034264e-01 2.885333e-01 3.312797e-01 1.417385e+00 4.639942e+00 4.436007e+00 2.132832e+00 1.458174e+00 1.894130e+00 1.524911e+00 1.370747e+00 1.124402e+00 1.026019e+00 8.967041e-01 8.668700e-01 
7.351306e-01 7.827413e-01 8.156555e-01 9.547655e-01 1.056710e+00 1.311909e+00 1.457917e+00 1.785941e+00 1.396599e+00 2.482055e+00 4.254594e+00 3.477752e+00 5.148537e-01 4.331302e-01 1.642219e-01 1.881299e-01 2.387328e-02 1.881299e-01 1.642219e-01 4.331302e-01 5.148537e-01 3.477752e+00 4.254594e+00 2.482055e+00 1.396599e+00 1.785941e+00 1.457917e+00 1.311909e+00 1.056710e+00 9.547655e-01 8.156555e-01 7.827413e-01 
6.298962e-01 6.803589e-01 7.238352e-01 8.695056e-01 9.940055e-01 1.241452e+00 1.433530e+00 1.695958e+00 1.589873e+00 2.637543e+00 3.716673e+00 2.385770e+00 1.262942e-01 3.775026e-01 1.271294e-01 2.019079e-01 6.229899e-02 2.019079e-01 1.271294e-01 3.775026e-01 1.262942e-01 2.385770e+00 3.716673e+00 2.637543e+00 1.589873e+00 1.695958e+00 1.433530e+00 1.241452e+00 9.940055e-01 8.695056e-01 7.238352e-01 6.803589e-01 
4.907965e-01 5.431998e-01 6.100512e-01 7.614246e-01 9.245668e-01 1.154752e+00 1.411647e+00 1.628691e+00 1.815116e+00 2.534181e+00 2.856872e+00 1.454330e+00 2.552747e-01 2.875275e-01 1.592688e-01 1.881871e-01 8.995463e-02 1.881871e-01 1.592688e-01 2.875275e-01 2.552747e-01 1.454330e+00 2.856872e+00 2.534181e+00 1.815116e+00 1.628691e+00 1.411647e+00 1.154752e+00 9.245668e-01 7.614246e-01 6.100512e-01 5.431998e-01 
3.404232e-01 3.972783e-01 4.989951e-01 6.561215e-01 8.591522e-01 1.069875e+00 1.375593e+00 1.579599e+00 1.877595e+00 2.110140e+00 1.895200e+00 8.344226e-01 3.217525e-01 2.100880e-01 1.601389e-01 1.347037e-01 7.087488e-02 1.347037e-01 1.601389e-01 2.100880e-01 3.217525e-01 8.344226e-01 1.895200e+00 2.110140e+00 1.877595e+00 1.579599e+00 1.375593e+00 1.069875e+00 8.591522e-01 6.561215e-01 4.989951e-01 3.972783e-01 
1.721848e-01 2.509372e-01 4.083222e-01 5.772586e-01 8.177759e-01 1.019396e+00 1.359535e+00 1.575372e+00 1.903851e+00 1.691042e+00 1.013242e+00 4.292925e-01 3.175131e-01 1.707489e-01 1.464369e-01 7.970448e-02 4.295817e-02 7.970448e-02 1.464369e-01 1.707489e-01 3.175131e-01 4.292925e-01 1.013242e+00 1.691042e+00 1.903851e+00 1.575372e+00 1.359535e+00 1.019396e+00 8.177759e-01 5.772586e-01 4.083222e-01 2.509372e-01 
2.833217e-15 1.721848e-01 3.687681e-01 5.424567e-01 7.963523e-01 9.934618e-01 1.344480e+00 1.566268e+00 1.901095e+00 1.486362e+00 4.194607e-01 2.620524e-01 3.229587e-01 1.670687e-01 1.427864e-01 4.295817e-02 5.591897e-15 4.295817e-02 1.427864e-01 1.670687e-01 3.229587e-01 2.620524e-01 4.194607e-01 1.486362e+00 1.901095e+00 1.566268e+00 1.344480e+00 9.934618e-01 7.963523e-01 5.424567e-01 3.687681e-01 1.721848e-01 
1.721848e-01 2.509372e-01 4.083222e-01 5.772586e-01 8.177759e-01 1.019396e+00 1.359535e+00 1.575372e+00 1.903851e+00 1.691042e+00 1.013242e+00 4.292925e-01 3.175131e-01 1.707489e-01 1.464369e-01 7.970448e-02 4.295817e-02 7.970448e-02 1.464369e-01 1.707489e-01 3.175131e-01 4.292925e-01 1.013242e+00 1.691042e+00 1.903851e+00 1.575372e+00 1.359535e+00 1.019396e+00 8.177759e-01 5.772586e-01 4.083222e-01 2.509372e-01 
3.404232e-01 3.972783e-01 4.989951e-01 6.561215e-01 8.591522e-01 1.069875e+00 1.375593e+00 1.579599e+00 1.877595e+00 2.110140e+00 1.895200e+00 8.344226e-01 3.217525e-01 2.100880e-01 1.601389e-01 1.347037e-01 7.087488e-02 1.347037e-01 1.601389e-01 2.100880e-01 3.217525e-01 8.344226e-01 1.895200e+00 2.110140e+00 1.877595e+00 1.579599e+00 1.375593e+00 1.069875e+00 8.591522e-01 6.561215e-01 4.989951e-01 3.972783e-01 
4.907965e-01 5.431998e-01 6.100512e-01 7.614246e-01 9.245668e-01 1.154752e+00 1.411647e+00 1.628691e+00 1.815116e+00 2.534181e+00 2.856872e+00 1.454330e+00 2.552747e-01 2.875275e-01 1.592688e-01 1.881871e-01 8.995463e-02 1.881871e-01 1.592688e-01 2.875275e-01 2.552747e-01 1.454330e+00 2.856872e+00 2.534181e+00 1.815116e+00 1.628691e+00 1.411647e+00 1.154752e+00 9.245668e-01 7.614246e-01 6.100512e-01 5.431998e-01 
6.298962e-01 6.803589e-01 7.238352e-01 8.695056e-01 9.940055e-01 1.241452e+00 1.433530e+00 1.695958e+00 1.589873e+00 2.637543e+00 3.716673e+00 2.385770e+00 1.262942e-01 3.775026e-01 1.271294e-01 2.019079e-01 6.229899e-02 2.019079e-01 1.271294e-01 3.775026e-01 1.262942e-01 2.385770e+00 3.716673e+00 2.637543e+00 1.589873e+00 1.695958e+00 1.433530e+00 1.241452e+00 9.940055e-01 8.695056e-01 7.238352e-01 6.803589e-01 
7.351306e-01 7.827413e-01 8.156555e-01 9.547655e-01 1.056710e+00 1.311909e+00 1.457917e+00 1.785941e+00 1.396599e+00 2.482055e+00 4.254594e+00 3.477752e+00 5.148537e-01 4.331302e-01 1.642219e-01 1.881299e-01 2.387328e-02 1.881299e-01 1.642219e-01 4.331302e-01 5.148537e-01 3.477752e+00 4.254594e+00 2.482055e+00 1.396599e+00 1.785941e+00 1.457917e+00 1.311909e+00 1.056710e+00 9.547655e-01 8.156555e-01 7.827413e-01 
8.232304e-01 8.668700e-01 8.967041e-01 1.026019e+00 1.124402e+00 1.370747e+00 1.524911e+00 1.894130e+00 1.458174e+00 2.132832e+00 4.436007e+00 4.639942e+00 1.417385e+00 3.312797e-01 2.885333e-01 1.034264e-01 7.995482e-02 1.034264e-01 2.885333e-01 3.312797e-01 1.417385e+00 4.639942e+00 4.436007e+00 2.132832e+00 1.458174e+00 1.894130e+00 1.524911e+00 1.370747e+00 1.124402e+00 1.026019e+00 8.967041e-01 8.668700e-01 
8.661349e-01 9.028182e-01 9.373932e-01 1.052896e+00 1.164508e+00 1.383483e+00 1.591007e+00 1.932175e+00 1.808926e+00 1.451112e+00 4.072745e+00 5.549666e+00 2.901346e+00 3.330815e-01 4.784306e-01 1.898511e-01 1.534862e-01 1.898511e-01 4.784306e-01 3.330815e-01 2.901346e+00 5.549666e+00 4.072745e+00 1.451112e+00 1.808926e+00 1.932175e+00 1.591007e+00 1.383483e+00 1.164508e+00 1.052896e+00 9.373932e-01 9.028182e-01 
8.874129e-01 9.193473e-01 9.589000e-01 1.062661e+00 1.189863e+00 1.373854e+00 1.640855e+00 1.890524e+00 2.251771e+00 9.631703e-01 2.997466e+00 5.610787e+00 4.702184e+00 1.326654e+00 5.675688e-01 4.775999e-01 3.831753e-01 4.775999e-01 5.675688e-01 1.326654e+00 4.702184e+00 5.610787e+00 2.997466e+00 9.631703e-01 2.251771e+00 1.890524e+00 1.640855e+00 1.373854e+00 1.189863e+00 1.062661e+00 9.589000e-01 9.193473e-01 
8.579582e-01 8.830983e-01 9.302694e-01 1.024197e+00 1.162850e+00 1.330250e+00 1.615496e+00 1.855741e+00 2.402194e+00 1.945950e+00 1.255737e+00 4.606498e+00 5.765012e+00 3.213678e+00 9.836213e-01 7.774106e-01 5.970561e-01 7.774106e-01 9.836213e-01 3.213678e+00 5.765012e+00 4.606498e+00 1.255737e+00 1.945950e+00 2.402194e+00 1.855741e+00 1.615496e+00 1.330250e+00 1.162850e+00 1.024197e+00 9.302694e-01 8.830983e-01 
8.090114e-01 8.341692e-01 8.841446e-01 9.810042e-01 1.119693e+00 1.297682e+00 1.556488e+00 1.858805e+00 2.284476e+00 2.793345e+00 1.301740e+00 2.276023e+00 5.208050e+00 5.064441e+00 2.213897e+00 1.061561e+00 1.220217e+00 1.061561e+00 2.213897e+00 5.064441e+00 5.208050e+00 2.276023e+00 1.301740e+00 2.793345e+00 2.284476e+00 1.858805e+00 1.556488e+00 1.297682e+00 1.119693e+00 9.810042e-01 8.841446e-01 8.341692e-01 
7.135954e-01 7.350983e-01 7.931794e-01 8.887716e-01 1.032417e+00 1.206175e+00 1.450315e+00 1.742194e+00 2.103781e+00 2.677261e+00 2.867588e+00 1.355479e+00 2.498989e+00 5.468025e+00 4.954455e+00 2.129953e+00 9.957333e-01 2.129953e+00 4.954455e+00 5.468025e+00 2.498989e+00 1.355479e+00 2.867588e+00 2.677261e+00 2.103781e+00 1.742194e+00 1.450315e+00 1.206175e+00 1.032417e+00 8.887716e-01 7.931794e-01 7.350983e-01 
6.074231e-01 6.330713e-01 6.967438e-01 8.044681e-01 9.509616e-01 1.137339e+00 1.369028e+00 1.661004e+00 1.998626e+00 2.463041e+00 3.032038e+00 3.244251e+00 2.600006e+00 1.891846e+00 4.156051e+00 4.514430e+00 3.701692e+00 4.514430e+00 4.156051e+00 1.891846e+00 2.600006e+00 3.244251e+00 3.032038e+00 2.463041e+00 1.998626e+00 1.661004e+00 1.369028e+00 1.137339e+00 9.509616e-01 8.044681e-01 6.967438e-01 6.330713e-01 
4.667381e-01 4.948650e-01 5.751333e-01 6.940309e-01 8.540878e-01 1.040544e+00 1.270326e+00 1.531631e+00 1.840275e+00 2.186482e+00 2.632034e+00 3.040813e+00 3.495536e+00 3.798792e+00 3.354591e+00 3.351432e+00 3.990101e+00 3.351432e+00 3.354591e+00 3.798792e+00 3.495536e+00 3.040813e+00 2.632034e+00 2.186482e+00 1.840275e+00 1.531631e+00 1.270326e+00 1.040544e+00 8.540878e-01 6.940309e-01 5.751333e-01 4.948650e-01 
3.232595e-01 3.631095e-01 4.623684e-01 6.027606e-01 7.707639e-01 9.677248e-01 1.186222e+00 1.438646e+00 1.700529e+00 1.987456e+00 2.249036e+00 2.481845e+00 2.505063e+00 2.579118e+00 2.722124e+00 1.930628e+00 9.267873e-01 1.930628e+00 2.722124e+00 2.579118e+00 2.505063e+00 2.481845e+00 2.249036e+00 1.987456e+00 1.700529e+00 1.438646e+00 1.186222e+00 9.677248e-01 7.707639e-01 6.027606e-01 4.623684e-01 3.631095e-01 
1.616490e-01 2.301135e-01 3.711244e-01 5.359957e-01 7.242749e-01 9.283534e-01 1.159106e+00 1.405347e+00 1.674633e+00 1.937947e+00 2.191853e+00 2.360975e+00 2.368116e+00 2.044077e+00 1.257151e+00 9.445562e-01 8.766285e-01 9.445562e-01 1.257151e+00 2.044077e+00 2.368116e+00 2.360975e+00 2.191853e+00 1.937947e+00 1.674633e+00 1.405347e+00 1.159106e+00 9.283534e-01 7.242749e-01 5.359957e-01 3.711244e-01 2.301135e-01 
