# vtk DataFile Version 2.0
Comment goes here
ASCII

DATASET STRUCTURED_POINTS
FIELD FieldData 1
TIME 1 1 double
0.20000000
DIMENSIONS    32   32   1

ORIGIN    0.000   0.000   0.000
SPACING   0.03125 0.03125   1.000

POINT_DATA   1024
SCALARS uMag double
LOOKUP_TABLE default

3.252799e-15 1.697267e-01 3.391585e-01 5.090426e-01 6.750138e-01 8.385432e-01 9.832613e-01 1.114680e+00 1.190216e+00 1.227301e+00 1.149264e+00 9.814052e-01 6.633349e-01 2.501435e-01 1.231979e-01 3.768288e-01 3.621886e-14 3.768288e-01 1.231979e-01 2.501435e-01 6.633349e-01 9.814052e-01 1.149264e+00 1.227301e+00 1.190216e+00 1.114680e+00 9.832613e-01 8.385432e-01 6.750138e-01 5.090426e-01 3.391585e-01 1.697267e-01 
1.697267e-01 2.410407e-01 3.822366e-01 5.420235e-01 7.048737e-01 8.689859e-01 1.018651e+00 1.157561e+00 1.247747e+00 1.303375e+00 1.259354e+00 1.124343e+00 8.801130e-01 5.211830e-01 3.255185e-01 3.589282e-01 3.768288e-01 3.589282e-01 3.255185e-01 5.211830e-01 8.801130e-01 1.124343e+00 1.259354e+00 1.303375e+00 1.247747e+00 1.157561e+00 1.018651e+00 8.689859e-01 7.048737e-01 5.420235e-01 3.822366e-01 2.410407e-01 
3.425987e-01 3.823285e-01 4.843400e-01 6.179452e-01 7.681258e-01 9.237764e-01 1.075381e+00 1.218370e+00 1.321142e+00 1.405361e+00 1.394980e+00 1.341794e+00 1.181248e+00 9.840422e-01 7.131909e-01 4.854589e-01 7.072058e-01 4.854589e-01 7.131909e-01 9.840422e-01 1.181248e+00 1.341794e+00 1.394980e+00 1.405361e+00 1.321142e+00 1.218370e+00 1.075381e+00 9.237764e-01 7.681258e-01 6.179452e-01 4.843400e-01 3.823285e-01 
5.094562e-01 5.380319e-01 6.175160e-01 7.323187e-01 8.726409e-01 1.025552e+00 1.188452e+00 1.349066e+00 1.491602e+00 1.648923e+00 1.743093e+00 1.884803e+00 1.915782e+00 1.678073e+00 1.225964e+00 2.599847e-01 1.331777e+00 2.599847e-01 1.225964e+00 1.678073e+00 1.915782e+00 1.884803e+00 1.743093e+00 1.648923e+00 1.491602e+00 1.349066e+00 1.188452e+00 1.025552e+00 8.726409e-01 7.323187e-01 6.175160e-01 5.380319e-01 
6.825459e-01 7.046146e-01 7.707651e-01 8.709441e-01 1.004583e+00 1.154412e+00 1.332757e+00 1.505878e+00 1.700328e+00 1.927864e+00 2.134712e+00 2.322213e+00 2.561523e+00 2.856913e+00 2.746825e+00 2.038902e+00 4.268247e-01 2.038902e+00 2.746825e+00 2.856913e+00 2.561523e+00 2.322213e+00 2.134712e+00 1.927864e+00 1.700328e+00 1.505878e+00 1.332757e+00 1.154412e+00 1.004583e+00 8.709441e-01 7.707651e-01 7.046146e-01 
8.405927e-01 8.608853e-01 9.190883e-01 1.014055e+00 1.143021e+00 1.296037e+00 1.486146e+00 1.671875e+00 1.955323e+00 2.294629e+00 2.573664e+00 2.883079e+00 3.535363e+00 3.749361e+00 3.453435e+00 2.783584e+00 2.742891e+00 2.783584e+00 3.453435e+00 3.749361e+00 3.535363e+00 2.883079e+00 2.573664e+00 2.294629e+00 1.955323e+00 1.671875e+00 1.486146e+00 1.296037e+00 1.143021e+00 1.014055e+00 9.190883e-01 8.608853e-01 
1.000105e+00 1.017964e+00 1.072340e+00 1.163438e+00 1.290666e+00 1.447619e+00 1.651701e+00 1.875386e+00 2.384355e+00 2.715331e+00 2.803667e+00 2.847693e+00 2.621671e+00 2.577387e+00 3.239123e+00 3.394327e+00 3.102082e+00 3.394327e+00 3.239123e+00 2.577387e+00 2.621671e+00 2.847693e+00 2.803667e+00 2.715331e+00 2.384355e+00 1.875386e+00 1.651701e+00 1.447619e+00 1.290666e+00 1.163438e+00 1.072340e+00 1.017964e+00 
1.131243e+00 1.148712e+00 1.197222e+00 1.286856e+00 1.404149e+00 1.571604e+00 1.775061e+00 2.171239e+00 2.811935e+00 2.513093e+00 1.509828e+00 1.217578e+00 3.143523e+00 3.788429e+00 3.079487e+00 2.474552e+00 2.365873e+00 2.474552e+00 3.079487e+00 3.788429e+00 3.143523e+00 1.217578e+00 1.509828e+00 2.513093e+00 2.811935e+00 2.171239e+00 1.775061e+00 1.571604e+00 1.404149e+00 1.286856e+00 1.197222e+00 1.148712e+00 
1.253878e+00 1.265772e+00 1.305776e+00 1.381307e+00 1.487200e+00 1.669053e+00 1.922400e+00 2.623593e+00 2.719365e+00 9.230152e-01 1.611881e+00 3.586115e+00 3.813282e+00 2.501590e+00 1.706056e+00 1.989319e+00 2.286883e+00 1.989319e+00 1.706056e+00 2.501590e+00 3.813282e+00 3.586115e+00 1.611881e+00 9.230152e-01 2.719365e+00 2.623593e+00 1.922400e+00 1.669053e+00 1.487200e+00 1.381307e+00 1.305776e+00 1.265772e+00 
1.336580e+00 1.339953e+00 1.359937e+00 1.412002e+00 1.520951e+00 1.739954e+00 2.161741e+00 2.850469e+00 1.610202e+00 1.439623e+00 3.386601e+00 3.579003e+00 2.304840e+00 1.346693e+00 1.575866e+00 2.073505e+00 2.371039e+00 2.073505e+00 1.575866e+00 1.346693e+00 2.304840e+00 3.579003e+00 3.386601e+00 1.439623e+00 1.610202e+00 2.850469e+00 2.161741e+00 1.739954e+00 1.520951e+00 1.412002e+00 1.359937e+00 1.339953e+00 
1.413037e+00 1.397580e+00 1.382353e+00 1.390151e+00 1.526199e+00 1.764773e+00 2.376654e+00 2.341137e+00 1.391304e+00 2.937319e+00 3.711030e+00 2.984372e+00 1.537916e+00 1.061477e+00 1.504110e+00 1.962014e+00 2.263908e+00 1.962014e+00 1.504110e+00 1.061477e+00 1.537916e+00 2.984372e+00 3.711030e+00 2.937319e+00 1.391304e+00 2.341137e+00 2.376654e+00 1.764773e+00 1.526199e+00 1.390151e+00 1.382353e+00 1.397580e+00 
1.455600e+00 1.413477e+00 1.328788e+00 1.282708e+00 1.424300e+00 1.723117e+00 2.254472e+00 1.820234e+00 2.018467e+00 3.030567e+00 3.419375e+00 2.352520e+00 1.311712e+00 1.272534e+00 1.407155e+00 1.703811e+00 1.937310e+00 1.703811e+00 1.407155e+00 1.272534e+00 1.311712e+00 2.352520e+00 3.419375e+00 3.030567e+00 2.018467e+00 1.820234e+00 2.254472e+00 1.723117e+00 1.424300e+00 1.282708e+00 1.328788e+00 1.413477e+00 
1.495059e+00 1.422179e+00 1.240807e+00 1.145039e+00 1.259064e+00 1.669563e+00 2.022292e+00 1.966054e+00 2.139535e+00 3.009763e+00 3.222826e+00 1.921642e+00 1.377578e+00 1.358408e+00 1.232473e+00 1.266498e+00 1.372404e+00 1.266498e+00 1.232473e+00 1.358408e+00 1.377578e+00 1.921642e+00 3.222826e+00 3.009763e+00 2.139535e+00 1.966054e+00 2.022292e+00 1.669563e+00 1.259064e+00 1.145039e+00 1.240807e+00 1.422179e+00 
1.462319e+00 1.361548e+00 1.110032e+00 1.016693e+00 1.155321e+00 1.649011e+00 2.005509e+00 2.226051e+00 2.627777e+00 3.179288e+00 2.796706e+00 1.467333e+00 1.150451e+00 1.089397e+00 9.188850e-01 8.277440e-01 8.216479e-01 8.277440e-01 9.188850e-01 1.089397e+00 1.150451e+00 1.467333e+00 2.796706e+00 3.179288e+00 2.627777e+00 2.226051e+00 2.005509e+00 1.649011e+00 1.155321e+00 1.016693e+00 1.110032e+00 1.361548e+00 
1.286010e+00 1.209903e+00 1.068509e+00 1.130503e+00 1.367029e+00 1.786424e+00 2.192670e+00 2.445942e+00 2.726640e+00 2.699630e+00 1.925022e+00 9.520778e-01 7.577912e-01 7.116713e-01 5.900195e-01 4.628688e-01 3.991946e-01 4.628688e-01 5.900195e-01 7.116713e-01 7.577912e-01 9.520778e-01 1.925022e+00 2.699630e+00 2.726640e+00 2.445942e+00 2.192670e+00 1.786424e+00 1.367029e+00 1.130503e+00 1.068509e+00 1.209903e+00 
8.155399e-01 9.561163e-01 1.248156e+00 1.512171e+00 1.774047e+00 1.988089e+00 2.490518e+00 2.749789e+00 2.527715e+00 2.080107e+00 1.179777e+00 5.194785e-01 3.918864e-01 3.696425e-01 3.160621e-01 2.253289e-01 1.404648e-01 2.253289e-01 3.160621e-01 3.696425e-01 3.918864e-01 5.194785e-01 1.179777e+00 2.080107e+00 2.527715e+00 2.749789e+00 2.490518e+00 1.988089e+00 1.774047e+00 1.512171e+00 1.248156e+00 9.561163e-01 
7.269030e-15 8.155399e-01 1.415207e+00 1.706852e+00 1.918032e+00 2.034393e+00 2.643560e+00 2.957033e+00 2.455764e+00 1.790929e+00 7.460769e-01 2.807672e-01 2.330932e-01 2.217125e-01 2.091315e-01 1.404648e-01 6.806726e-15 1.404648e-01 2.091315e-01 2.217125e-01 2.330932e-01 2.807672e-01 7.460769e-01 1.790929e+00 2.455764e+00 2.957033e+00 2.643560e+00 2.034393e+00 1.918032e+00 1.706852e+00 1.415207e+00 8.155399e-01 
8.155399e-01 9.561163e-01 1.248156e+00 1.512171e+00 1.774047e+00 1.988089e+00 2.490518e+00 2.749789e+00 2.527715e+00 2.080107e+00 1.179777e+00 5.194785e-01 3.918864e-01 3.696425e-01 3.160621e-01 2.253289e-01 1.404648e-01 2.253289e-01 3.160621e-01 3.696425e-01 3.918864e-01 5.194785e-01 1.179777e+00 2.080107e+00 2.527715e+00 2.749789e+00 2.490518e+00 1.988089e+00 1.774047e+00 1.512171e+00 1.248156e+00 9.561163e-01 
1.286010e+00 1.209903e+00 1.068509e+00 1.130503e+00 1.367029e+00 1.786424e+00 2.192670e+00 2.445942e+00 2.726640e+00 2.699630e+00 1.925022e+00 9.520778e-01 7.577912e-01 7.116713e-01 5.900195e-01 4.628688e-01 3.991946e-01 4.628688e-01 5.900195e-01 7.116713e-01 7.577912e-01 9.520778e-01 1.925022e+00 2.699630e+00 2.726640e+00 2.445942e+00 2.192670e+00 1.786424e+00 1.367029e+00 1.130503e+00 1.068509e+00 1.209903e+00 
1.462319e+00 1.361548e+00 1.110032e+00 1.016693e+00 1.155321e+00 1.649011e+00 2.005509e+00 2.226051e+00 2.627777e+00 3.179288e+00 2.796706e+00 1.467333e+00 1.150451e+00 1.089397e+00 9.188850e-01 8.277440e-01 8.216479e-01 8.277440e-01 9.188850e-01 1.089397e+00 1.150451e+00 1.467333e+00 2.796706e+00 3.179288e+00 2.627777e+00 2.226051e+00 2.005509e+00 1.649011e+00 1.155321e+00 1.016693e+00 1.110032e+00 1.361548e+00 
1.495059e+00 1.422179e+00 1.240807e+00 1.145039e+00 1.259064e+00 1.669563e+00 2.022292e+00 1.966054e+00 2.139535e+00 3.009763e+00 3.222826e+00 1.921642e+00 1.377578e+00 1.358408e+00 1.232473e+00 1.266498e+00 1.372404e+00 1.266498e+00 1.232473e+00 1.358408e+00 1.377578e+00 1.921642e+00 3.222826e+00 3.009763e+00 2.139535e+00 1.966054e+00 2.022292e+00 1.669563e+00 1.259064e+00 1.145039e+00 1.240807e+00 1.422179e+00 
1.455600e+00 1.413477e+00 1.328788e+00 1.282708e+00 1.424300e+00 1.723117e+00 2.254472e+00 1.820234e+00 2.018467e+00 3.030567e+00 3.419375e+00 2.352520e+00 1.311712e+00 1.272534e+00 1.407155e+00 1.703811e+00 1.937310e+00 1.703811e+00 1.407155e+00 1.272534e+00 1.311712e+00 2.352520e+00 3.419375e+00 3.030567e+00 2.018467e+00 1.820234e+00 2.254472e+00 1.723117e+00 1.424300e+00 1.282708e+00 1.328788e+00 1.413477e+00 
1.413037e+00 1.397580e+00 1.382353e+00 1.390151e+00 1.526199e+00 1.764773e+00 2.376654e+00 2.341137e+00 1.391304e+00 2.937319e+00 3.711030e+00 2.984372e+00 1.537916e+00 1.061477e+00 1.504110e+00 1.962014e+00 2.263908e+00 1.962014e+00 1.504110e+00 1.061477e+00 1.537916e+00 2.984372e+00 3.711030e+00 2.937319e+00 1.391304e+00 2.341137e+00 2.376654e+00 1.764773e+00 1.526199e+00 1.390151e+00 1.382353e+00 1.397580e+00 
1.336580e+00 1.339953e+00 1.359937e+00 1.412002e+00 1.520951e+00 1.739954e+00 2.161741e+00 2.850469e+00 1.610202e+00 1.439623e+00 3.386601e+00 3.579003e+00 2.304840e+00 1.346693e+00 1.575866e+00 2.073505e+00 2.371039e+00 2.073505e+00 1.575866e+00 1.346693e+00 2.304840e+00 3.579003e+00 3.386601e+00 1.439623e+00 1.610202e+00 2.850469e+00 2.161741e+00 1.739954e+00 1.520951e+00 1.412002e+00 1.359937e+00 1.339953e+00 
1.253878e+00 1.265772e+00 1.305776e+00 1.381307e+00 1.487200e+00 1.669053e+00 1.922400e+00 2.623593e+00 2.719365e+00 9.230152e-01 1.611881e+00 3.586115e+00 3.813282e+00 2.501590e+00 1.706056e+00 1.989319e+00 2.286883e+00 1.989319e+00 1.706056e+00 2.501590e+00 3.813282e+00 3.586115e+00 1.611881e+00 9.230152e-01 2.719365e+00 2.623593e+00 1.922400e+00 1.669053e+00 1.487200e+00 1.381307e+00 1.305776e+00 1.265772e+00 
1.131243e+00 1.148712e+00 1.197222e+00 1.286856e+00 1.404149e+00 1.571604e+00 1.775061e+00 2.171239e+00 2.811935e+00 2.513093e+00 1.509828e+00 1.217578e+00 3.143523e+00 3.788429e+00 3.079487e+00 2.474552e+00 2.365873e+00 2.474552e+00 3.079487e+00 3.788429e+00 3.143523e+00 1.217578e+00 1.509828e+00 2.513093e+00 2.811935e+00 2.171239e+00 1.775061e+00 1.571604e+00 1.404149e+00 1.286856e+00 1.197222e+00 1.148712e+00 
1.000105e+00 1.017964e+00 1.072340e+00 1.163438e+00 1.290666e+00 1.447619e+00 1.651701e+00 1.875386e+00 2.384355e+00 2.715331e+00 2.803667e+00 2.847693e+00 2.621671e+00 2.577387e+00 3.239123e+00 3.394327e+00 3.102082e+00 3.394327e+00 3.239123e+00 2.577387e+00 2.621671e+00 2.847693e+00 2.803667e+00 2.715331e+00 2.384355e+00 1.875386e+00 1.651701e+00 1.447619e+00 1.290666e+00 1.163438e+00 1.072340e+00 1.017964e+00 
8.405927e-01 8.608853e-01 9.190883e-01 1.014055e+00 1.143021e+00 1.296037e+00 1.486146e+00 1.671875e+00 1.955323e+00 2.294629e+00 2.573664e+00 2.883079e+00 3.535363e+00 3.749361e+00 3.453435e+00 2.783584e+00 2.742891e+00 2.783584e+00 3.453435e+00 3.749361e+00 3.535363e+00 2.883079e+00 2.573664e+00 2.294629e+00 1.955323e+00 1.671875e+00 1.486146e+00 1.296037e+00 1.143021e+00 1.014055e+00 9.190883e-01 8.608853e-01 
6.825459e-01 7.046146e-01 7.707651e-01 8.709441e-01 1.004583e+00 1.154412e+00 1.332757e+00 1.505878e+00 1.700328e+00 1.927864e+00 2.134712e+00 2.322213e+00 2.561523e+00 2.856913e+00 2.746825e+00 2.038902e+00 4.268247e-01 2.038902e+00 2.746825e+00 2.856913e+00 2.561523e+00 2.322213e+00 2.134712e+00 1.927864e+00 1.700328e+00 1.505878e+00 1.332757e+00 1.154412e+00 1.004583e+00 8.709441e-01 7.707651e-01 7.046146e-01 
5.094562e-01 5.380319e-01 6.175160e-01 7.323187e-01 8.726409e-01 1.025552e+00 1.188452e+00 1.349066e+00 1.491602e+00 1.648923e+00 1.743093e+00 1.884803e+00 1.915782e+00 1.678073e+00 1.225964e+00 2.599847e-01 1.331777e+00 2.599847e-01 1.225964e+00 1.678073e+00 1.915782e+00 1.884803e+00 1.743093e+00 1.648923e+00 1.491602e+00 1.349066e+00 1.188452e+00 1.025552e+00 8.726409e-01 7.323187e-01 6.175160e-01 5.380319e-01 
3.425987e-01 3.823285e-01 4.843400e-01 6.179452e-01 7.681258e-01 9.237764e-01 1.075381e+00 1.218370e+00 1.321142e+00 1.405361e+00 1.394980e+00 1.341794e+00 1.181248e+00 9.840422e-01 7.131909e-01 4.854589e-01 7.072058e-01 4.854589e-01 7.131909e-01 9.840422e-01 1.181248e+00 1.341794e+00 1.394980e+00 1.405361e+00 1.321142e+00 1.218370e+00 1.075381e+00 9.237764e-01 7.681258e-01 6.179452e-01 4.843400e-01 3.823285e-01 
1.697267e-01 2.410407e-01 3.822366e-01 5.420235e-01 7.048737e-01 8.689859e-01 1.018651e+00 1.157561e+00 1.247747e+00 1.303375e+00 1.259354e+00 1.124343e+00 8.801130e-01 5.211830e-01 3.255185e-01 3.589282e-01 3.768288e-01 3.589282e-01 3.255185e-01 5.211830e-01 8.801130e-01 1.124343e+00 1.259354e+00 1.303375e+00 1.247747e+00 1.157561e+00 1.018651e+00 8.689859e-01 7.048737e-01 5.420235e-01 3.822366e-01 2.410407e-01 
