# vtk DataFile Version 2.0
Comment goes here
ASCII

DATASET STRUCTURED_POINTS
FIELD FieldData 1
TIME 1 1 double
0.62000000
DIMENSIONS    32   32   1

ORIGIN    0.000   0.000   0.000
SPACING   0.03125 0.03125   1.000

POINT_DATA   1024
SCALARS uMag double
LOOKUP_TABLE default

3.875995e-15 5.475238e-02 1.169250e-01 1.958793e-01 2.935777e-01 4.228989e-01 5.761724e-01 7.743283e-01 9.827324e-01 1.227973e+00 1.422500e+00 1.610328e+00 1.646646e+00 1.604997e+00 1.291989e+00 7.767444e-01 3.114542e-14 7.767444e-01 1.291989e+00 1.604997e+00 1.646646e+00 1.610328e+00 1.422500e+00 1.227973e+00 9.827324e-01 7.743283e-01 5.761724e-01 4.228989e-01 2.935777e-01 1.958793e-01 1.169250e-01 5.475238e-02 
5.475238e-02 7.808749e-02 1.317555e-01 2.070330e-01 3.040676e-01 4.302836e-01 5.808811e-01 7.688200e-01 9.652393e-01 1.189429e+00 1.361992e+00 1.526120e+00 1.539767e+00 1.495110e+00 1.235901e+00 9.380521e-01 7.767444e-01 9.380521e-01 1.235901e+00 1.495110e+00 1.539767e+00 1.526120e+00 1.361992e+00 1.189429e+00 9.652393e-01 7.688200e-01 5.808811e-01 4.302836e-01 3.040676e-01 2.070330e-01 1.317555e-01 7.808749e-02 
1.035334e-01 1.182665e-01 1.621249e-01 2.302851e-01 3.244777e-01 4.423262e-01 5.839425e-01 7.442759e-01 9.054672e-01 1.065110e+00 1.167463e+00 1.250129e+00 1.200707e+00 1.195850e+00 1.167472e+00 1.252753e+00 1.360342e+00 1.252753e+00 1.167472e+00 1.195850e+00 1.200707e+00 1.250129e+00 1.167463e+00 1.065110e+00 9.054672e-01 7.442759e-01 5.839425e-01 4.423262e-01 3.244777e-01 2.302851e-01 1.621249e-01 1.182665e-01 
1.349187e-01 1.492651e-01 1.934837e-01 2.620011e-01 3.579470e-01 4.696306e-01 6.046428e-01 7.350975e-01 8.622519e-01 9.482327e-01 9.733173e-01 9.687086e-01 8.607609e-01 9.319392e-01 1.181659e+00 1.506453e+00 1.700736e+00 1.506453e+00 1.181659e+00 9.319392e-01 8.607609e-01 9.687086e-01 9.733173e-01 9.482327e-01 8.622519e-01 7.350975e-01 6.046428e-01 4.696306e-01 3.579470e-01 2.620011e-01 1.934837e-01 1.492651e-01 
1.491527e-01 1.682217e-01 2.212238e-01 2.989524e-01 4.002440e-01 5.115691e-01 6.428177e-01 7.523097e-01 8.571399e-01 8.792124e-01 8.482205e-01 7.384397e-01 5.783578e-01 8.926275e-01 1.379001e+00 1.628892e+00 1.774734e+00 1.628892e+00 1.379001e+00 8.926275e-01 5.783578e-01 7.384397e-01 8.482205e-01 8.792124e-01 8.571399e-01 7.523097e-01 6.428177e-01 5.115691e-01 4.002440e-01 2.989524e-01 2.212238e-01 1.682217e-01 
1.282373e-01 1.605396e-01 2.355193e-01 3.354855e-01 4.499397e-01 5.686427e-01 7.005408e-01 7.959807e-01 8.951020e-01 8.836472e-01 8.392933e-01 7.268021e-01 5.845019e-01 8.877685e-01 1.461760e+00 1.711573e+00 1.875474e+00 1.711573e+00 1.461760e+00 8.877685e-01 5.845019e-01 7.268021e-01 8.392933e-01 8.836472e-01 8.951020e-01 7.959807e-01 7.005408e-01 5.686427e-01 4.499397e-01 3.354855e-01 2.355193e-01 1.605396e-01 
7.941100e-02 1.423285e-01 2.531852e-01 3.854033e-01 5.157969e-01 6.512227e-01 7.858814e-01 8.926385e-01 1.007220e+00 1.007767e+00 1.014923e+00 5.133620e-01 7.615999e-01 1.565490e+00 1.917006e+00 1.550678e+00 1.425536e+00 1.550678e+00 1.917006e+00 1.565490e+00 7.615999e-01 5.133620e-01 1.014923e+00 1.007767e+00 1.007220e+00 8.926385e-01 7.858814e-01 6.512227e-01 5.157969e-01 3.854033e-01 2.531852e-01 1.423285e-01 
2.278711e-02 1.229709e-01 2.650274e-01 4.347878e-01 5.924589e-01 7.569370e-01 9.011490e-01 1.017362e+00 1.175327e+00 1.156943e+00 6.616021e-01 1.081063e+00 1.888378e+00 1.448383e+00 1.112392e+00 9.815622e-01 1.018503e+00 9.815622e-01 1.112392e+00 1.448383e+00 1.888378e+00 1.081063e+00 6.616021e-01 1.156943e+00 1.175327e+00 1.017362e+00 9.011490e-01 7.569370e-01 5.924589e-01 4.347878e-01 2.650274e-01 1.229709e-01 
1.553748e-01 1.783214e-01 3.017015e-01 5.003828e-01 6.854505e-01 8.823664e-01 1.024969e+00 1.208684e+00 1.308404e+00 9.451086e-01 3.635261e-01 1.520344e+00 8.199931e-01 6.600535e-01 1.094728e+00 1.449710e+00 1.650069e+00 1.449710e+00 1.094728e+00 6.600535e-01 8.199931e-01 1.520344e+00 3.635261e-01 9.451086e-01 1.308404e+00 1.208684e+00 1.024969e+00 8.823664e-01 6.854505e-01 5.003828e-01 3.017015e-01 1.783214e-01 
3.457831e-01 3.085727e-01 3.404695e-01 5.351140e-01 7.652245e-01 1.022166e+00 1.190508e+00 1.333987e+00 1.338599e+00 6.238731e-01 7.634462e-01 8.562732e-01 5.419811e-01 1.263990e+00 1.741608e+00 1.522309e+00 1.287481e+00 1.522309e+00 1.741608e+00 1.263990e+00 5.419811e-01 8.562732e-01 7.634462e-01 6.238731e-01 1.338599e+00 1.333987e+00 1.190508e+00 1.022166e+00 7.652245e-01 5.351140e-01 3.404695e-01 3.085727e-01 
5.369097e-01 4.623605e-01 3.947942e-01 5.642877e-01 8.664157e-01 1.201004e+00 1.349976e+00 1.536032e+00 1.369834e+00 5.304223e-01 1.130755e+00 1.248064e+00 1.675520e+00 1.810045e+00 1.371908e+00 7.140488e-01 2.630312e-01 7.140488e-01 1.371908e+00 1.810045e+00 1.675520e+00 1.248064e+00 1.130755e+00 5.304223e-01 1.369834e+00 1.536032e+00 1.349976e+00 1.201004e+00 8.664157e-01 5.642877e-01 3.947942e-01 4.623605e-01 
7.490637e-01 6.444073e-01 4.517800e-01 4.997324e-01 8.344802e-01 1.208069e+00 1.291317e+00 1.912395e+00 1.559294e+00 1.122294e+00 1.411550e+00 1.201391e+00 1.204154e+00 8.981008e-01 6.651845e-01 2.776778e-01 1.550414e-01 2.776778e-01 6.651845e-01 8.981008e-01 1.204154e+00 1.201391e+00 1.411550e+00 1.122294e+00 1.559294e+00 1.912395e+00 1.291317e+00 1.208069e+00 8.344802e-01 4.997324e-01 4.517800e-01 6.444073e-01 
8.862491e-01 7.722100e-01 4.772446e-01 3.440742e-01 7.800475e-01 1.129594e+00 1.577831e+00 2.328920e+00 9.272612e-01 1.763750e+00 9.251546e-01 6.987692e-01 8.133299e-01 6.990320e-01 6.044914e-01 3.359764e-01 2.379089e-01 3.359764e-01 6.044914e-01 6.990320e-01 8.133299e-01 6.987692e-01 9.251546e-01 1.763750e+00 9.272612e-01 2.328920e+00 1.577831e+00 1.129594e+00 7.800475e-01 3.440742e-01 4.772446e-01 7.722100e-01 
9.417803e-01 8.528108e-01 5.331848e-01 2.261875e-01 5.530234e-01 8.982600e-01 1.952516e+00 2.465939e+00 1.339947e+00 1.453990e+00 5.358532e-01 7.001789e-01 6.607670e-01 6.397063e-01 5.117536e-01 3.111629e-01 2.488273e-01 3.111629e-01 5.117536e-01 6.397063e-01 6.607670e-01 7.001789e-01 5.358532e-01 1.453990e+00 1.339947e+00 2.465939e+00 1.952516e+00 8.982600e-01 5.530234e-01 2.261875e-01 5.331848e-01 8.528108e-01 
8.311063e-01 8.050998e-01 6.667986e-01 4.623847e-01 2.368838e-01 6.423340e-01 2.162022e+00 1.797303e+00 1.639584e+00 8.898059e-01 7.102623e-01 7.391401e-01 6.135402e-01 5.534335e-01 4.131821e-01 2.781248e-01 2.331552e-01 2.781248e-01 4.131821e-01 5.534335e-01 6.135402e-01 7.391401e-01 7.102623e-01 8.898059e-01 1.639584e+00 1.797303e+00 2.162022e+00 6.423340e-01 2.368838e-01 4.623847e-01 6.667986e-01 8.050998e-01 
5.326286e-01 6.594422e-01 8.923371e-01 1.034917e+00 1.129041e+00 1.114784e+00 1.543380e+00 1.448956e+00 1.306426e+00 6.534705e-01 9.494742e-01 8.958978e-01 7.443844e-01 5.693402e-01 3.545276e-01 2.030372e-01 1.422655e-01 2.030372e-01 3.545276e-01 5.693402e-01 7.443844e-01 8.958978e-01 9.494742e-01 6.534705e-01 1.306426e+00 1.448956e+00 1.543380e+00 1.114784e+00 1.129041e+00 1.034917e+00 8.923371e-01 6.594422e-01 
3.157064e-14 5.326286e-01 1.024070e+00 1.404250e+00 1.634022e+00 1.427629e+00 3.304475e-01 1.494542e+00 1.136680e+00 6.819122e-01 1.137812e+00 1.020720e+00 8.639740e-01 5.947044e-01 3.324683e-01 1.422655e-01 3.344905e-14 1.422655e-01 3.324683e-01 5.947044e-01 8.639740e-01 1.020720e+00 1.137812e+00 6.819122e-01 1.136680e+00 1.494542e+00 3.304475e-01 1.427629e+00 1.634022e+00 1.404250e+00 1.024070e+00 5.326286e-01 
5.326286e-01 6.594422e-01 8.923371e-01 1.034917e+00 1.129041e+00 1.114784e+00 1.543380e+00 1.448956e+00 1.306426e+00 6.534705e-01 9.494742e-01 8.958978e-01 7.443844e-01 5.693402e-01 3.545276e-01 2.030372e-01 1.422655e-01 2.030372e-01 3.545276e-01 5.693402e-01 7.443844e-01 8.958978e-01 9.494742e-01 6.534705e-01 1.306426e+00 1.448956e+00 1.543380e+00 1.114784e+00 1.129041e+00 1.034917e+00 8.923371e-01 6.594422e-01 
8.311063e-01 8.050998e-01 6.667986e-01 4.623847e-01 2.368838e-01 6.423340e-01 2.162022e+00 1.797303e+00 1.639584e+00 8.898059e-01 7.102623e-01 7.391401e-01 6.135402e-01 5.534335e-01 4.131821e-01 2.781248e-01 2.331552e-01 2.781248e-01 4.131821e-01 5.534335e-01 6.135402e-01 7.391401e-01 7.102623e-01 8.898059e-01 1.639584e+00 1.797303e+00 2.162022e+00 6.423340e-01 2.368838e-01 4.623847e-01 6.667986e-01 8.050998e-01 
9.417803e-01 8.528108e-01 5.331848e-01 2.261875e-01 5.530234e-01 8.982600e-01 1.952516e+00 2.465939e+00 1.339947e+00 1.453990e+00 5.358532e-01 7.001789e-01 6.607670e-01 6.397063e-01 5.117536e-01 3.111629e-01 2.488273e-01 3.111629e-01 5.117536e-01 6.397063e-01 6.607670e-01 7.001789e-01 5.358532e-01 1.453990e+00 1.339947e+00 2.465939e+00 1.952516e+00 8.982600e-01 5.530234e-01 2.261875e-01 5.331848e-01 8.528108e-01 
8.862491e-01 7.722100e-01 4.772446e-01 3.440742e-01 7.800475e-01 1.129594e+00 1.577831e+00 2.328920e+00 9.272612e-01 1.763750e+00 9.251546e-01 6.987692e-01 8.133299e-01 6.990320e-01 6.044914e-01 3.359764e-01 2.379089e-01 3.359764e-01 6.044914e-01 6.990320e-01 8.133299e-01 6.987692e-01 9.251546e-01 1.763750e+00 9.272612e-01 2.328920e+00 1.577831e+00 1.129594e+00 7.800475e-01 3.440742e-01 4.772446e-01 7.722100e-01 
7.490637e-01 6.444073e-01 4.517800e-01 4.997324e-01 8.344802e-01 1.208069e+00 1.291317e+00 1.912395e+00 1.559294e+00 1.122294e+00 1.411550e+00 1.201391e+00 1.204154e+00 8.981008e-01 6.651845e-01 2.776778e-01 1.550414e-01 2.776778e-01 6.651845e-01 8.981008e-01 1.204154e+00 1.201391e+00 1.411550e+00 1.122294e+00 1.559294e+00 1.912395e+00 1.291317e+00 1.208069e+00 8.344802e-01 4.997324e-01 4.517800e-01 6.444073e-01 
5.369097e-01 4.623605e-01 3.947942e-01 5.642877e-01 8.664157e-01 1.201004e+00 1.349976e+00 1.536032e+00 1.369834e+00 5.304223e-01 1.130755e+00 1.248064e+00 1.675520e+00 1.810045e+00 1.371908e+00 7.140488e-01 2.630312e-01 7.140488e-01 1.371908e+00 1.810045e+00 1.675520e+00 1.248064e+00 1.130755e+00 5.304223e-01 1.369834e+00 1.536032e+00 1.349976e+00 1.201004e+00 8.664157e-01 5.642877e-01 3.947942e-01 4.623605e-01 
3.457831e-01 3.085727e-01 3.404695e-01 5.351140e-01 7.652245e-01 1.022166e+00 1.190508e+00 1.333987e+00 1.338599e+00 6.238731e-01 7.634462e-01 8.562732e-01 5.419811e-01 1.263990e+00 1.741608e+00 1.522309e+00 1.287481e+00 1.522309e+00 1.741608e+00 1.263990e+00 5.419811e-01 8.562732e-01 7.634462e-01 6.238731e-01 1.338599e+00 1.333987e+00 1.190508e+00 1.022166e+00 7.652245e-01 5.351140e-01 3.404695e-01 3.085727e-01 
1.553748e-01 1.783214e-01 3.017015e-01 5.003828e-01 6.854505e-01 8.823664e-01 1.024969e+00 1.208684e+00 1.308404e+00 9.451086e-01 3.635261e-01 1.520344e+00 8.199931e-01 6.600535e-01 1.094728e+00 1.449710e+00 1.650069e+00 1.449710e+00 1.094728e+00 6.600535e-01 8.199931e-01 1.520344e+00 3.635261e-01 9.451086e-01 1.308404e+00 1.208684e+00 1.024969e+00 8.823664e-01 6.854505e-01 5.003828e-01 3.017015e-01 1.783214e-01 
2.278711e-02 1.229709e-01 2.650274e-01 4.347878e-01 5.924589e-01 7.569370e-01 9.011490e-01 1.017362e+00 1.175327e+00 1.156943e+00 6.616021e-01 1.081063e+00 1.888378e+00 1.448383e+00 1.112392e+00 9.815622e-01 1.018503e+00 9.815622e-01 1.112392e+00 1.448383e+00 1.888378e+00 1.081063e+00 6.616021e-01 1.156943e+00 1.175327e+00 1.017362e+00 9.011490e-01 7.569370e-01 5.924589e-01 4.347878e-01 2.650274e-01 1.229709e-01 
7.941100e-02 1.423285e-01 2.531852e-01 3.854033e-01 5.157969e-01 6.512227e-01 7.858814e-01 8.926385e-01 1.007220e+00 1.007767e+00 1.014923e+00 5.133620e-01 7.615999e-01 1.565490e+00 1.917006e+00 1.550678e+00 1.425536e+00 1.550678e+00 1.917006e+00 1.565490e+00 7.615999e-01 5.133620e-01 1.014923e+00 1.007767e+00 1.007220e+00 8.926385e-01 7.858814e-01 6.512227e-01 5.157969e-01 3.854033e-01 2.531852e-01 1.423285e-01 
1.282373e-01 1.605396e-01 2.355193e-01 3.354855e-01 4.499397e-01 5.686427e-01 7.005408e-01 7.959807e-01 8.951020e-01 8.836472e-01 8.392933e-01 7.268021e-01 5.845019e-01 8.877685e-01 1.461760e+00 1.711573e+00 1.875474e+00 1.711573e+00 1.461760e+00 8.877685e-01 5.845019e-01 7.268021e-01 8.392933e-01 8.836472e-01 8.951020e-01 7.959807e-01 7.005408e-01 5.686427e-01 4.499397e-01 3.354855e-01 2.355193e-01 1.605396e-01 
1.491527e-01 1.682217e-01 2.212238e-01 2.989524e-01 4.002440e-01 5.115691e-01 6.428177e-01 7.523097e-01 8.571399e-01 8.792124e-01 8.482205e-01 7.384397e-01 5.783578e-01 8.926275e-01 1.379001e+00 1.628892e+00 1.774734e+00 1.628892e+00 1.379001e+00 8.926275e-01 5.783578e-01 7.384397e-01 8.482205e-01 8.792124e-01 8.571399e-01 7.523097e-01 6.428177e-01 5.115691e-01 4.002440e-01 2.989524e-01 2.212238e-01 1.682217e-01 
1.349187e-01 1.492651e-01 1.934837e-01 2.620011e-01 3.579470e-01 4.696306e-01 6.046428e-01 7.350975e-01 8.622519e-01 9.482327e-01 9.733173e-01 9.687086e-01 8.607609e-01 9.319392e-01 1.181659e+00 1.506453e+00 1.700736e+00 1.506453e+00 1.181659e+00 9.319392e-01 8.607609e-01 9.687086e-01 9.733173e-01 9.482327e-01 8.622519e-01 7.350975e-01 6.046428e-01 4.696306e-01 3.579470e-01 2.620011e-01 1.934837e-01 1.492651e-01 
1.035334e-01 1.182665e-01 1.621249e-01 2.302851e-01 3.244777e-01 4.423262e-01 5.839425e-01 7.442759e-01 9.054672e-01 1.065110e+00 1.167463e+00 1.250129e+00 1.200707e+00 1.195850e+00 1.167472e+00 1.252753e+00 1.360342e+00 1.252753e+00 1.167472e+00 1.195850e+00 1.200707e+00 1.250129e+00 1.167463e+00 1.065110e+00 9.054672e-01 7.442759e-01 5.839425e-01 4.423262e-01 3.244777e-01 2.302851e-01 1.621249e-01 1.182665e-01 
5.475238e-02 7.808749e-02 1.317555e-01 2.070330e-01 3.040676e-01 4.302836e-01 5.808811e-01 7.688200e-01 9.652393e-01 1.189429e+00 1.361992e+00 1.526120e+00 1.539767e+00 1.495110e+00 1.235901e+00 9.380521e-01 7.767444e-01 9.380521e-01 1.235901e+00 1.495110e+00 1.539767e+00 1.526120e+00 1.361992e+00 1.189429e+00 9.652393e-01 7.688200e-01 5.808811e-01 4.302836e-01 3.040676e-01 2.070330e-01 1.317555e-01 7.808749e-02 
