# vtk DataFile Version 2.0
Comment goes here
ASCII

DATASET STRUCTURED_POINTS
FIELD FieldData 1
TIME 1 1 double
1.18000000
DIMENSIONS    32   32   1

ORIGIN    0.000   0.000   0.000
SPACING   0.03125 0.03125   1.000

POINT_DATA   1024
SCALARS uMag double
LOOKUP_TABLE default

1.076340e-13 1.294836e-02 7.690947e-03 2.616090e-02 1.016366e-01 2.188964e-01 3.740791e-01 5.652659e-01 7.580985e-01 9.648124e-01 1.112164e+00 1.243786e+00 1.244434e+00 1.183771e+00 9.311585e-01 5.465734e-01 3.853950e-13 5.465734e-01 9.311585e-01 1.183771e+00 1.244434e+00 1.243786e+00 1.112164e+00 9.648124e-01 7.580985e-01 5.652659e-01 3.740791e-01 2.188964e-01 1.016366e-01 2.616090e-02 7.690947e-03 1.294836e-02 
1.294836e-02 1.932679e-02 2.759350e-02 5.533642e-02 1.240132e-01 2.323308e-01 3.777915e-01 5.522221e-01 7.303775e-01 9.164932e-01 1.049743e+00 1.165829e+00 1.166191e+00 1.120915e+00 9.331837e-01 6.968417e-01 5.465734e-01 6.968417e-01 9.331837e-01 1.120915e+00 1.166191e+00 1.165829e+00 1.049743e+00 9.164932e-01 7.303775e-01 5.522221e-01 3.777915e-01 2.323308e-01 1.240132e-01 5.533642e-02 2.759350e-02 1.932679e-02 
3.788072e-02 4.657036e-02 7.048470e-02 1.148561e-01 1.801414e-01 2.663254e-01 3.782172e-01 4.943501e-01 6.139647e-01 7.263846e-01 7.963850e-01 8.714313e-01 8.621541e-01 9.039183e-01 9.182882e-01 9.780296e-01 1.036965e+00 9.780296e-01 9.182882e-01 9.039183e-01 8.621541e-01 8.714313e-01 7.963850e-01 7.263846e-01 6.139647e-01 4.943501e-01 3.782172e-01 2.663254e-01 1.801414e-01 1.148561e-01 7.048470e-02 4.657036e-02 
9.755997e-02 1.001774e-01 1.238149e-01 1.819299e-01 2.578496e-01 3.444854e-01 4.375473e-01 5.016747e-01 5.622186e-01 5.738138e-01 5.682634e-01 5.619709e-01 5.281625e-01 6.395039e-01 8.838881e-01 1.209322e+00 1.411941e+00 1.209322e+00 8.838881e-01 6.395039e-01 5.281625e-01 5.619709e-01 5.682634e-01 5.738138e-01 5.622186e-01 5.016747e-01 4.375473e-01 3.444854e-01 2.578496e-01 1.819299e-01 1.238149e-01 1.001774e-01 
1.836506e-01 1.812655e-01 2.020179e-01 2.728045e-01 3.636548e-01 4.683091e-01 5.601737e-01 6.050668e-01 6.254411e-01 5.452457e-01 4.430358e-01 2.512838e-01 8.870144e-02 3.858508e-01 8.634680e-01 1.366641e+00 1.663473e+00 1.366641e+00 8.634680e-01 3.858508e-01 8.870144e-02 2.512838e-01 4.430358e-01 5.452457e-01 6.254411e-01 6.050668e-01 5.601737e-01 4.683091e-01 3.636548e-01 2.728045e-01 2.020179e-01 1.812655e-01 
3.196297e-01 3.027070e-01 2.995204e-01 3.548730e-01 4.461262e-01 5.661939e-01 6.605272e-01 7.040420e-01 7.175839e-01 5.994443e-01 4.988931e-01 2.155947e-01 1.916995e-01 2.131015e-01 7.752759e-01 1.389667e+00 1.741718e+00 1.389667e+00 7.752759e-01 2.131015e-01 1.916995e-01 2.155947e-01 4.988931e-01 5.994443e-01 7.175839e-01 7.040420e-01 6.605272e-01 5.661939e-01 4.461262e-01 3.548730e-01 2.995204e-01 3.027070e-01 
4.761465e-01 4.420050e-01 4.051203e-01 4.317711e-01 5.186966e-01 6.629961e-01 7.678290e-01 8.358056e-01 8.560388e-01 7.587202e-01 6.726953e-01 3.891419e-01 6.401309e-01 4.998931e-01 8.572859e-01 1.268975e+00 1.535484e+00 1.268975e+00 8.572859e-01 4.998931e-01 6.401309e-01 3.891419e-01 6.726953e-01 7.587202e-01 8.560388e-01 8.358056e-01 7.678290e-01 6.629961e-01 5.186966e-01 4.317711e-01 4.051203e-01 4.420050e-01 
6.691264e-01 6.106979e-01 5.270231e-01 4.878786e-01 5.442285e-01 7.001430e-01 8.042077e-01 8.827441e-01 8.921738e-01 7.549342e-01 6.306865e-01 2.905037e-01 5.541615e-01 6.372518e-01 1.189261e+00 1.285679e+00 1.246473e+00 1.285679e+00 1.189261e+00 6.372518e-01 5.541615e-01 2.905037e-01 6.306865e-01 7.549342e-01 8.921738e-01 8.827441e-01 8.042077e-01 7.001430e-01 5.442285e-01 4.878786e-01 5.270231e-01 6.106979e-01 
8.558393e-01 7.717529e-01 6.328583e-01 5.066794e-01 5.191095e-01 6.916181e-01 8.105536e-01 9.238861e-01 9.460864e-01 9.025037e-01 7.495815e-01 6.996517e-01 1.087570e+00 1.482423e+00 1.534227e+00 6.050479e-01 9.483986e-03 6.050479e-01 1.534227e+00 1.482423e+00 1.087570e+00 6.996517e-01 7.495815e-01 9.025037e-01 9.460864e-01 9.238861e-01 8.105536e-01 6.916181e-01 5.191095e-01 5.066794e-01 6.328583e-01 7.717529e-01 
1.040862e+00 9.300881e-01 7.380439e-01 5.038576e-01 4.459246e-01 6.375495e-01 7.650635e-01 9.419705e-01 9.604919e-01 8.986584e-01 4.884779e-01 1.422289e+00 9.244079e-01 3.568975e-01 2.716262e-01 3.486357e-01 1.114729e-01 3.486357e-01 2.716262e-01 3.568975e-01 9.244079e-01 1.422289e+00 4.884779e-01 8.986584e-01 9.604919e-01 9.419705e-01 7.650635e-01 6.375495e-01 4.459246e-01 5.038576e-01 7.380439e-01 9.300881e-01 
1.182753e+00 1.050061e+00 8.101027e-01 4.614909e-01 3.161302e-01 5.254675e-01 6.908636e-01 8.428619e-01 1.019042e+00 8.897255e-01 3.442099e-01 3.024598e-01 7.583261e-01 4.847985e-01 3.958261e-01 4.754914e-01 5.858521e-01 4.754914e-01 3.958261e-01 4.847985e-01 7.583261e-01 3.024598e-01 3.442099e-01 8.897255e-01 1.019042e+00 8.428619e-01 6.908636e-01 5.254675e-01 3.161302e-01 4.614909e-01 8.101027e-01 1.050061e+00 
1.275519e+00 1.129948e+00 8.585328e-01 4.218118e-01 1.491400e-01 4.253659e-01 6.363415e-01 1.026316e+00 1.611051e+00 8.036783e-01 4.476395e-01 2.108920e-01 3.432583e-01 7.778481e-01 7.168444e-01 4.024670e-01 2.042976e-01 4.024670e-01 7.168444e-01 7.778481e-01 3.432583e-01 2.108920e-01 4.476395e-01 8.036783e-01 1.611051e+00 1.026316e+00 6.363415e-01 4.253659e-01 1.491400e-01 4.218118e-01 8.585328e-01 1.129948e+00 
1.286545e+00 1.143118e+00 8.706802e-01 4.106344e-01 8.160241e-02 4.385537e-01 5.913478e-01 1.300947e+00 2.112261e+00 4.915247e-02 7.637190e-01 2.222038e-01 6.511676e-01 2.101401e-01 1.329579e-01 9.854237e-02 2.057061e-01 9.854237e-02 1.329579e-01 2.101401e-01 6.511676e-01 2.222038e-01 7.637190e-01 4.915247e-02 2.112261e+00 1.300947e+00 5.913478e-01 4.385537e-01 8.160241e-02 4.106344e-01 8.706802e-01 1.143118e+00 
1.193584e+00 1.078387e+00 8.624913e-01 5.446976e-01 3.261613e-01 5.263631e-01 6.578956e-01 2.151564e+00 1.634992e+00 1.581304e+00 6.466402e-01 3.153502e-01 2.190355e-01 9.707328e-02 2.221426e-01 7.971918e-02 7.952792e-02 7.971918e-02 2.221426e-01 9.707328e-02 2.190355e-01 3.153502e-01 6.466402e-01 1.581304e+00 1.634992e+00 2.151564e+00 6.578956e-01 5.263631e-01 3.261613e-01 5.446976e-01 8.624913e-01 1.078387e+00 
9.578451e-01 9.254675e-01 8.758579e-01 8.567011e-01 7.828273e-01 9.070696e-01 9.900177e-01 2.127050e+00 5.600078e-01 1.598143e+00 4.304346e-01 4.497603e-01 1.128577e-01 6.860254e-02 9.396981e-02 6.074957e-02 5.327249e-02 6.074957e-02 9.396981e-02 6.860254e-02 1.128577e-01 4.497603e-01 4.304346e-01 1.598143e+00 5.600078e-01 2.127050e+00 9.900177e-01 9.070696e-01 7.828273e-01 8.567011e-01 8.758579e-01 9.254675e-01 
5.466535e-01 6.878495e-01 9.410300e-01 1.158322e+00 1.231810e+00 1.228108e+00 1.218309e+00 1.049546e+00 9.688492e-01 5.640510e-01 6.441846e-01 2.134394e-01 1.225231e-01 9.905269e-02 1.096800e-01 3.344860e-02 1.900426e-02 3.344860e-02 1.096800e-01 9.905269e-02 1.225231e-01 2.134394e-01 6.441846e-01 5.640510e-01 9.688492e-01 1.049546e+00 1.218309e+00 1.228108e+00 1.231810e+00 1.158322e+00 9.410300e-01 6.878495e-01 
2.818391e-13 5.466535e-01 9.874618e-01 1.277891e+00 1.373183e+00 1.251154e+00 1.021670e+00 1.463744e-01 9.185051e-01 4.810306e-01 9.075044e-02 4.698107e-01 2.030328e-01 2.265263e-01 4.046327e-02 1.900426e-02 1.261780e-13 1.900426e-02 4.046327e-02 2.265263e-01 2.030328e-01 4.698107e-01 9.075044e-02 4.810306e-01 9.185051e-01 1.463744e-01 1.021670e+00 1.251154e+00 1.373183e+00 1.277891e+00 9.874618e-01 5.466535e-01 
5.466535e-01 6.878495e-01 9.410300e-01 1.158322e+00 1.231810e+00 1.228108e+00 1.218309e+00 1.049546e+00 9.688492e-01 5.640510e-01 6.441846e-01 2.134394e-01 1.225231e-01 9.905269e-02 1.096800e-01 3.344860e-02 1.900426e-02 3.344860e-02 1.096800e-01 9.905269e-02 1.225231e-01 2.134394e-01 6.441846e-01 5.640510e-01 9.688492e-01 1.049546e+00 1.218309e+00 1.228108e+00 1.231810e+00 1.158322e+00 9.410300e-01 6.878495e-01 
9.578451e-01 9.254675e-01 8.758579e-01 8.567011e-01 7.828273e-01 9.070696e-01 9.900177e-01 2.127050e+00 5.600078e-01 1.598143e+00 4.304346e-01 4.497603e-01 1.128577e-01 6.860254e-02 9.396981e-02 6.074957e-02 5.327249e-02 6.074957e-02 9.396981e-02 6.860254e-02 1.128577e-01 4.497603e-01 4.304346e-01 1.598143e+00 5.600078e-01 2.127050e+00 9.900177e-01 9.070696e-01 7.828273e-01 8.567011e-01 8.758579e-01 9.254675e-01 
1.193584e+00 1.078387e+00 8.624913e-01 5.446976e-01 3.261613e-01 5.263631e-01 6.578956e-01 2.151564e+00 1.634992e+00 1.581304e+00 6.466402e-01 3.153502e-01 2.190355e-01 9.707328e-02 2.221426e-01 7.971918e-02 7.952792e-02 7.971918e-02 2.221426e-01 9.707328e-02 2.190355e-01 3.153502e-01 6.466402e-01 1.581304e+00 1.634992e+00 2.151564e+00 6.578956e-01 5.263631e-01 3.261613e-01 5.446976e-01 8.624913e-01 1.078387e+00 
1.286545e+00 1.143118e+00 8.706802e-01 4.106344e-01 8.160241e-02 4.385537e-01 5.913478e-01 1.300947e+00 2.112261e+00 4.915247e-02 7.637190e-01 2.222038e-01 6.511676e-01 2.101401e-01 1.329579e-01 9.854237e-02 2.057061e-01 9.854237e-02 1.329579e-01 2.101401e-01 6.511676e-01 2.222038e-01 7.637190e-01 4.915247e-02 2.112261e+00 1.300947e+00 5.913478e-01 4.385537e-01 8.160241e-02 4.106344e-01 8.706802e-01 1.143118e+00 
1.275519e+00 1.129948e+00 8.585328e-01 4.218118e-01 1.491400e-01 4.253659e-01 6.363415e-01 1.026316e+00 1.611051e+00 8.036783e-01 4.476395e-01 2.108920e-01 3.432583e-01 7.778481e-01 7.168444e-01 4.024670e-01 2.042976e-01 4.024670e-01 7.168444e-01 7.778481e-01 3.432583e-01 2.108920e-01 4.476395e-01 8.036783e-01 1.611051e+00 1.026316e+00 6.363415e-01 4.253659e-01 1.491400e-01 4.218118e-01 8.585328e-01 1.129948e+00 
1.182753e+00 1.050061e+00 8.101027e-01 4.614909e-01 3.161302e-01 5.254675e-01 6.908636e-01 8.428619e-01 1.019042e+00 8.897255e-01 3.442099e-01 3.024598e-01 7.583261e-01 4.847985e-01 3.958261e-01 4.754914e-01 5.858521e-01 4.754914e-01 3.958261e-01 4.847985e-01 7.583261e-01 3.024598e-01 3.442099e-01 8.897255e-01 1.019042e+00 8.428619e-01 6.908636e-01 5.254675e-01 3.161302e-01 4.614909e-01 8.101027e-01 1.050061e+00 
1.040862e+00 9.300881e-01 7.380439e-01 5.038576e-01 4.459246e-01 6.375495e-01 7.650635e-01 9.419705e-01 9.604919e-01 8.986584e-01 4.884779e-01 1.422289e+00 9.244079e-01 3.568975e-01 2.716262e-01 3.486357e-01 1.114729e-01 3.486357e-01 2.716262e-01 3.568975e-01 9.244079e-01 1.422289e+00 4.884779e-01 8.986584e-01 9.604919e-01 9.419705e-01 7.650635e-01 6.375495e-01 4.459246e-01 5.038576e-01 7.380439e-01 9.300881e-01 
8.558393e-01 7.717529e-01 6.328583e-01 5.066794e-01 5.191095e-01 6.916181e-01 8.105536e-01 9.238861e-01 9.460864e-01 9.025037e-01 7.495815e-01 6.996517e-01 1.087570e+00 1.482423e+00 1.534227e+00 6.050479e-01 9.483986e-03 6.050479e-01 1.534227e+00 1.482423e+00 1.087570e+00 6.996517e-01 7.495815e-01 9.025037e-01 9.460864e-01 9.238861e-01 8.105536e-01 6.916181e-01 5.191095e-01 5.066794e-01 6.328583e-01 7.717529e-01 
6.691264e-01 6.106979e-01 5.270231e-01 4.878786e-01 5.442285e-01 7.001430e-01 8.042077e-01 8.827441e-01 8.921738e-01 7.549342e-01 6.306865e-01 2.905037e-01 5.541615e-01 6.372518e-01 1.189261e+00 1.285679e+00 1.246473e+00 1.285679e+00 1.189261e+00 6.372518e-01 5.541615e-01 2.905037e-01 6.306865e-01 7.549342e-01 8.921738e-01 8.827441e-01 8.042077e-01 7.001430e-01 5.442285e-01 4.878786e-01 5.270231e-01 6.106979e-01 
4.761465e-01 4.420050e-01 4.051203e-01 4.317711e-01 5.186966e-01 6.629961e-01 7.678290e-01 8.358056e-01 8.560388e-01 7.587202e-01 6.726953e-01 3.891419e-01 6.401309e-01 4.998931e-01 8.572859e-01 1.268975e+00 1.535484e+00 1.268975e+00 8.572859e-01 4.998931e-01 6.401309e-01 3.891419e-01 6.726953e-01 7.587202e-01 8.560388e-01 8.358056e-01 7.678290e-01 6.629961e-01 5.186966e-01 4.317711e-01 4.051203e-01 4.420050e-01 
3.196297e-01 3.027070e-01 2.995204e-01 3.548730e-01 4.461262e-01 5.661939e-01 6.605272e-01 7.040420e-01 7.175839e-01 5.994443e-01 4.988931e-01 2.155947e-01 1.916995e-01 2.131015e-01 7.752759e-01 1.389667e+00 1.741718e+00 1.389667e+00 7.752759e-01 2.131015e-01 1.916995e-01 2.155947e-01 4.988931e-01 5.994443e-01 7.175839e-01 7.040420e-01 6.605272e-01 5.661939e-01 4.461262e-01 3.548730e-01 2.995204e-01 3.027070e-01 
1.836506e-01 1.812655e-01 2.020179e-01 2.728045e-01 3.636548e-01 4.683091e-01 5.601737e-01 6.050668e-01 6.254411e-01 5.452457e-01 4.430358e-01 2.512838e-01 8.870144e-02 3.858508e-01 8.634680e-01 1.366641e+00 1.663473e+00 1.366641e+00 8.634680e-01 3.858508e-01 8.870144e-02 2.512838e-01 4.430358e-01 5.452457e-01 6.254411e-01 6.050668e-01 5.601737e-01 4.683091e-01 3.636548e-01 2.728045e-01 2.020179e-01 1.812655e-01 
9.755997e-02 1.001774e-01 1.238149e-01 1.819299e-01 2.578496e-01 3.444854e-01 4.375473e-01 5.016747e-01 5.622186e-01 5.738138e-01 5.682634e-01 5.619709e-01 5.281625e-01 6.395039e-01 8.838881e-01 1.209322e+00 1.411941e+00 1.209322e+00 8.838881e-01 6.395039e-01 5.281625e-01 5.619709e-01 5.682634e-01 5.738138e-01 5.622186e-01 5.016747e-01 4.375473e-01 3.444854e-01 2.578496e-01 1.819299e-01 1.238149e-01 1.001774e-01 
3.788072e-02 4.657036e-02 7.048470e-02 1.148561e-01 1.801414e-01 2.663254e-01 3.782172e-01 4.943501e-01 6.139647e-01 7.263846e-01 7.963850e-01 8.714313e-01 8.621541e-01 9.039183e-01 9.182882e-01 9.780296e-01 1.036965e+00 9.780296e-01 9.182882e-01 9.039183e-01 8.621541e-01 8.714313e-01 7.963850e-01 7.263846e-01 6.139647e-01 4.943501e-01 3.782172e-01 2.663254e-01 1.801414e-01 1.148561e-01 7.048470e-02 4.657036e-02 
1.294836e-02 1.932679e-02 2.759350e-02 5.533642e-02 1.240132e-01 2.323308e-01 3.777915e-01 5.522221e-01 7.303775e-01 9.164932e-01 1.049743e+00 1.165829e+00 1.166191e+00 1.120915e+00 9.331837e-01 6.968417e-01 5.465734e-01 6.968417e-01 9.331837e-01 1.120915e+00 1.166191e+00 1.165829e+00 1.049743e+00 9.164932e-01 7.303775e-01 5.522221e-01 3.777915e-01 2.323308e-01 1.240132e-01 5.533642e-02 2.759350e-02 1.932679e-02 
