# vtk DataFile Version 2.0
Comment goes here
ASCII

DATASET STRUCTURED_POINTS
FIELD FieldData 1
TIME 1 1 double
0.06000000
DIMENSIONS    32   32   1

ORIGIN    0.000   0.000   0.000
SPACING   0.03125 0.03125   1.000

POINT_DATA   1024
SCALARS uMag double
LOOKUP_TABLE default

2.054281e-15 1.939133e-01 3.849412e-01 5.647345e-01 7.338592e-01 8.782796e-01 9.991714e-01 1.081131e+00 1.124420e+00 1.115134e+00 1.060664e+00 9.500442e-01 8.017195e-01 6.047543e-01 4.145861e-01 1.423302e-01 5.927240e-15 1.423302e-01 4.145861e-01 6.047543e-01 8.017195e-01 9.500442e-01 1.060664e+00 1.115134e+00 1.124420e+00 1.081131e+00 9.991714e-01 8.782796e-01 7.338592e-01 5.647345e-01 3.849412e-01 1.939133e-01 
1.939133e-01 2.746846e-01 4.310263e-01 5.974024e-01 7.593473e-01 8.999628e-01 1.018765e+00 1.100041e+00 1.144704e+00 1.138263e+00 1.090276e+00 9.921645e-01 8.374688e-01 6.638896e-01 4.376856e-01 2.073706e-01 1.423302e-01 2.073706e-01 4.376856e-01 6.638896e-01 8.374688e-01 9.921645e-01 1.090276e+00 1.138263e+00 1.144704e+00 1.100041e+00 1.018765e+00 8.999628e-01 7.593473e-01 5.974024e-01 4.310263e-01 2.746846e-01 
3.919526e-01 4.386620e-01 5.507940e-01 6.912003e-01 8.388102e-01 9.725309e-01 1.089958e+00 1.173388e+00 1.220656e+00 1.215632e+00 1.173164e+00 1.075357e+00 9.503462e-01 8.018851e-01 6.527933e-01 3.973089e-01 1.134039e-02 3.973089e-01 6.527933e-01 8.018851e-01 9.503462e-01 1.075357e+00 1.173164e+00 1.215632e+00 1.220656e+00 1.173388e+00 1.089958e+00 9.725309e-01 8.388102e-01 6.912003e-01 5.507940e-01 4.386620e-01 
5.989701e-01 6.324005e-01 7.160911e-01 8.336094e-01 9.645568e-01 1.089180e+00 1.202594e+00 1.285954e+00 1.334713e+00 1.336562e+00 1.325192e+00 1.271703e+00 1.178209e+00 1.165678e+00 1.082982e+00 4.603836e-01 1.387014e-01 4.603836e-01 1.082982e+00 1.165678e+00 1.178209e+00 1.271703e+00 1.325192e+00 1.336562e+00 1.334713e+00 1.285954e+00 1.202594e+00 1.089180e+00 9.645568e-01 8.336094e-01 7.160911e-01 6.324005e-01 
8.174854e-01 8.442988e-01 9.112647e-01 1.013059e+00 1.132692e+00 1.253048e+00 1.372672e+00 1.464083e+00 1.521790e+00 1.544779e+00 1.533595e+00 1.517086e+00 1.463920e+00 1.455466e+00 1.349788e+00 9.881422e-01 5.294695e-01 9.881422e-01 1.349788e+00 1.455466e+00 1.463920e+00 1.517086e+00 1.533595e+00 1.544779e+00 1.521790e+00 1.464083e+00 1.372672e+00 1.253048e+00 1.132692e+00 1.013059e+00 9.112647e-01 8.442988e-01 
1.049318e+00 1.074216e+00 1.134049e+00 1.231740e+00 1.348231e+00 1.473019e+00 1.602004e+00 1.672696e+00 1.738752e+00 1.766272e+00 1.822543e+00 1.772851e+00 1.652253e+00 1.623660e+00 1.500094e+00 1.323713e+00 1.287216e+00 1.323713e+00 1.500094e+00 1.623660e+00 1.652253e+00 1.772851e+00 1.822543e+00 1.766272e+00 1.738752e+00 1.672696e+00 1.602004e+00 1.473019e+00 1.348231e+00 1.231740e+00 1.134049e+00 1.074216e+00 
1.295800e+00 1.320547e+00 1.379068e+00 1.477782e+00 1.598979e+00 1.737984e+00 1.882784e+00 1.939443e+00 2.090664e+00 2.074918e+00 1.845423e+00 1.653855e+00 1.677855e+00 1.633094e+00 1.551719e+00 1.656846e+00 1.824108e+00 1.656846e+00 1.551719e+00 1.633094e+00 1.677855e+00 1.653855e+00 1.845423e+00 2.074918e+00 2.090664e+00 1.939443e+00 1.882784e+00 1.737984e+00 1.598979e+00 1.477782e+00 1.379068e+00 1.320547e+00 
1.547018e+00 1.575629e+00 1.643088e+00 1.761011e+00 1.908511e+00 2.104546e+00 2.237279e+00 2.316777e+00 2.188245e+00 1.766401e+00 1.644672e+00 1.895518e+00 1.730250e+00 1.547212e+00 1.604622e+00 1.890446e+00 2.056136e+00 1.890446e+00 1.604622e+00 1.547212e+00 1.730250e+00 1.895518e+00 1.644672e+00 1.766401e+00 2.188245e+00 2.316777e+00 2.237279e+00 2.104546e+00 1.908511e+00 1.761011e+00 1.643088e+00 1.575629e+00 
1.801959e+00 1.838858e+00 1.923505e+00 2.069122e+00 2.265879e+00 2.498851e+00 2.571345e+00 2.433235e+00 1.995480e+00 1.815492e+00 1.924103e+00 2.013854e+00 1.861773e+00 1.774345e+00 2.148787e+00 2.158386e+00 2.077181e+00 2.158386e+00 2.148787e+00 1.774345e+00 1.861773e+00 2.013854e+00 1.924103e+00 1.815492e+00 1.995480e+00 2.433235e+00 2.571345e+00 2.498851e+00 2.265879e+00 2.069122e+00 1.923505e+00 1.838858e+00 
2.026241e+00 2.074961e+00 2.190654e+00 2.383692e+00 2.685353e+00 2.985048e+00 2.894238e+00 2.309895e+00 1.494001e+00 1.688703e+00 1.932371e+00 2.010704e+00 2.037950e+00 2.273790e+00 2.376569e+00 2.373232e+00 2.359672e+00 2.373232e+00 2.376569e+00 2.273790e+00 2.037950e+00 2.010704e+00 1.932371e+00 1.688703e+00 1.494001e+00 2.309895e+00 2.894238e+00 2.985048e+00 2.685353e+00 2.383692e+00 2.190654e+00 2.074961e+00 
2.203560e+00 2.280923e+00 2.438781e+00 2.729714e+00 3.213944e+00 3.363564e+00 2.233247e+00 1.626053e-01 1.591695e+00 1.621066e+00 1.346914e+00 1.911639e+00 2.316470e+00 2.161254e+00 2.107123e+00 2.467988e+00 2.736675e+00 2.467988e+00 2.107123e+00 2.161254e+00 2.316470e+00 1.911639e+00 1.346914e+00 1.621066e+00 1.591695e+00 1.626053e-01 2.233247e+00 3.363564e+00 3.213944e+00 2.729714e+00 2.438781e+00 2.280923e+00 
2.272888e+00 2.382298e+00 2.590668e+00 3.018951e+00 3.536967e+00 2.596472e+00 1.246854e+00 2.920130e+00 3.000076e+00 2.616677e+00 3.051797e+00 2.869785e+00 1.880916e+00 2.099470e+00 2.271886e+00 2.288028e+00 2.493363e+00 2.288028e+00 2.271886e+00 2.099470e+00 1.880916e+00 2.869785e+00 3.051797e+00 2.616677e+00 3.000076e+00 2.920130e+00 1.246854e+00 2.596472e+00 3.536967e+00 3.018951e+00 2.590668e+00 2.382298e+00 
2.176081e+00 2.340355e+00 2.565340e+00 3.190328e+00 3.181438e+00 2.232842e+00 3.120494e+00 3.167580e+00 3.000052e+00 3.503188e+00 3.947737e+00 2.825789e+00 1.931985e+00 2.294972e+00 2.018962e+00 1.771376e+00 1.847822e+00 1.771376e+00 2.018962e+00 2.294972e+00 1.931985e+00 2.825789e+00 3.947737e+00 3.503188e+00 3.000052e+00 3.167580e+00 3.120494e+00 2.232842e+00 3.181438e+00 3.190328e+00 2.565340e+00 2.340355e+00 
1.881694e+00 2.077939e+00 2.387746e+00 3.040337e+00 2.903287e+00 3.143345e+00 3.322494e+00 2.966265e+00 3.322611e+00 3.677698e+00 3.124255e+00 2.262599e+00 2.007630e+00 1.962784e+00 1.478792e+00 1.292078e+00 1.322333e+00 1.292078e+00 1.478792e+00 1.962784e+00 2.007630e+00 2.262599e+00 3.124255e+00 3.677698e+00 3.322611e+00 2.966265e+00 3.322494e+00 3.143345e+00 2.903287e+00 3.040337e+00 2.387746e+00 2.077939e+00 
1.405191e+00 1.614032e+00 2.110002e+00 2.738553e+00 3.234990e+00 3.474178e+00 3.342145e+00 3.190219e+00 3.096829e+00 2.866010e+00 1.767065e+00 1.690284e+00 1.748175e+00 1.453781e+00 1.055270e+00 8.632507e-01 8.013383e-01 8.632507e-01 1.055270e+00 1.453781e+00 1.748175e+00 1.690284e+00 1.767065e+00 2.866010e+00 3.096829e+00 3.190219e+00 3.342145e+00 3.474178e+00 3.234990e+00 2.738553e+00 2.110002e+00 1.614032e+00 
7.517944e-01 1.067759e+00 1.773603e+00 2.619449e+00 3.544146e+00 3.624348e+00 3.394499e+00 3.172721e+00 2.614435e+00 1.803639e+00 6.524066e-01 1.120194e+00 1.337739e+00 1.072257e+00 7.787890e-01 5.300638e-01 3.834694e-01 5.300638e-01 7.787890e-01 1.072257e+00 1.337739e+00 1.120194e+00 6.524066e-01 1.803639e+00 2.614435e+00 3.172721e+00 3.394499e+00 3.624348e+00 3.544146e+00 2.619449e+00 1.773603e+00 1.067759e+00 
1.783318e-15 7.517944e-01 1.608064e+00 2.606233e+00 3.654419e+00 3.682333e+00 3.413128e+00 3.154140e+00 2.322162e+00 1.074527e+00 1.998301e-01 8.000015e-01 1.158885e+00 9.550523e-01 6.940660e-01 3.834694e-01 4.686252e-15 3.834694e-01 6.940660e-01 9.550523e-01 1.158885e+00 8.000015e-01 1.998301e-01 1.074527e+00 2.322162e+00 3.154140e+00 3.413128e+00 3.682333e+00 3.654419e+00 2.606233e+00 1.608064e+00 7.517944e-01 
7.517944e-01 1.067759e+00 1.773603e+00 2.619449e+00 3.544146e+00 3.624348e+00 3.394499e+00 3.172721e+00 2.614435e+00 1.803639e+00 6.524066e-01 1.120194e+00 1.337739e+00 1.072257e+00 7.787890e-01 5.300638e-01 3.834694e-01 5.300638e-01 7.787890e-01 1.072257e+00 1.337739e+00 1.120194e+00 6.524066e-01 1.803639e+00 2.614435e+00 3.172721e+00 3.394499e+00 3.624348e+00 3.544146e+00 2.619449e+00 1.773603e+00 1.067759e+00 
1.405191e+00 1.614032e+00 2.110002e+00 2.738553e+00 3.234990e+00 3.474178e+00 3.342145e+00 3.190219e+00 3.096829e+00 2.866010e+00 1.767065e+00 1.690284e+00 1.748175e+00 1.453781e+00 1.055270e+00 8.632507e-01 8.013383e-01 8.632507e-01 1.055270e+00 1.453781e+00 1.748175e+00 1.690284e+00 1.767065e+00 2.866010e+00 3.096829e+00 3.190219e+00 3.342145e+00 3.474178e+00 3.234990e+00 2.738553e+00 2.110002e+00 1.614032e+00 
1.881694e+00 2.077939e+00 2.387746e+00 3.040337e+00 2.903287e+00 3.143345e+00 3.322494e+00 2.966265e+00 3.322611e+00 3.677698e+00 3.124255e+00 2.262599e+00 2.007630e+00 1.962784e+00 1.478792e+00 1.292078e+00 1.322333e+00 1.292078e+00 1.478792e+00 1.962784e+00 2.007630e+00 2.262599e+00 3.124255e+00 3.677698e+00 3.322611e+00 2.966265e+00 3.322494e+00 3.143345e+00 2.903287e+00 3.040337e+00 2.387746e+00 2.077939e+00 
2.176081e+00 2.340355e+00 2.565340e+00 3.190328e+00 3.181438e+00 2.232842e+00 3.120494e+00 3.167580e+00 3.000052e+00 3.503188e+00 3.947737e+00 2.825789e+00 1.931985e+00 2.294972e+00 2.018962e+00 1.771376e+00 1.847822e+00 1.771376e+00 2.018962e+00 2.294972e+00 1.931985e+00 2.825789e+00 3.947737e+00 3.503188e+00 3.000052e+00 3.167580e+00 3.120494e+00 2.232842e+00 3.181438e+00 3.190328e+00 2.565340e+00 2.340355e+00 
2.272888e+00 2.382298e+00 2.590668e+00 3.018951e+00 3.536967e+00 2.596472e+00 1.246854e+00 2.920130e+00 3.000076e+00 2.616677e+00 3.051797e+00 2.869785e+00 1.880916e+00 2.099470e+00 2.271886e+00 2.288028e+00 2.493363e+00 2.288028e+00 2.271886e+00 2.099470e+00 1.880916e+00 2.869785e+00 3.051797e+00 2.616677e+00 3.000076e+00 2.920130e+00 1.246854e+00 2.596472e+00 3.536967e+00 3.018951e+00 2.590668e+00 2.382298e+00 
2.203560e+00 2.280923e+00 2.438781e+00 2.729714e+00 3.213944e+00 3.363564e+00 2.233247e+00 1.626053e-01 1.591695e+00 1.621066e+00 1.346914e+00 1.911639e+00 2.316470e+00 2.161254e+00 2.107123e+00 2.467988e+00 2.736675e+00 2.467988e+00 2.107123e+00 2.161254e+00 2.316470e+00 1.911639e+00 1.346914e+00 1.621066e+00 1.591695e+00 1.626053e-01 2.233247e+00 3.363564e+00 3.213944e+00 2.729714e+00 2.438781e+00 2.280923e+00 
2.026241e+00 2.074961e+00 2.190654e+00 2.383692e+00 2.685353e+00 2.985048e+00 2.894238e+00 2.309895e+00 1.494001e+00 1.688703e+00 1.932371e+00 2.010704e+00 2.037950e+00 2.273790e+00 2.376569e+00 2.373232e+00 2.359672e+00 2.373232e+00 2.376569e+00 2.273790e+00 2.037950e+00 2.010704e+00 1.932371e+00 1.688703e+00 1.494001e+00 2.309895e+00 2.894238e+00 2.985048e+00 2.685353e+00 2.383692e+00 2.190654e+00 2.074961e+00 
1.801959e+00 1.838858e+00 1.923505e+00 2.069122e+00 2.265879e+00 2.498851e+00 2.571345e+00 2.433235e+00 1.995480e+00 1.815492e+00 1.924103e+00 2.013854e+00 1.861773e+00 1.774345e+00 2.148787e+00 2.158386e+00 2.077181e+00 2.158386e+00 2.148787e+00 1.774345e+00 1.861773e+00 2.013854e+00 1.924103e+00 1.815492e+00 1.995480e+00 2.433235e+00 2.571345e+00 2.498851e+00 2.265879e+00 2.069122e+00 1.923505e+00 1.838858e+00 
1.547018e+00 1.575629e+00 1.643088e+00 1.761011e+00 1.908511e+00 2.104546e+00 2.237279e+00 2.316777e+00 2.188245e+00 1.766401e+00 1.644672e+00 1.895518e+00 1.730250e+00 1.547212e+00 1.604622e+00 1.890446e+00 2.056136e+00 1.890446e+00 1.604622e+00 1.547212e+00 1.730250e+00 1.895518e+00 1.644672e+00 1.766401e+00 2.188245e+00 2.316777e+00 2.237279e+00 2.104546e+00 1.908511e+00 1.761011e+00 1.643088e+00 1.575629e+00 
1.295800e+00 1.320547e+00 1.379068e+00 1.477782e+00 1.598979e+00 1.737984e+00 1.882784e+00 1.939443e+00 2.090664e+00 2.074918e+00 1.845423e+00 1.653855e+00 1.677855e+00 1.633094e+00 1.551719e+00 1.656846e+00 1.824108e+00 1.656846e+00 1.551719e+00 1.633094e+00 1.677855e+00 1.653855e+00 1.845423e+00 2.074918e+00 2.090664e+00 1.939443e+00 1.882784e+00 1.737984e+00 1.598979e+00 1.477782e+00 1.379068e+00 1.320547e+00 
1.049318e+00 1.074216e+00 1.134049e+00 1.231740e+00 1.348231e+00 1.473019e+00 1.602004e+00 1.672696e+00 1.738752e+00 1.766272e+00 1.822543e+00 1.772851e+00 1.652253e+00 1.623660e+00 1.500094e+00 1.323713e+00 1.287216e+00 1.323713e+00 1.500094e+00 1.623660e+00 1.652253e+00 1.772851e+00 1.822543e+00 1.766272e+00 1.738752e+00 1.672696e+00 1.602004e+00 1.473019e+00 1.348231e+00 1.231740e+00 1.134049e+00 1.074216e+00 
8.174854e-01 8.442988e-01 9.112647e-01 1.013059e+00 1.132692e+00 1.253048e+00 1.372672e+00 1.464083e+00 1.521790e+00 1.544779e+00 1.533595e+00 1.517086e+00 1.463920e+00 1.455466e+00 1.349788e+00 9.881422e-01 5.294695e-01 9.881422e-01 1.349788e+00 1.455466e+00 1.463920e+00 1.517086e+00 1.533595e+00 1.544779e+00 1.521790e+00 1.464083e+00 1.372672e+00 1.253048e+00 1.132692e+00 1.013059e+00 9.112647e-01 8.442988e-01 
5.989701e-01 6.324005e-01 7.160911e-01 8.336094e-01 9.645568e-01 1.089180e+00 1.202594e+00 1.285954e+00 1.334713e+00 1.336562e+00 1.325192e+00 1.271703e+00 1.178209e+00 1.165678e+00 1.082982e+00 4.603836e-01 1.387014e-01 4.603836e-01 1.082982e+00 1.165678e+00 1.178209e+00 1.271703e+00 1.325192e+00 1.336562e+00 1.334713e+00 1.285954e+00 1.202594e+00 1.089180e+00 9.645568e-01 8.336094e-01 7.160911e-01 6.324005e-01 
3.919526e-01 4.386620e-01 5.507940e-01 6.912003e-01 8.388102e-01 9.725309e-01 1.089958e+00 1.173388e+00 1.220656e+00 1.215632e+00 1.173164e+00 1.075357e+00 9.503462e-01 8.018851e-01 6.527933e-01 3.973089e-01 1.134039e-02 3.973089e-01 6.527933e-01 8.018851e-01 9.503462e-01 1.075357e+00 1.173164e+00 1.215632e+00 1.220656e+00 1.173388e+00 1.089958e+00 9.725309e-01 8.388102e-01 6.912003e-01 5.507940e-01 4.386620e-01 
1.939133e-01 2.746846e-01 4.310263e-01 5.974024e-01 7.593473e-01 8.999628e-01 1.018765e+00 1.100041e+00 1.144704e+00 1.138263e+00 1.090276e+00 9.921645e-01 8.374688e-01 6.638896e-01 4.376856e-01 2.073706e-01 1.423302e-01 2.073706e-01 4.376856e-01 6.638896e-01 8.374688e-01 9.921645e-01 1.090276e+00 1.138263e+00 1.144704e+00 1.100041e+00 1.018765e+00 8.999628e-01 7.593473e-01 5.974024e-01 4.310263e-01 2.746846e-01 
