# vtk DataFile Version 2.0
Comment goes here
ASCII

DATASET STRUCTURED_POINTS
FIELD FieldData 1
TIME 1 1 double
0.76000000
DIMENSIONS    32   32   1

ORIGIN    0.000   0.000   0.000
SPACING   0.03125 0.03125   1.000

POINT_DATA   1024
SCALARS uMag double
LOOKUP_TABLE default

3.919992e-15 4.598244e-02 1.032662e-01 1.799983e-01 2.866960e-01 4.220940e-01 6.001656e-01 8.011332e-01 1.037801e+00 1.257412e+00 1.467300e+00 1.589278e+00 1.641274e+00 1.530349e+00 1.272200e+00 7.440777e-01 2.405077e-14 7.440777e-01 1.272200e+00 1.530349e+00 1.641274e+00 1.589278e+00 1.467300e+00 1.257412e+00 1.037801e+00 8.011332e-01 6.001656e-01 4.220940e-01 2.866960e-01 1.799983e-01 1.032662e-01 4.598244e-02 
4.598244e-02 6.546093e-02 1.134293e-01 1.867739e-01 2.884924e-01 4.190143e-01 5.850319e-01 7.703584e-01 9.824600e-01 1.175604e+00 1.358731e+00 1.463255e+00 1.513011e+00 1.429156e+00 1.248610e+00 9.366374e-01 7.440777e-01 9.366374e-01 1.248610e+00 1.429156e+00 1.513011e+00 1.463255e+00 1.358731e+00 1.175604e+00 9.824600e-01 7.703584e-01 5.850319e-01 4.190143e-01 2.884924e-01 1.867739e-01 1.134293e-01 6.546093e-02 
8.047747e-02 9.534369e-02 1.388456e-01 2.118340e-01 3.107819e-01 4.376295e-01 5.871073e-01 7.470396e-01 9.143946e-01 1.053445e+00 1.176791e+00 1.230573e+00 1.256863e+00 1.203130e+00 1.203229e+00 1.297263e+00 1.375014e+00 1.297263e+00 1.203229e+00 1.203130e+00 1.256863e+00 1.230573e+00 1.176791e+00 1.053445e+00 9.143946e-01 7.470396e-01 5.871073e-01 4.376295e-01 3.107819e-01 2.118340e-01 1.388456e-01 9.534369e-02 
9.943418e-02 1.171066e-01 1.674134e-01 2.480209e-01 3.474664e-01 4.722161e-01 5.999509e-01 7.283815e-01 8.320982e-01 8.895614e-01 9.063957e-01 8.589331e-01 8.401697e-01 8.910274e-01 1.187529e+00 1.617629e+00 1.799387e+00 1.617629e+00 1.187529e+00 8.910274e-01 8.401697e-01 8.589331e-01 9.063957e-01 8.895614e-01 8.320982e-01 7.283815e-01 5.999509e-01 4.722161e-01 3.474664e-01 2.480209e-01 1.674134e-01 1.171066e-01 
8.735678e-02 1.149372e-01 1.864913e-01 2.824542e-01 3.903565e-01 5.168960e-01 6.303908e-01 7.387509e-01 7.973035e-01 7.988569e-01 7.365431e-01 6.160464e-01 5.643865e-01 6.903728e-01 1.218319e+00 1.788100e+00 1.939398e+00 1.788100e+00 1.218319e+00 6.903728e-01 5.643865e-01 6.160464e-01 7.365431e-01 7.988569e-01 7.973035e-01 7.387509e-01 6.303908e-01 5.168960e-01 3.903565e-01 2.824542e-01 1.864913e-01 1.149372e-01 
4.476386e-02 1.013501e-01 2.095708e-01 3.329087e-01 4.619691e-01 6.008725e-01 7.097073e-01 8.108975e-01 8.386968e-01 8.002117e-01 6.551186e-01 4.008871e-01 3.771925e-01 8.059901e-01 1.402970e+00 1.831957e+00 1.848869e+00 1.831957e+00 1.402970e+00 8.059901e-01 3.771925e-01 4.008871e-01 6.551186e-01 8.002117e-01 8.386968e-01 8.108975e-01 7.097073e-01 6.008725e-01 4.619691e-01 3.329087e-01 2.095708e-01 1.013501e-01 
3.928771e-02 1.044440e-01 2.347843e-01 3.809104e-01 5.352270e-01 6.850753e-01 7.902175e-01 8.888468e-01 8.969177e-01 8.427340e-01 6.837022e-01 5.203911e-01 5.185709e-01 8.698762e-01 1.489931e+00 1.767054e+00 1.662565e+00 1.767054e+00 1.489931e+00 8.698762e-01 5.185709e-01 5.203911e-01 6.837022e-01 8.427340e-01 8.969177e-01 8.888468e-01 7.902175e-01 6.850753e-01 5.352270e-01 3.809104e-01 2.347843e-01 1.044440e-01 
1.638165e-01 1.741849e-01 2.663795e-01 4.319025e-01 6.294653e-01 8.137799e-01 9.387744e-01 1.065341e+00 1.100979e+00 1.126148e+00 9.084227e-01 2.337095e-01 1.021746e+00 1.750235e+00 1.835090e+00 1.472232e+00 1.243161e+00 1.472232e+00 1.835090e+00 1.750235e+00 1.021746e+00 2.337095e-01 9.084227e-01 1.126148e+00 1.100979e+00 1.065341e+00 9.387744e-01 8.137799e-01 6.294653e-01 4.319025e-01 2.663795e-01 1.741849e-01 
3.185929e-01 2.998789e-01 3.165363e-01 4.769455e-01 7.236367e-01 9.427467e-01 1.094384e+00 1.278407e+00 1.371594e+00 1.214166e+00 4.553022e-02 1.369914e+00 1.711279e+00 1.196067e+00 9.400281e-01 9.201513e-01 9.719976e-01 9.201513e-01 9.400281e-01 1.196067e+00 1.711279e+00 1.369914e+00 4.553022e-02 1.214166e+00 1.371594e+00 1.278407e+00 1.094384e+00 9.427467e-01 7.236367e-01 4.769455e-01 3.165363e-01 2.998789e-01 
5.084746e-01 4.593614e-01 3.588074e-01 4.834374e-01 7.968834e-01 1.088802e+00 1.305610e+00 1.546182e+00 1.537097e+00 6.860963e-01 7.633568e-01 1.048120e+00 5.699017e-01 6.029310e-01 1.195046e+00 1.544964e+00 1.642871e+00 1.544964e+00 1.195046e+00 6.029310e-01 5.699017e-01 1.048120e+00 7.633568e-01 6.860963e-01 1.537097e+00 1.546182e+00 1.305610e+00 1.088802e+00 7.968834e-01 4.834374e-01 3.588074e-01 4.593614e-01 
6.881293e-01 6.169701e-01 4.109507e-01 4.757144e-01 8.667555e-01 1.205273e+00 1.467500e+00 1.809464e+00 1.647717e+00 3.316410e-01 8.920702e-01 9.053717e-01 1.261385e+00 1.737709e+00 1.793704e+00 1.252663e+00 8.507217e-01 1.252663e+00 1.793704e+00 1.737709e+00 1.261385e+00 9.053717e-01 8.920702e-01 3.316410e-01 1.647717e+00 1.809464e+00 1.467500e+00 1.205273e+00 8.667555e-01 4.757144e-01 4.109507e-01 6.169701e-01 
8.742023e-01 7.861263e-01 4.484237e-01 3.778975e-01 8.246966e-01 1.228129e+00 1.588102e+00 2.426147e+00 1.605716e+00 1.125758e+00 1.338226e+00 1.691338e+00 1.640353e+00 1.258961e+00 8.340528e-01 3.721059e-01 1.555223e-01 3.721059e-01 8.340528e-01 1.258961e+00 1.640353e+00 1.691338e+00 1.338226e+00 1.125758e+00 1.605716e+00 2.426147e+00 1.588102e+00 1.228129e+00 8.246966e-01 3.778975e-01 4.484237e-01 7.861263e-01 
9.689233e-01 8.742580e-01 4.641437e-01 2.435509e-01 7.964273e-01 1.128799e+00 1.917857e+00 2.878040e+00 9.091749e-01 2.035276e+00 1.188548e+00 1.114531e+00 6.621293e-01 6.371318e-01 6.175406e-01 4.437834e-01 3.411861e-01 4.437834e-01 6.175406e-01 6.371318e-01 6.621293e-01 1.114531e+00 1.188548e+00 2.035276e+00 9.091749e-01 2.878040e+00 1.917857e+00 1.128799e+00 7.964273e-01 2.435509e-01 4.641437e-01 8.742580e-01 
9.952621e-01 9.327462e-01 5.388255e-01 2.420399e-01 5.155437e-01 8.175752e-01 2.442011e+00 2.856358e+00 1.910413e+00 1.735389e+00 8.326826e-01 8.210576e-01 6.767301e-01 6.829701e-01 4.724616e-01 2.853069e-01 1.898732e-01 2.853069e-01 4.724616e-01 6.829701e-01 6.767301e-01 8.210576e-01 8.326826e-01 1.735389e+00 1.910413e+00 2.856358e+00 2.442011e+00 8.175752e-01 5.155437e-01 2.420399e-01 5.388255e-01 9.327462e-01 
8.192379e-01 8.090706e-01 6.679332e-01 5.040869e-01 4.771850e-01 6.818661e-01 2.567189e+00 1.813825e+00 2.196915e+00 8.205806e-01 8.504802e-01 6.928117e-01 5.718227e-01 5.097273e-01 3.773356e-01 2.851008e-01 2.283145e-01 2.851008e-01 3.773356e-01 5.097273e-01 5.718227e-01 6.928117e-01 8.504802e-01 8.205806e-01 2.196915e+00 1.813825e+00 2.567189e+00 6.818661e-01 4.771850e-01 5.040869e-01 6.679332e-01 8.090706e-01 
5.109487e-01 6.333334e-01 8.547946e-01 9.403279e-01 1.073559e+00 9.794520e-01 1.674974e+00 1.906691e+00 1.309012e+00 6.379203e-01 9.976893e-01 8.209115e-01 7.422401e-01 5.388092e-01 3.453269e-01 1.865229e-01 1.131432e-01 1.865229e-01 3.453269e-01 5.388092e-01 7.422401e-01 8.209115e-01 9.976893e-01 6.379203e-01 1.309012e+00 1.906691e+00 1.674974e+00 9.794520e-01 1.073559e+00 9.403279e-01 8.547946e-01 6.333334e-01 
3.645335e-14 5.109487e-01 9.660714e-01 1.245029e+00 1.468151e+00 1.329798e+00 1.294056e-01 1.922190e+00 1.009131e+00 8.184462e-01 1.225434e+00 9.697223e-01 8.304561e-01 5.103338e-01 2.950181e-01 1.131432e-01 2.473936e-14 1.131432e-01 2.950181e-01 5.103338e-01 8.304561e-01 9.697223e-01 1.225434e+00 8.184462e-01 1.009131e+00 1.922190e+00 1.294056e-01 1.329798e+00 1.468151e+00 1.245029e+00 9.660714e-01 5.109487e-01 
5.109487e-01 6.333334e-01 8.547946e-01 9.403279e-01 1.073559e+00 9.794520e-01 1.674974e+00 1.906691e+00 1.309012e+00 6.379203e-01 9.976893e-01 8.209115e-01 7.422401e-01 5.388092e-01 3.453269e-01 1.865229e-01 1.131432e-01 1.865229e-01 3.453269e-01 5.388092e-01 7.422401e-01 8.209115e-01 9.976893e-01 6.379203e-01 1.309012e+00 1.906691e+00 1.674974e+00 9.794520e-01 1.073559e+00 9.403279e-01 8.547946e-01 6.333334e-01 
8.192379e-01 8.090706e-01 6.679332e-01 5.040869e-01 4.771850e-01 6.818661e-01 2.567189e+00 1.813825e+00 2.196915e+00 8.205806e-01 8.504802e-01 6.928117e-01 5.718227e-01 5.097273e-01 3.773356e-01 2.851008e-01 2.283145e-01 2.851008e-01 3.773356e-01 5.097273e-01 5.718227e-01 6.928117e-01 8.504802e-01 8.205806e-01 2.196915e+00 1.813825e+00 2.567189e+00 6.818661e-01 4.771850e-01 5.040869e-01 6.679332e-01 8.090706e-01 
9.952621e-01 9.327462e-01 5.388255e-01 2.420399e-01 5.155437e-01 8.175752e-01 2.442011e+00 2.856358e+00 1.910413e+00 1.735389e+00 8.326826e-01 8.210576e-01 6.767301e-01 6.829701e-01 4.724616e-01 2.853069e-01 1.898732e-01 2.853069e-01 4.724616e-01 6.829701e-01 6.767301e-01 8.210576e-01 8.326826e-01 1.735389e+00 1.910413e+00 2.856358e+00 2.442011e+00 8.175752e-01 5.155437e-01 2.420399e-01 5.388255e-01 9.327462e-01 
9.689233e-01 8.742580e-01 4.641437e-01 2.435509e-01 7.964273e-01 1.128799e+00 1.917857e+00 2.878040e+00 9.091749e-01 2.035276e+00 1.188548e+00 1.114531e+00 6.621293e-01 6.371318e-01 6.175406e-01 4.437834e-01 3.411861e-01 4.437834e-01 6.175406e-01 6.371318e-01 6.621293e-01 1.114531e+00 1.188548e+00 2.035276e+00 9.091749e-01 2.878040e+00 1.917857e+00 1.128799e+00 7.964273e-01 2.435509e-01 4.641437e-01 8.742580e-01 
8.742023e-01 7.861263e-01 4.484237e-01 3.778975e-01 8.246966e-01 1.228129e+00 1.588102e+00 2.426147e+00 1.605716e+00 1.125758e+00 1.338226e+00 1.691338e+00 1.640353e+00 1.258961e+00 8.340528e-01 3.721059e-01 1.555223e-01 3.721059e-01 8.340528e-01 1.258961e+00 1.640353e+00 1.691338e+00 1.338226e+00 1.125758e+00 1.605716e+00 2.426147e+00 1.588102e+00 1.228129e+00 8.246966e-01 3.778975e-01 4.484237e-01 7.861263e-01 
6.881293e-01 6.169701e-01 4.109507e-01 4.757144e-01 8.667555e-01 1.205273e+00 1.467500e+00 1.809464e+00 1.647717e+00 3.316410e-01 8.920702e-01 9.053717e-01 1.261385e+00 1.737709e+00 1.793704e+00 1.252663e+00 8.507217e-01 1.252663e+00 1.793704e+00 1.737709e+00 1.261385e+00 9.053717e-01 8.920702e-01 3.316410e-01 1.647717e+00 1.809464e+00 1.467500e+00 1.205273e+00 8.667555e-01 4.757144e-01 4.109507e-01 6.169701e-01 
5.084746e-01 4.593614e-01 3.588074e-01 4.834374e-01 7.968834e-01 1.088802e+00 1.305610e+00 1.546182e+00 1.537097e+00 6.860963e-01 7.633568e-01 1.048120e+00 5.699017e-01 6.029310e-01 1.195046e+00 1.544964e+00 1.642871e+00 1.544964e+00 1.195046e+00 6.029310e-01 5.699017e-01 1.048120e+00 7.633568e-01 6.860963e-01 1.537097e+00 1.546182e+00 1.305610e+00 1.088802e+00 7.968834e-01 4.834374e-01 3.588074e-01 4.593614e-01 
3.185929e-01 2.998789e-01 3.165363e-01 4.769455e-01 7.236367e-01 9.427467e-01 1.094384e+00 1.278407e+00 1.371594e+00 1.214166e+00 4.553022e-02 1.369914e+00 1.711279e+00 1.196067e+00 9.400281e-01 9.201513e-01 9.719976e-01 9.201513e-01 9.400281e-01 1.196067e+00 1.711279e+00 1.369914e+00 4.553022e-02 1.214166e+00 1.371594e+00 1.278407e+00 1.094384e+00 9.427467e-01 7.236367e-01 4.769455e-01 3.165363e-01 2.998789e-01 
1.638165e-01 1.741849e-01 2.663795e-01 4.319025e-01 6.294653e-01 8.137799e-01 9.387744e-01 1.065341e+00 1.100979e+00 1.126148e+00 9.084227e-01 2.337095e-01 1.021746e+00 1.750235e+00 1.835090e+00 1.472232e+00 1.243161e+00 1.472232e+00 1.835090e+00 1.750235e+00 1.021746e+00 2.337095e-01 9.084227e-01 1.126148e+00 1.100979e+00 1.065341e+00 9.387744e-01 8.137799e-01 6.294653e-01 4.319025e-01 2.663795e-01 1.741849e-01 
3.928771e-02 1.044440e-01 2.347843e-01 3.809104e-01 5.352270e-01 6.850753e-01 7.902175e-01 8.888468e-01 8.969177e-01 8.427340e-01 6.837022e-01 5.203911e-01 5.185709e-01 8.698762e-01 1.489931e+00 1.767054e+00 1.662565e+00 1.767054e+00 1.489931e+00 8.698762e-01 5.185709e-01 5.203911e-01 6.837022e-01 8.427340e-01 8.969177e-01 8.888468e-01 7.902175e-01 6.850753e-01 5.352270e-01 3.809104e-01 2.347843e-01 1.044440e-01 
4.476386e-02 1.013501e-01 2.095708e-01 3.329087e-01 4.619691e-01 6.008725e-01 7.097073e-01 8.108975e-01 8.386968e-01 8.002117e-01 6.551186e-01 4.008871e-01 3.771925e-01 8.059901e-01 1.402970e+00 1.831957e+00 1.848869e+00 1.831957e+00 1.402970e+00 8.059901e-01 3.771925e-01 4.008871e-01 6.551186e-01 8.002117e-01 8.386968e-01 8.108975e-01 7.097073e-01 6.008725e-01 4.619691e-01 3.329087e-01 2.095708e-01 1.013501e-01 
8.735678e-02 1.149372e-01 1.864913e-01 2.824542e-01 3.903565e-01 5.168960e-01 6.303908e-01 7.387509e-01 7.973035e-01 7.988569e-01 7.365431e-01 6.160464e-01 5.643865e-01 6.903728e-01 1.218319e+00 1.788100e+00 1.939398e+00 1.788100e+00 1.218319e+00 6.903728e-01 5.643865e-01 6.160464e-01 7.365431e-01 7.988569e-01 7.973035e-01 7.387509e-01 6.303908e-01 5.168960e-01 3.903565e-01 2.824542e-01 1.864913e-01 1.149372e-01 
9.943418e-02 1.171066e-01 1.674134e-01 2.480209e-01 3.474664e-01 4.722161e-01 5.999509e-01 7.283815e-01 8.320982e-01 8.895614e-01 9.063957e-01 8.589331e-01 8.401697e-01 8.910274e-01 1.187529e+00 1.617629e+00 1.799387e+00 1.617629e+00 1.187529e+00 8.910274e-01 8.401697e-01 8.589331e-01 9.063957e-01 8.895614e-01 8.320982e-01 7.283815e-01 5.999509e-01 4.722161e-01 3.474664e-01 2.480209e-01 1.674134e-01 1.171066e-01 
8.047747e-02 9.534369e-02 1.388456e-01 2.118340e-01 3.107819e-01 4.376295e-01 5.871073e-01 7.470396e-01 9.143946e-01 1.053445e+00 1.176791e+00 1.230573e+00 1.256863e+00 1.203130e+00 1.203229e+00 1.297263e+00 1.375014e+00 1.297263e+00 1.203229e+00 1.203130e+00 1.256863e+00 1.230573e+00 1.176791e+00 1.053445e+00 9.143946e-01 7.470396e-01 5.871073e-01 4.376295e-01 3.107819e-01 2.118340e-01 1.388456e-01 9.534369e-02 
4.598244e-02 6.546093e-02 1.134293e-01 1.867739e-01 2.884924e-01 4.190143e-01 5.850319e-01 7.703584e-01 9.824600e-01 1.175604e+00 1.358731e+00 1.463255e+00 1.513011e+00 1.429156e+00 1.248610e+00 9.366374e-01 7.440777e-01 9.366374e-01 1.248610e+00 1.429156e+00 1.513011e+00 1.463255e+00 1.358731e+00 1.175604e+00 9.824600e-01 7.703584e-01 5.850319e-01 4.190143e-01 2.884924e-01 1.867739e-01 1.134293e-01 6.546093e-02 
