# vtk DataFile Version 2.0
Comment goes here
ASCII

DATASET STRUCTURED_POINTS
FIELD FieldData 1
TIME 1 1 double
0.72000000
DIMENSIONS    32   32   1

ORIGIN    0.000   0.000   0.000
SPACING   0.03125 0.03125   1.000

POINT_DATA   1024
SCALARS uMag double
LOOKUP_TABLE default

2.530609e-15 2.401205e-02 3.691613e-02 3.289698e-02 1.394508e-03 6.105200e-02 1.691977e-01 3.005780e-01 4.938174e-01 6.810177e-01 9.125189e-01 1.066931e+00 1.199511e+00 1.166059e+00 1.006266e+00 6.183671e-01 3.800042e-14 6.183671e-01 1.006266e+00 1.166059e+00 1.199511e+00 1.066931e+00 9.125189e-01 6.810177e-01 4.938174e-01 3.005780e-01 1.691977e-01 6.105200e-02 1.394508e-03 3.289698e-02 3.691613e-02 2.401205e-02 
2.401205e-02 3.452836e-02 4.751008e-02 5.196535e-02 5.126402e-02 8.953312e-02 1.745900e-01 2.920412e-01 4.563413e-01 6.159328e-01 8.114424e-01 9.380851e-01 1.058716e+00 1.047440e+00 9.651110e-01 7.704638e-01 6.183671e-01 7.704638e-01 9.651110e-01 1.047440e+00 1.058716e+00 9.380851e-01 8.114424e-01 6.159328e-01 4.563413e-01 2.920412e-01 1.745900e-01 8.953312e-02 5.126402e-02 5.196535e-02 4.751008e-02 3.452836e-02 
5.836120e-02 6.316476e-02 7.454512e-02 8.706736e-02 1.040155e-01 1.501986e-01 2.164875e-01 3.173210e-01 4.299379e-01 5.381690e-01 6.593248e-01 7.217707e-01 8.200237e-01 8.408481e-01 9.102390e-01 1.061257e+00 1.166999e+00 1.061257e+00 9.102390e-01 8.408481e-01 8.200237e-01 7.217707e-01 6.593248e-01 5.381690e-01 4.299379e-01 3.173210e-01 2.164875e-01 1.501986e-01 1.040155e-01 8.706736e-02 7.454512e-02 6.316476e-02 
1.077334e-01 1.105566e-01 1.225858e-01 1.426038e-01 1.753573e-01 2.313549e-01 2.918922e-01 3.847682e-01 4.473749e-01 5.138116e-01 5.225022e-01 4.732510e-01 4.329211e-01 4.454242e-01 7.704236e-01 1.335109e+00 1.657249e+00 1.335109e+00 7.704236e-01 4.454242e-01 4.329211e-01 4.732510e-01 5.225022e-01 5.138116e-01 4.473749e-01 3.847682e-01 2.918922e-01 2.313549e-01 1.753573e-01 1.426038e-01 1.225858e-01 1.105566e-01 
1.853424e-01 1.855455e-01 1.931715e-01 2.109143e-01 2.497929e-01 3.047641e-01 3.637382e-01 4.505508e-01 4.889814e-01 5.498589e-01 5.015051e-01 4.366118e-01 2.869568e-01 7.840873e-02 5.689912e-01 1.429225e+00 1.863478e+00 1.429225e+00 5.689912e-01 7.840873e-02 2.869568e-01 4.366118e-01 5.015051e-01 5.498589e-01 4.889814e-01 4.505508e-01 3.637382e-01 3.047641e-01 2.497929e-01 2.109143e-01 1.931715e-01 1.855455e-01 
2.916356e-01 2.865773e-01 2.814319e-01 2.914821e-01 3.357717e-01 3.903853e-01 4.535427e-01 5.351235e-01 5.594733e-01 6.384705e-01 5.873472e-01 6.568413e-01 5.797479e-01 4.593615e-01 6.808683e-01 1.512514e+00 1.816964e+00 1.512514e+00 6.808683e-01 4.593615e-01 5.797479e-01 6.568413e-01 5.873472e-01 6.384705e-01 5.594733e-01 5.351235e-01 4.535427e-01 3.903853e-01 3.357717e-01 2.914821e-01 2.814319e-01 2.865773e-01 
4.346826e-01 4.209517e-01 3.916484e-01 3.813501e-01 4.195209e-01 4.606776e-01 5.230193e-01 5.806640e-01 5.859395e-01 6.556288e-01 5.432608e-01 6.314661e-01 4.705507e-01 5.513011e-01 9.662434e-01 1.342151e+00 1.150303e+00 1.342151e+00 9.662434e-01 5.513011e-01 4.705507e-01 6.314661e-01 5.432608e-01 6.556288e-01 5.859395e-01 5.806640e-01 5.230193e-01 4.606776e-01 4.195209e-01 3.813501e-01 3.916484e-01 4.209517e-01 
6.104934e-01 5.807020e-01 5.046206e-01 4.546810e-01 4.801335e-01 5.164205e-01 5.918692e-01 6.250171e-01 5.944231e-01 5.927447e-01 3.839872e-01 7.146868e-01 1.042906e+00 1.559380e+00 1.678634e+00 9.837426e-01 2.099121e-01 9.837426e-01 1.678634e+00 1.559380e+00 1.042906e+00 7.146868e-01 3.839872e-01 5.927447e-01 5.944231e-01 6.250171e-01 5.918692e-01 5.164205e-01 4.801335e-01 4.546810e-01 5.046206e-01 5.807020e-01 
8.045763e-01 7.555880e-01 6.213637e-01 5.170163e-01 5.140317e-01 5.397846e-01 6.360023e-01 6.397023e-01 6.443270e-01 7.333086e-01 5.971587e-01 1.017274e+00 1.480421e+00 1.041433e+00 5.374852e-01 3.783981e-01 3.963201e-01 3.783981e-01 5.374852e-01 1.041433e+00 1.480421e+00 1.017274e+00 5.971587e-01 7.333086e-01 6.443270e-01 6.397023e-01 6.360023e-01 5.397846e-01 5.140317e-01 5.170163e-01 6.213637e-01 7.555880e-01 
1.013080e+00 9.367312e-01 7.208330e-01 5.271284e-01 4.725600e-01 5.180043e-01 6.943090e-01 7.366080e-01 6.523903e-01 3.252746e-01 8.120824e-01 2.290599e-01 4.501486e-01 8.932432e-01 6.381136e-01 2.398937e-01 1.407658e-01 2.398937e-01 6.381136e-01 8.932432e-01 4.501486e-01 2.290599e-01 8.120824e-01 3.252746e-01 6.523903e-01 7.366080e-01 6.943090e-01 5.180043e-01 4.725600e-01 5.271284e-01 7.208330e-01 9.367312e-01 
1.187602e+00 1.083539e+00 7.943197e-01 5.167716e-01 3.913832e-01 4.544274e-01 6.634180e-01 7.821614e-01 7.835170e-01 2.283188e-01 2.263059e-01 6.748657e-01 1.987440e-01 3.645250e-01 5.749208e-01 4.303651e-01 2.338906e-02 4.303651e-01 5.749208e-01 3.645250e-01 1.987440e-01 6.748657e-01 2.263059e-01 2.283188e-01 7.835170e-01 7.821614e-01 6.634180e-01 4.544274e-01 3.913832e-01 5.167716e-01 7.943197e-01 1.083539e+00 
1.346230e+00 1.207189e+00 8.498170e-01 4.499014e-01 1.464867e-01 2.855989e-01 9.728555e-01 1.797775e+00 9.354795e-01 1.212071e-01 1.463216e-01 3.106725e-01 6.190536e-01 4.777119e-01 3.989288e-01 3.397005e-01 5.518270e-01 3.397005e-01 3.989288e-01 4.777119e-01 6.190536e-01 3.106725e-01 1.463216e-01 1.212071e-01 9.354795e-01 1.797775e+00 9.728555e-01 2.855989e-01 1.464867e-01 4.499014e-01 8.498170e-01 1.207189e+00 
1.382108e+00 1.214173e+00 8.353942e-01 3.599264e-01 1.734096e-01 4.901860e-01 1.857450e+00 1.897456e+00 5.791085e-01 6.044229e-01 3.645306e-02 6.622894e-02 1.305879e-01 2.329743e-01 1.424796e-01 1.872610e-01 2.907049e-01 1.872610e-01 1.424796e-01 2.329743e-01 1.305879e-01 6.622894e-02 3.645306e-02 6.044229e-01 5.791085e-01 1.897456e+00 1.857450e+00 4.901860e-01 1.734096e-01 3.599264e-01 8.353942e-01 1.214173e+00 
1.347120e+00 1.173268e+00 8.965593e-01 4.960900e-01 5.878221e-01 9.508946e-01 2.622623e+00 4.220083e-01 1.585792e+00 3.269247e-01 5.269007e-01 3.648284e-01 3.170743e-01 2.012814e-01 9.639327e-02 1.981166e-01 2.868092e-01 1.981166e-01 9.639327e-02 2.012814e-01 3.170743e-01 3.648284e-01 5.269007e-01 3.269247e-01 1.585792e+00 4.220083e-01 2.622623e+00 9.508946e-01 5.878221e-01 4.960900e-01 8.965593e-01 1.173268e+00 
1.060333e+00 9.497002e-01 8.996763e-01 8.513359e-01 9.150660e-01 1.472660e+00 1.803833e+00 1.260755e+00 8.335195e-01 9.299374e-01 4.326167e-01 7.900380e-02 2.370157e-01 2.030309e-01 1.700656e-01 1.266430e-01 9.076768e-02 1.266430e-01 1.700656e-01 2.030309e-01 2.370157e-01 7.900380e-02 4.326167e-01 9.299374e-01 8.335195e-01 1.260755e+00 1.803833e+00 1.472660e+00 9.150660e-01 8.513359e-01 8.996763e-01 9.497002e-01 
6.192250e-01 7.348345e-01 9.446564e-01 1.150620e+00 9.878233e-01 1.280137e+00 6.944501e-01 9.607186e-01 7.787131e-01 7.412741e-01 2.553465e-01 2.323269e-01 1.911850e-01 1.003293e-01 6.474642e-02 4.808805e-02 4.396543e-02 4.808805e-02 6.474642e-02 1.003293e-01 1.911850e-01 2.323269e-01 2.553465e-01 7.412741e-01 7.787131e-01 9.607186e-01 6.944501e-01 1.280137e+00 9.878233e-01 1.150620e+00 9.446564e-01 7.348345e-01 
4.065381e-14 6.192250e-01 1.017654e+00 1.320375e+00 1.151708e+00 1.252214e+00 3.301686e-01 6.532058e-02 1.190983e+00 6.148485e-02 2.410343e-01 4.176564e-01 1.629011e-01 6.368088e-02 3.179730e-02 4.396543e-02 3.409431e-14 4.396543e-02 3.179730e-02 6.368088e-02 1.629011e-01 4.176564e-01 2.410343e-01 6.148485e-02 1.190983e+00 6.532058e-02 3.301686e-01 1.252214e+00 1.151708e+00 1.320375e+00 1.017654e+00 6.192250e-01 
6.192250e-01 7.348345e-01 9.446564e-01 1.150620e+00 9.878233e-01 1.280137e+00 6.944501e-01 9.607186e-01 7.787131e-01 7.412741e-01 2.553465e-01 2.323269e-01 1.911850e-01 1.003293e-01 6.474642e-02 4.808805e-02 4.396543e-02 4.808805e-02 6.474642e-02 1.003293e-01 1.911850e-01 2.323269e-01 2.553465e-01 7.412741e-01 7.787131e-01 9.607186e-01 6.944501e-01 1.280137e+00 9.878233e-01 1.150620e+00 9.446564e-01 7.348345e-01 
1.060333e+00 9.497002e-01 8.996763e-01 8.513359e-01 9.150660e-01 1.472660e+00 1.803833e+00 1.260755e+00 8.335195e-01 9.299374e-01 4.326167e-01 7.900380e-02 2.370157e-01 2.030309e-01 1.700656e-01 1.266430e-01 9.076768e-02 1.266430e-01 1.700656e-01 2.030309e-01 2.370157e-01 7.900380e-02 4.326167e-01 9.299374e-01 8.335195e-01 1.260755e+00 1.803833e+00 1.472660e+00 9.150660e-01 8.513359e-01 8.996763e-01 9.497002e-01 
1.347120e+00 1.173268e+00 8.965593e-01 4.960900e-01 5.878221e-01 9.508946e-01 2.622623e+00 4.220083e-01 1.585792e+00 3.269247e-01 5.269007e-01 3.648284e-01 3.170743e-01 2.012814e-01 9.639327e-02 1.981166e-01 2.868092e-01 1.981166e-01 9.639327e-02 2.012814e-01 3.170743e-01 3.648284e-01 5.269007e-01 3.269247e-01 1.585792e+00 4.220083e-01 2.622623e+00 9.508946e-01 5.878221e-01 4.960900e-01 8.965593e-01 1.173268e+00 
1.382108e+00 1.214173e+00 8.353942e-01 3.599264e-01 1.734096e-01 4.901860e-01 1.857450e+00 1.897456e+00 5.791085e-01 6.044229e-01 3.645306e-02 6.622894e-02 1.305879e-01 2.329743e-01 1.424796e-01 1.872610e-01 2.907049e-01 1.872610e-01 1.424796e-01 2.329743e-01 1.305879e-01 6.622894e-02 3.645306e-02 6.044229e-01 5.791085e-01 1.897456e+00 1.857450e+00 4.901860e-01 1.734096e-01 3.599264e-01 8.353942e-01 1.214173e+00 
1.346230e+00 1.207189e+00 8.498170e-01 4.499014e-01 1.464867e-01 2.855989e-01 9.728555e-01 1.797775e+00 9.354795e-01 1.212071e-01 1.463216e-01 3.106725e-01 6.190536e-01 4.777119e-01 3.989288e-01 3.397005e-01 5.518270e-01 3.397005e-01 3.989288e-01 4.777119e-01 6.190536e-01 3.106725e-01 1.463216e-01 1.212071e-01 9.354795e-01 1.797775e+00 9.728555e-01 2.855989e-01 1.464867e-01 4.499014e-01 8.498170e-01 1.207189e+00 
1.187602e+00 1.083539e+00 7.943197e-01 5.167716e-01 3.913832e-01 4.544274e-01 6.634180e-01 7.821614e-01 7.835170e-01 2.283188e-01 2.263059e-01 6.748657e-01 1.987440e-01 3.645250e-01 5.749208e-01 4.303651e-01 2.338906e-02 4.303651e-01 5.749208e-01 3.645250e-01 1.987440e-01 6.748657e-01 2.263059e-01 2.283188e-01 7.835170e-01 7.821614e-01 6.634180e-01 4.544274e-01 3.913832e-01 5.167716e-01 7.943197e-01 1.083539e+00 
1.013080e+00 9.367312e-01 7.208330e-01 5.271284e-01 4.725600e-01 5.180043e-01 6.943090e-01 7.366080e-01 6.523903e-01 3.252746e-01 8.120824e-01 2.290599e-01 4.501486e-01 8.932432e-01 6.381136e-01 2.398937e-01 1.407658e-01 2.398937e-01 6.381136e-01 8.932432e-01 4.501486e-01 2.290599e-01 8.120824e-01 3.252746e-01 6.523903e-01 7.366080e-01 6.943090e-01 5.180043e-01 4.725600e-01 5.271284e-01 7.208330e-01 9.367312e-01 
8.045763e-01 7.555880e-01 6.213637e-01 5.170163e-01 5.140317e-01 5.397846e-01 6.360023e-01 6.397023e-01 6.443270e-01 7.333086e-01 5.971587e-01 1.017274e+00 1.480421e+00 1.041433e+00 5.374852e-01 3.783981e-01 3.963201e-01 3.783981e-01 5.374852e-01 1.041433e+00 1.480421e+00 1.017274e+00 5.971587e-01 7.333086e-01 6.443270e-01 6.397023e-01 6.360023e-01 5.397846e-01 5.140317e-01 5.170163e-01 6.213637e-01 7.555880e-01 
6.104934e-01 5.807020e-01 5.046206e-01 4.546810e-01 4.801335e-01 5.164205e-01 5.918692e-01 6.250171e-01 5.944231e-01 5.927447e-01 3.839872e-01 7.146868e-01 1.042906e+00 1.559380e+00 1.678634e+00 9.837426e-01 2.099121e-01 9.837426e-01 1.678634e+00 1.559380e+00 1.042906e+00 7.146868e-01 3.839872e-01 5.927447e-01 5.944231e-01 6.250171e-01 5.918692e-01 5.164205e-01 4.801335e-01 4.546810e-01 5.046206e-01 5.807020e-01 
4.346826e-01 4.209517e-01 3.916484e-01 3.813501e-01 4.195209e-01 4.606776e-01 5.230193e-01 5.806640e-01 5.859395e-01 6.556288e-01 5.432608e-01 6.314661e-01 4.705507e-01 5.513011e-01 9.662434e-01 1.342151e+00 1.150303e+00 1.342151e+00 9.662434e-01 5.513011e-01 4.705507e-01 6.314661e-01 5.432608e-01 6.556288e-01 5.859395e-01 5.806640e-01 5.230193e-01 4.606776e-01 4.195209e-01 3.813501e-01 3.916484e-01 4.209517e-01 
2.916356e-01 2.865773e-01 2.814319e-01 2.914821e-01 3.357717e-01 3.903853e-01 4.535427e-01 5.351235e-01 5.594733e-01 6.384705e-01 5.873472e-01 6.568413e-01 5.797479e-01 4.593615e-01 6.808683e-01 1.512514e+00 1.816964e+00 1.512514e+00 6.808683e-01 4.593615e-01 5.797479e-01 6.568413e-01 5.873472e-01 6.384705e-01 5.594733e-01 5.351235e-01 4.535427e-01 3.903853e-01 3.357717e-01 2.914821e-01 2.814319e-01 2.865773e-01 
1.853424e-01 1.855455e-01 1.931715e-01 2.109143e-01 2.497929e-01 3.047641e-01 3.637382e-01 4.505508e-01 4.889814e-01 5.498589e-01 5.015051e-01 4.366118e-01 2.869568e-01 7.840873e-02 5.689912e-01 1.429225e+00 1.863478e+00 1.429225e+00 5.689912e-01 7.840873e-02 2.869568e-01 4.366118e-01 5.015051e-01 5.498589e-01 4.889814e-01 4.505508e-01 3.637382e-01 3.047641e-01 2.497929e-01 2.109143e-01 1.931715e-01 1.855455e-01 
1.077334e-01 1.105566e-01 1.225858e-01 1.426038e-01 1.753573e-01 2.313549e-01 2.918922e-01 3.847682e-01 4.473749e-01 5.138116e-01 5.225022e-01 4.732510e-01 4.329211e-01 4.454242e-01 7.704236e-01 1.335109e+00 1.657249e+00 1.335109e+00 7.704236e-01 4.454242e-01 4.329211e-01 4.732510e-01 5.225022e-01 5.138116e-01 4.473749e-01 3.847682e-01 2.918922e-01 2.313549e-01 1.753573e-01 1.426038e-01 1.225858e-01 1.105566e-01 
5.836120e-02 6.316476e-02 7.454512e-02 8.706736e-02 1.040155e-01 1.501986e-01 2.164875e-01 3.173210e-01 4.299379e-01 5.381690e-01 6.593248e-01 7.217707e-01 8.200237e-01 8.408481e-01 9.102390e-01 1.061257e+00 1.166999e+00 1.061257e+00 9.102390e-01 8.408481e-01 8.200237e-01 7.217707e-01 6.593248e-01 5.381690e-01 4.299379e-01 3.173210e-01 2.164875e-01 1.501986e-01 1.040155e-01 8.706736e-02 7.454512e-02 6.316476e-02 
2.401205e-02 3.452836e-02 4.751008e-02 5.196535e-02 5.126402e-02 8.953312e-02 1.745900e-01 2.920412e-01 4.563413e-01 6.159328e-01 8.114424e-01 9.380851e-01 1.058716e+00 1.047440e+00 9.651110e-01 7.704638e-01 6.183671e-01 7.704638e-01 9.651110e-01 1.047440e+00 1.058716e+00 9.380851e-01 8.114424e-01 6.159328e-01 4.563413e-01 2.920412e-01 1.745900e-01 8.953312e-02 5.126402e-02 5.196535e-02 4.751008e-02 3.452836e-02 
