# vtk DataFile Version 2.0
Comment goes here
ASCII

DATASET STRUCTURED_POINTS
FIELD FieldData 1
TIME 1 1 double
1.26000000
DIMENSIONS    32   32   1

ORIGIN    0.000   0.000   0.000
SPACING   0.03125 0.03125   1.000

POINT_DATA   1024
SCALARS uMag double
LOOKUP_TABLE default

1.868685e-13 1.673928e-02 2.072264e-02 1.401554e-02 7.641192e-02 1.941078e-01 3.343212e-01 5.171883e-01 6.974799e-01 8.810830e-01 1.025773e+00 1.120923e+00 1.140731e+00 1.052414e+00 8.447410e-01 4.715223e-01 6.358667e-13 4.715223e-01 8.447410e-01 1.052414e+00 1.140731e+00 1.120923e+00 1.025773e+00 8.810830e-01 6.974799e-01 5.171883e-01 3.343212e-01 1.941078e-01 7.641192e-02 1.401554e-02 2.072264e-02 1.673928e-02 
1.673928e-02 2.776754e-02 4.167592e-02 5.055948e-02 9.765924e-02 1.917901e-01 3.129659e-01 4.692400e-01 6.230953e-01 7.776214e-01 8.987508e-01 9.780616e-01 9.981893e-01 9.368239e-01 8.051695e-01 5.944187e-01 4.715223e-01 5.944187e-01 8.051695e-01 9.368239e-01 9.981893e-01 9.780616e-01 8.987508e-01 7.776214e-01 6.230953e-01 4.692400e-01 3.129659e-01 1.917901e-01 9.765924e-02 5.055948e-02 4.167592e-02 2.776754e-02 
5.152394e-02 6.023760e-02 8.059530e-02 1.066496e-01 1.622933e-01 2.334162e-01 3.213309e-01 4.292707e-01 5.247179e-01 6.252081e-01 6.944062e-01 7.443428e-01 7.656096e-01 7.605664e-01 7.827152e-01 8.169598e-01 8.365087e-01 8.169598e-01 7.827152e-01 7.605664e-01 7.656096e-01 7.443428e-01 6.944062e-01 6.252081e-01 5.247179e-01 4.292707e-01 3.213309e-01 2.334162e-01 1.622933e-01 1.066496e-01 8.059530e-02 6.023760e-02 
1.090031e-01 1.193966e-01 1.444928e-01 1.892647e-01 2.670919e-01 3.356753e-01 4.065580e-01 4.552863e-01 4.685472e-01 4.587479e-01 4.032314e-01 3.488233e-01 3.302655e-01 4.515303e-01 7.530793e-01 1.030001e+00 1.114902e+00 1.030001e+00 7.530793e-01 4.515303e-01 3.302655e-01 3.488233e-01 4.032314e-01 4.587479e-01 4.685472e-01 4.552863e-01 4.065580e-01 3.356753e-01 2.670919e-01 1.892647e-01 1.444928e-01 1.193966e-01 
2.082054e-01 2.153591e-01 2.291331e-01 2.760946e-01 3.682793e-01 4.442018e-01 5.202816e-01 5.495419e-01 5.314190e-01 4.641238e-01 3.342563e-01 1.710450e-01 3.948903e-02 2.729786e-01 6.858171e-01 1.056705e+00 1.138780e+00 1.056705e+00 6.858171e-01 2.729786e-01 3.948903e-02 1.710450e-01 3.342563e-01 4.641238e-01 5.314190e-01 5.495419e-01 5.202816e-01 4.442018e-01 3.682793e-01 2.760946e-01 2.291331e-01 2.153591e-01 
3.371577e-01 3.389008e-01 3.296558e-01 3.690140e-01 4.743624e-01 5.670078e-01 6.708089e-01 7.146544e-01 7.183827e-01 6.732685e-01 5.720630e-01 4.775266e-01 4.521782e-01 4.815389e-01 7.905501e-01 1.136861e+00 1.114135e+00 1.136861e+00 7.905501e-01 4.815389e-01 4.521782e-01 4.775266e-01 5.720630e-01 6.732685e-01 7.183827e-01 7.146544e-01 6.708089e-01 5.670078e-01 4.743624e-01 3.690140e-01 3.296558e-01 3.389008e-01 
5.040653e-01 4.967208e-01 4.513685e-01 4.604638e-01 5.541562e-01 6.472019e-01 7.637098e-01 8.094914e-01 8.302504e-01 7.949151e-01 7.344593e-01 6.570600e-01 6.076361e-01 6.171055e-01 7.455938e-01 9.405256e-01 7.138052e-01 9.405256e-01 7.455938e-01 6.171055e-01 6.076361e-01 6.570600e-01 7.344593e-01 7.949151e-01 8.302504e-01 8.094914e-01 7.637098e-01 6.472019e-01 5.541562e-01 4.604638e-01 4.513685e-01 4.967208e-01 
6.886250e-01 6.682539e-01 5.699702e-01 5.247300e-01 5.883426e-01 6.762781e-01 8.186394e-01 8.745876e-01 9.302181e-01 9.527838e-01 8.931239e-01 9.964599e-01 1.142068e+00 1.881247e+00 1.849280e+00 1.085160e+00 9.845765e-02 1.085160e+00 1.849280e+00 1.881247e+00 1.142068e+00 9.964599e-01 8.931239e-01 9.527838e-01 9.302181e-01 8.745876e-01 8.186394e-01 6.762781e-01 5.883426e-01 5.247300e-01 5.699702e-01 6.682539e-01 
8.778479e-01 8.448787e-01 6.909482e-01 5.834860e-01 5.890387e-01 6.605003e-01 8.078132e-01 8.573053e-01 9.290975e-01 9.752196e-01 1.047204e+00 1.468935e+00 1.947179e+00 1.774445e+00 7.681447e-01 9.479770e-01 1.172553e+00 9.479770e-01 7.681447e-01 1.774445e+00 1.947179e+00 1.468935e+00 1.047204e+00 9.752196e-01 9.290975e-01 8.573053e-01 8.078132e-01 6.605003e-01 5.890387e-01 5.834860e-01 6.909482e-01 8.448787e-01 
1.060254e+00 1.011138e+00 7.939929e-01 6.008239e-01 5.065321e-01 5.316642e-01 6.999239e-01 7.091682e-01 8.486876e-01 9.130236e-01 9.017101e-01 6.228377e-01 2.398911e-01 1.304099e+00 1.628852e+00 5.872575e-01 9.443719e-02 5.872575e-01 1.628852e+00 1.304099e+00 2.398911e-01 6.228377e-01 9.017101e-01 9.130236e-01 8.486876e-01 7.091682e-01 6.999239e-01 5.316642e-01 5.065321e-01 6.008239e-01 7.939929e-01 1.011138e+00 
1.194329e+00 1.134623e+00 8.624438e-01 6.068294e-01 3.979079e-01 4.009189e-01 5.705811e-01 5.357524e-01 6.169956e-01 4.568470e-01 5.501573e-01 5.188709e-01 5.674453e-01 9.371652e-01 2.981095e-01 5.578579e-01 8.867172e-03 5.578579e-01 2.981095e-01 9.371652e-01 5.674453e-01 5.188709e-01 5.501573e-01 4.568470e-01 6.169956e-01 5.357524e-01 5.705811e-01 4.009189e-01 3.979079e-01 6.068294e-01 8.624438e-01 1.134623e+00 
1.292470e+00 1.221602e+00 9.187053e-01 6.092310e-01 2.420173e-01 1.293497e-01 3.383723e-01 3.101482e-01 4.787645e-01 1.284730e+00 6.302281e-01 2.314001e-01 3.369442e-01 3.347573e-01 5.408656e-01 4.141390e-01 8.465501e-01 4.141390e-01 5.408656e-01 3.347573e-01 3.369442e-01 2.314001e-01 6.302281e-01 1.284730e+00 4.787645e-01 3.101482e-01 3.383723e-01 1.293497e-01 2.420173e-01 6.092310e-01 9.187053e-01 1.221602e+00 
1.279713e+00 1.212577e+00 9.106262e-01 6.019070e-01 1.760630e-01 1.100741e-01 5.514980e-01 4.960224e-01 8.950495e-01 1.201706e+00 4.774641e-01 2.910700e-01 7.991158e-01 2.707317e-01 1.955417e-01 2.230277e-01 3.843168e-01 2.230277e-01 1.955417e-01 2.707317e-01 7.991158e-01 2.910700e-01 4.774641e-01 1.201706e+00 8.950495e-01 4.960224e-01 5.514980e-01 1.100741e-01 1.760630e-01 6.019070e-01 9.106262e-01 1.212577e+00 
1.188692e+00 1.139913e+00 9.310053e-01 7.066436e-01 4.662972e-01 2.854166e-01 5.183605e-01 4.627554e-01 1.382431e+00 7.243820e-01 5.980573e-01 6.916160e-01 3.390024e-01 9.620452e-02 1.682857e-01 2.115791e-01 4.335839e-01 2.115791e-01 1.682857e-01 9.620452e-02 3.390024e-01 6.916160e-01 5.980573e-01 7.243820e-01 1.382431e+00 4.627554e-01 5.183605e-01 2.854166e-01 4.662972e-01 7.066436e-01 9.310053e-01 1.139913e+00 
9.305106e-01 9.458613e-01 9.399045e-01 9.317545e-01 9.320226e-01 8.391303e-01 9.667622e-01 1.073434e+00 1.657478e+00 5.128451e-02 5.508135e-01 8.300118e-01 2.893128e-01 3.314409e-01 1.661504e-01 1.745367e-01 1.438828e-01 1.745367e-01 1.661504e-01 3.314409e-01 2.893128e-01 8.300118e-01 5.508135e-01 5.128451e-02 1.657478e+00 1.073434e+00 9.667622e-01 8.391303e-01 9.320226e-01 9.317545e-01 9.399045e-01 9.458613e-01 
5.315983e-01 6.897538e-01 9.822340e-01 1.216097e+00 1.407690e+00 1.410997e+00 1.406030e+00 1.268686e+00 7.917747e-01 2.934888e-01 5.373864e-01 5.514815e-01 2.114752e-02 1.240361e-01 1.960124e-02 7.268319e-02 8.671514e-02 7.268319e-02 1.960124e-02 1.240361e-01 2.114752e-02 5.514815e-01 5.373864e-01 2.934888e-01 7.917747e-01 1.268686e+00 1.406030e+00 1.410997e+00 1.407690e+00 1.216097e+00 9.822340e-01 6.897538e-01 
4.829122e-13 5.315983e-01 1.018426e+00 1.375573e+00 1.652275e+00 1.707226e+00 1.618963e+00 1.204729e+00 2.498986e-01 8.839166e-02 7.639089e-01 1.138243e-01 1.258283e-01 8.512595e-02 2.071553e-02 8.671514e-02 3.022027e-13 8.671514e-02 2.071553e-02 8.512595e-02 1.258283e-01 1.138243e-01 7.639089e-01 8.839166e-02 2.498986e-01 1.204729e+00 1.618963e+00 1.707226e+00 1.652275e+00 1.375573e+00 1.018426e+00 5.315983e-01 
5.315983e-01 6.897538e-01 9.822340e-01 1.216097e+00 1.407690e+00 1.410997e+00 1.406030e+00 1.268686e+00 7.917747e-01 2.934888e-01 5.373864e-01 5.514815e-01 2.114752e-02 1.240361e-01 1.960124e-02 7.268319e-02 8.671514e-02 7.268319e-02 1.960124e-02 1.240361e-01 2.114752e-02 5.514815e-01 5.373864e-01 2.934888e-01 7.917747e-01 1.268686e+00 1.406030e+00 1.410997e+00 1.407690e+00 1.216097e+00 9.822340e-01 6.897538e-01 
9.305106e-01 9.458613e-01 9.399045e-01 9.317545e-01 9.320226e-01 8.391303e-01 9.667622e-01 1.073434e+00 1.657478e+00 5.128451e-02 5.508135e-01 8.300118e-01 2.893128e-01 3.314409e-01 1.661504e-01 1.745367e-01 1.438828e-01 1.745367e-01 1.661504e-01 3.314409e-01 2.893128e-01 8.300118e-01 5.508135e-01 5.128451e-02 1.657478e+00 1.073434e+00 9.667622e-01 8.391303e-01 9.320226e-01 9.317545e-01 9.399045e-01 9.458613e-01 
1.188692e+00 1.139913e+00 9.310053e-01 7.066436e-01 4.662972e-01 2.854166e-01 5.183605e-01 4.627554e-01 1.382431e+00 7.243820e-01 5.980573e-01 6.916160e-01 3.390024e-01 9.620452e-02 1.682857e-01 2.115791e-01 4.335839e-01 2.115791e-01 1.682857e-01 9.620452e-02 3.390024e-01 6.916160e-01 5.980573e-01 7.243820e-01 1.382431e+00 4.627554e-01 5.183605e-01 2.854166e-01 4.662972e-01 7.066436e-01 9.310053e-01 1.139913e+00 
1.279713e+00 1.212577e+00 9.106262e-01 6.019070e-01 1.760630e-01 1.100741e-01 5.514980e-01 4.960224e-01 8.950495e-01 1.201706e+00 4.774641e-01 2.910700e-01 7.991158e-01 2.707317e-01 1.955417e-01 2.230277e-01 3.843168e-01 2.230277e-01 1.955417e-01 2.707317e-01 7.991158e-01 2.910700e-01 4.774641e-01 1.201706e+00 8.950495e-01 4.960224e-01 5.514980e-01 1.100741e-01 1.760630e-01 6.019070e-01 9.106262e-01 1.212577e+00 
1.292470e+00 1.221602e+00 9.187053e-01 6.092310e-01 2.420173e-01 1.293497e-01 3.383723e-01 3.101482e-01 4.787645e-01 1.284730e+00 6.302281e-01 2.314001e-01 3.369442e-01 3.347573e-01 5.408656e-01 4.141390e-01 8.465501e-01 4.141390e-01 5.408656e-01 3.347573e-01 3.369442e-01 2.314001e-01 6.302281e-01 1.284730e+00 4.787645e-01 3.101482e-01 3.383723e-01 1.293497e-01 2.420173e-01 6.092310e-01 9.187053e-01 1.221602e+00 
1.194329e+00 1.134623e+00 8.624438e-01 6.068294e-01 3.979079e-01 4.009189e-01 5.705811e-01 5.357524e-01 6.169956e-01 4.568470e-01 5.501573e-01 5.188709e-01 5.674453e-01 9.371652e-01 2.981095e-01 5.578579e-01 8.867172e-03 5.578579e-01 2.981095e-01 9.371652e-01 5.674453e-01 5.188709e-01 5.501573e-01 4.568470e-01 6.169956e-01 5.357524e-01 5.705811e-01 4.009189e-01 3.979079e-01 6.068294e-01 8.624438e-01 1.134623e+00 
1.060254e+00 1.011138e+00 7.939929e-01 6.008239e-01 5.065321e-01 5.316642e-01 6.999239e-01 7.091682e-01 8.486876e-01 9.130236e-01 9.017101e-01 6.228377e-01 2.398911e-01 1.304099e+00 1.628852e+00 5.872575e-01 9.443719e-02 5.872575e-01 1.628852e+00 1.304099e+00 2.398911e-01 6.228377e-01 9.017101e-01 9.130236e-01 8.486876e-01 7.091682e-01 6.999239e-01 5.316642e-01 5.065321e-01 6.008239e-01 7.939929e-01 1.011138e+00 
8.778479e-01 8.448787e-01 6.909482e-01 5.834860e-01 5.890387e-01 6.605003e-01 8.078132e-01 8.573053e-01 9.290975e-01 9.752196e-01 1.047204e+00 1.468935e+00 1.947179e+00 1.774445e+00 7.681447e-01 9.479770e-01 1.172553e+00 9.479770e-01 7.681447e-01 1.774445e+00 1.947179e+00 1.468935e+00 1.047204e+00 9.752196e-01 9.290975e-01 8.573053e-01 8.078132e-01 6.605003e-01 5.890387e-01 5.834860e-01 6.909482e-01 8.448787e-01 
6.886250e-01 6.682539e-01 5.699702e-01 5.247300e-01 5.883426e-01 6.762781e-01 8.186394e-01 8.745876e-01 9.302181e-01 9.527838e-01 8.931239e-01 9.964599e-01 1.142068e+00 1.881247e+00 1.849280e+00 1.085160e+00 9.845765e-02 1.085160e+00 1.849280e+00 1.881247e+00 1.142068e+00 9.964599e-01 8.931239e-01 9.527838e-01 9.302181e-01 8.745876e-01 8.186394e-01 6.762781e-01 5.883426e-01 5.247300e-01 5.699702e-01 6.682539e-01 
5.040653e-01 4.967208e-01 4.513685e-01 4.604638e-01 5.541562e-01 6.472019e-01 7.637098e-01 8.094914e-01 8.302504e-01 7.949151e-01 7.344593e-01 6.570600e-01 6.076361e-01 6.171055e-01 7.455938e-01 9.405256e-01 7.138052e-01 9.405256e-01 7.455938e-01 6.171055e-01 6.076361e-01 6.570600e-01 7.344593e-01 7.949151e-01 8.302504e-01 8.094914e-01 7.637098e-01 6.472019e-01 5.541562e-01 4.604638e-01 4.513685e-01 4.967208e-01 
3.371577e-01 3.389008e-01 3.296558e-01 3.690140e-01 4.743624e-01 5.670078e-01 6.708089e-01 7.146544e-01 7.183827e-01 6.732685e-01 5.720630e-01 4.775266e-01 4.521782e-01 4.815389e-01 7.905501e-01 1.136861e+00 1.114135e+00 1.136861e+00 7.905501e-01 4.815389e-01 4.521782e-01 4.775266e-01 5.720630e-01 6.732685e-01 7.183827e-01 7.146544e-01 6.708089e-01 5.670078e-01 4.743624e-01 3.690140e-01 3.296558e-01 3.389008e-01 
2.082054e-01 2.153591e-01 2.291331e-01 2.760946e-01 3.682793e-01 4.442018e-01 5.202816e-01 5.495419e-01 5.314190e-01 4.641238e-01 3.342563e-01 1.710450e-01 3.948903e-02 2.729786e-01 6.858171e-01 1.056705e+00 1.138780e+00 1.056705e+00 6.858171e-01 2.729786e-01 3.948903e-02 1.710450e-01 3.342563e-01 4.641238e-01 5.314190e-01 5.495419e-01 5.202816e-01 4.442018e-01 3.682793e-01 2.760946e-01 2.291331e-01 2.153591e-01 
1.090031e-01 1.193966e-01 1.444928e-01 1.892647e-01 2.670919e-01 3.356753e-01 4.065580e-01 4.552863e-01 4.685472e-01 4.587479e-01 4.032314e-01 3.488233e-01 3.302655e-01 4.515303e-01 7.530793e-01 1.030001e+00 1.114902e+00 1.030001e+00 7.530793e-01 4.515303e-01 3.302655e-01 3.488233e-01 4.032314e-01 4.587479e-01 4.685472e-01 4.552863e-01 4.065580e-01 3.356753e-01 2.670919e-01 1.892647e-01 1.444928e-01 1.193966e-01 
5.152394e-02 6.023760e-02 8.059530e-02 1.066496e-01 1.622933e-01 2.334162e-01 3.213309e-01 4.292707e-01 5.247179e-01 6.252081e-01 6.944062e-01 7.443428e-01 7.656096e-01 7.605664e-01 7.827152e-01 8.169598e-01 8.365087e-01 8.169598e-01 7.827152e-01 7.605664e-01 7.656096e-01 7.443428e-01 6.944062e-01 6.252081e-01 5.247179e-01 4.292707e-01 3.213309e-01 2.334162e-01 1.622933e-01 1.066496e-01 8.059530e-02 6.023760e-02 
1.673928e-02 2.776754e-02 4.167592e-02 5.055948e-02 9.765924e-02 1.917901e-01 3.129659e-01 4.692400e-01 6.230953e-01 7.776214e-01 8.987508e-01 9.780616e-01 9.981893e-01 9.368239e-01 8.051695e-01 5.944187e-01 4.715223e-01 5.944187e-01 8.051695e-01 9.368239e-01 9.981893e-01 9.780616e-01 8.987508e-01 7.776214e-01 6.230953e-01 4.692400e-01 3.129659e-01 1.917901e-01 9.765924e-02 5.055948e-02 4.167592e-02 2.776754e-02 
