# vtk DataFile Version 2.0
Comment goes here
ASCII

DATASET STRUCTURED_POINTS
FIELD FieldData 1
TIME 1 1 double
1.36000000
DIMENSIONS    32   32   1

ORIGIN    0.000   0.000   0.000
SPACING   0.03125 0.03125   1.000

POINT_DATA   1024
SCALARS uMag double
LOOKUP_TABLE default

2.708348e-13 1.922456e-03 1.833675e-02 6.863204e-02 1.496624e-01 2.784165e-01 4.287353e-01 6.161643e-01 7.907763e-01 9.720062e-01 1.090524e+00 1.177475e+00 1.151140e+00 1.054538e+00 8.085064e-01 4.518018e-01 8.154999e-13 4.518018e-01 8.085064e-01 1.054538e+00 1.151140e+00 1.177475e+00 1.090524e+00 9.720062e-01 7.907763e-01 6.161643e-01 4.287353e-01 2.784165e-01 1.496624e-01 6.863204e-02 1.833675e-02 1.922456e-03 
1.922456e-03 1.005806e-02 3.391993e-02 8.304444e-02 1.637345e-01 2.848499e-01 4.268513e-01 5.998227e-01 7.612832e-01 9.249321e-01 1.032260e+00 1.108244e+00 1.085397e+00 1.008751e+00 8.203512e-01 5.893108e-01 4.518018e-01 5.893108e-01 8.203512e-01 1.008751e+00 1.085397e+00 1.108244e+00 1.032260e+00 9.249321e-01 7.612832e-01 5.998227e-01 4.268513e-01 2.848499e-01 1.637345e-01 8.304444e-02 3.391993e-02 1.005806e-02 
8.271737e-03 2.686769e-02 6.631776e-02 1.204282e-01 2.012750e-01 2.995792e-01 4.123149e-01 5.368076e-01 6.459933e-01 7.543248e-01 8.129087e-01 8.665931e-01 8.531497e-01 8.600408e-01 8.435531e-01 8.423232e-01 8.575934e-01 8.423232e-01 8.435531e-01 8.600408e-01 8.531497e-01 8.665931e-01 8.129087e-01 7.543248e-01 6.459933e-01 5.368076e-01 4.123149e-01 2.995792e-01 2.012750e-01 1.204282e-01 6.631776e-02 2.686769e-02 
5.037872e-02 6.195140e-02 1.048028e-01 1.727568e-01 2.666958e-01 3.563090e-01 4.489697e-01 5.194047e-01 5.691310e-01 5.938104e-01 5.886156e-01 5.913350e-01 5.834556e-01 6.782883e-01 8.609944e-01 1.060825e+00 1.165538e+00 1.060825e+00 8.609944e-01 6.782883e-01 5.834556e-01 5.913350e-01 5.886156e-01 5.938104e-01 5.691310e-01 5.194047e-01 4.489697e-01 3.563090e-01 2.666958e-01 1.727568e-01 1.048028e-01 6.195140e-02 
1.188772e-01 1.266659e-01 1.633667e-01 2.454315e-01 3.585787e-01 4.581645e-01 5.474716e-01 5.855618e-01 5.800720e-01 5.102647e-01 3.905915e-01 2.742266e-01 2.622562e-01 5.246410e-01 8.947778e-01 1.204483e+00 1.362354e+00 1.204483e+00 8.947778e-01 5.246410e-01 2.622562e-01 2.742266e-01 3.905915e-01 5.102647e-01 5.800720e-01 5.855618e-01 5.474716e-01 4.581645e-01 3.585787e-01 2.454315e-01 1.633667e-01 1.266659e-01 
2.317036e-01 2.271114e-01 2.352984e-01 3.085572e-01 4.343457e-01 5.475735e-01 6.489475e-01 6.755493e-01 6.558351e-01 5.319474e-01 3.647979e-01 1.130618e-01 1.196253e-01 3.919497e-01 8.898233e-01 1.251440e+00 1.398382e+00 1.251440e+00 8.898233e-01 3.919497e-01 1.196253e-01 1.130618e-01 3.647979e-01 5.319474e-01 6.558351e-01 6.755493e-01 6.489475e-01 5.475735e-01 4.343457e-01 3.085572e-01 2.352984e-01 2.271114e-01 
3.649522e-01 3.483782e-01 3.176237e-01 3.691640e-01 5.000269e-01 6.370009e-01 7.577463e-01 8.020638e-01 7.820699e-01 6.609898e-01 4.596657e-01 1.740686e-01 3.344235e-01 5.325501e-01 9.900054e-01 1.180623e+00 1.250470e+00 1.180623e+00 9.900054e-01 5.325501e-01 3.344235e-01 1.740686e-01 4.596657e-01 6.609898e-01 7.820699e-01 8.020638e-01 7.577463e-01 6.370009e-01 5.000269e-01 3.691640e-01 3.176237e-01 3.483782e-01 
5.308768e-01 4.946964e-01 4.141512e-01 4.081413e-01 5.242791e-01 6.739231e-01 8.192196e-01 8.676081e-01 8.596042e-01 7.028423e-01 4.445898e-01 1.081966e-01 2.401885e-01 4.362732e-01 1.107579e+00 1.101729e+00 9.688282e-01 1.101729e+00 1.107579e+00 4.362732e-01 2.401885e-01 1.081966e-01 4.445898e-01 7.028423e-01 8.596042e-01 8.676081e-01 8.192196e-01 6.739231e-01 5.242791e-01 4.081413e-01 4.141512e-01 4.946964e-01 
6.924652e-01 6.393380e-01 5.001940e-01 4.242380e-01 5.087874e-01 6.814301e-01 8.572118e-01 9.422871e-01 9.532509e-01 8.888733e-01 5.853668e-01 2.899468e-01 5.964528e-01 1.324951e+00 1.327468e+00 5.568433e-01 4.186155e-01 5.568433e-01 1.327468e+00 1.324951e+00 5.964528e-01 2.899468e-01 5.853668e-01 8.888733e-01 9.532509e-01 9.422871e-01 8.572118e-01 6.814301e-01 5.087874e-01 4.242380e-01 5.001940e-01 6.393380e-01 
8.562274e-01 7.805199e-01 5.899724e-01 4.182994e-01 4.477259e-01 6.420836e-01 8.660867e-01 9.901182e-01 1.095995e+00 1.028179e+00 3.778644e-01 7.390454e-01 1.022868e+00 6.683204e-01 3.800063e-01 3.542671e-01 6.021909e-01 3.542671e-01 3.800063e-01 6.683204e-01 1.022868e+00 7.390454e-01 3.778644e-01 1.028179e+00 1.095995e+00 9.901182e-01 8.660867e-01 6.420836e-01 4.477259e-01 4.182994e-01 5.899724e-01 7.805199e-01 
9.806757e-01 8.909034e-01 6.513279e-01 3.895803e-01 3.405400e-01 5.644102e-01 8.468252e-01 9.656211e-01 1.109738e+00 1.108812e+00 3.473186e-01 4.518063e-01 1.562182e-01 4.219281e-01 5.535955e-01 9.197475e-01 9.045253e-01 9.197475e-01 5.535955e-01 4.219281e-01 1.562182e-01 4.518063e-01 3.473186e-01 1.108812e+00 1.109738e+00 9.656211e-01 8.468252e-01 5.644102e-01 3.405400e-01 3.895803e-01 6.513279e-01 8.909034e-01 
1.066733e+00 9.634416e-01 7.039480e-01 3.610042e-01 1.813829e-01 4.646726e-01 7.812620e-01 1.004920e+00 1.520355e+00 1.194996e+00 3.185533e-01 4.455891e-01 4.861750e-01 1.018913e+00 1.304943e+00 6.607715e-01 4.254784e-02 6.607715e-01 1.304943e+00 1.018913e+00 4.861750e-01 4.455891e-01 3.185533e-01 1.194996e+00 1.520355e+00 1.004920e+00 7.812620e-01 4.646726e-01 1.813829e-01 3.610042e-01 7.039480e-01 9.634416e-01 
1.075791e+00 9.732905e-01 7.245131e-01 3.615780e-01 2.419754e-02 3.613224e-01 7.563294e-01 9.989710e-01 1.668120e+00 1.051443e+00 8.493792e-01 7.396227e-01 8.064422e-01 7.144932e-01 4.000086e-01 6.182988e-02 2.465186e-01 6.182988e-02 4.000086e-01 7.144932e-01 8.064422e-01 7.396227e-01 8.493792e-01 1.051443e+00 1.668120e+00 9.989710e-01 7.563294e-01 3.613224e-01 2.419754e-02 3.615780e-01 7.245131e-01 9.732905e-01 
9.920524e-01 9.109736e-01 7.385626e-01 4.685681e-01 3.098582e-01 2.794294e-01 5.148213e-01 1.153143e+00 2.278298e+00 4.534694e-01 1.322074e+00 2.260352e-01 2.911203e-01 2.858048e-01 3.894798e-01 1.508144e-01 3.963177e-02 1.508144e-01 3.894798e-01 2.858048e-01 2.911203e-01 2.260352e-01 1.322074e+00 4.534694e-01 2.278298e+00 1.153143e+00 5.148213e-01 2.794294e-01 3.098582e-01 4.685681e-01 7.385626e-01 9.109736e-01 
7.901782e-01 7.652245e-01 7.660545e-01 7.245814e-01 7.175546e-01 6.761158e-01 6.087105e-01 1.413829e+00 1.998125e+00 1.267601e+00 7.405845e-01 3.548239e-01 3.471712e-01 2.415540e-01 2.405954e-01 6.229681e-02 6.379422e-03 6.229681e-02 2.405954e-01 2.415540e-01 3.471712e-01 3.548239e-01 7.405845e-01 1.267601e+00 1.998125e+00 1.413829e+00 6.087105e-01 6.761158e-01 7.175546e-01 7.245814e-01 7.660545e-01 7.652245e-01 
4.375363e-01 5.593519e-01 7.813387e-01 9.882621e-01 1.037852e+00 1.153702e+00 8.559912e-01 1.369180e+00 9.332124e-01 1.202100e+00 1.745547e-01 6.679798e-01 3.361636e-01 2.850585e-01 2.036079e-01 7.839836e-02 6.647692e-02 7.839836e-02 2.036079e-01 2.850585e-01 3.361636e-01 6.679798e-01 1.745547e-01 1.202100e+00 9.332124e-01 1.369180e+00 8.559912e-01 1.153702e+00 1.037852e+00 9.882621e-01 7.813387e-01 5.593519e-01 
9.518179e-13 4.375363e-01 7.919071e-01 1.075638e+00 1.146704e+00 1.255576e+00 8.688254e-01 8.863288e-01 1.106454e+00 6.400748e-01 2.685582e-01 9.390799e-01 4.732852e-01 4.684225e-01 1.566669e-01 6.647692e-02 1.058572e-13 6.647692e-02 1.566669e-01 4.684225e-01 4.732852e-01 9.390799e-01 2.685582e-01 6.400748e-01 1.106454e+00 8.863288e-01 8.688254e-01 1.255576e+00 1.146704e+00 1.075638e+00 7.919071e-01 4.375363e-01 
4.375363e-01 5.593519e-01 7.813387e-01 9.882621e-01 1.037852e+00 1.153702e+00 8.559912e-01 1.369180e+00 9.332124e-01 1.202100e+00 1.745547e-01 6.679798e-01 3.361636e-01 2.850585e-01 2.036079e-01 7.839836e-02 6.647692e-02 7.839836e-02 2.036079e-01 2.850585e-01 3.361636e-01 6.679798e-01 1.745547e-01 1.202100e+00 9.332124e-01 1.369180e+00 8.559912e-01 1.153702e+00 1.037852e+00 9.882621e-01 7.813387e-01 5.593519e-01 
7.901782e-01 7.652245e-01 7.660545e-01 7.245814e-01 7.175546e-01 6.761158e-01 6.087105e-01 1.413829e+00 1.998125e+00 1.267601e+00 7.405845e-01 3.548239e-01 3.471712e-01 2.415540e-01 2.405954e-01 6.229681e-02 6.379422e-03 6.229681e-02 2.405954e-01 2.415540e-01 3.471712e-01 3.548239e-01 7.405845e-01 1.267601e+00 1.998125e+00 1.413829e+00 6.087105e-01 6.761158e-01 7.175546e-01 7.245814e-01 7.660545e-01 7.652245e-01 
9.920524e-01 9.109736e-01 7.385626e-01 4.685681e-01 3.098582e-01 2.794294e-01 5.148213e-01 1.153143e+00 2.278298e+00 4.534694e-01 1.322074e+00 2.260352e-01 2.911203e-01 2.858048e-01 3.894798e-01 1.508144e-01 3.963177e-02 1.508144e-01 3.894798e-01 2.858048e-01 2.911203e-01 2.260352e-01 1.322074e+00 4.534694e-01 2.278298e+00 1.153143e+00 5.148213e-01 2.794294e-01 3.098582e-01 4.685681e-01 7.385626e-01 9.109736e-01 
1.075791e+00 9.732905e-01 7.245131e-01 3.615780e-01 2.419754e-02 3.613224e-01 7.563294e-01 9.989710e-01 1.668120e+00 1.051443e+00 8.493792e-01 7.396227e-01 8.064422e-01 7.144932e-01 4.000086e-01 6.182988e-02 2.465186e-01 6.182988e-02 4.000086e-01 7.144932e-01 8.064422e-01 7.396227e-01 8.493792e-01 1.051443e+00 1.668120e+00 9.989710e-01 7.563294e-01 3.613224e-01 2.419754e-02 3.615780e-01 7.245131e-01 9.732905e-01 
1.066733e+00 9.634416e-01 7.039480e-01 3.610042e-01 1.813829e-01 4.646726e-01 7.812620e-01 1.004920e+00 1.520355e+00 1.194996e+00 3.185533e-01 4.455891e-01 4.861750e-01 1.018913e+00 1.304943e+00 6.607715e-01 4.254784e-02 6.607715e-01 1.304943e+00 1.018913e+00 4.861750e-01 4.455891e-01 3.185533e-01 1.194996e+00 1.520355e+00 1.004920e+00 7.812620e-01 4.646726e-01 1.813829e-01 3.610042e-01 7.039480e-01 9.634416e-01 
9.806757e-01 8.909034e-01 6.513279e-01 3.895803e-01 3.405400e-01 5.644102e-01 8.468252e-01 9.656211e-01 1.109738e+00 1.108812e+00 3.473186e-01 4.518063e-01 1.562182e-01 4.219281e-01 5.535955e-01 9.197475e-01 9.045253e-01 9.197475e-01 5.535955e-01 4.219281e-01 1.562182e-01 4.518063e-01 3.473186e-01 1.108812e+00 1.109738e+00 9.656211e-01 8.468252e-01 5.644102e-01 3.405400e-01 3.895803e-01 6.513279e-01 8.909034e-01 
8.562274e-01 7.805199e-01 5.899724e-01 4.182994e-01 4.477259e-01 6.420836e-01 8.660867e-01 9.901182e-01 1.095995e+00 1.028179e+00 3.778644e-01 7.390454e-01 1.022868e+00 6.683204e-01 3.800063e-01 3.542671e-01 6.021909e-01 3.542671e-01 3.800063e-01 6.683204e-01 1.022868e+00 7.390454e-01 3.778644e-01 1.028179e+00 1.095995e+00 9.901182e-01 8.660867e-01 6.420836e-01 4.477259e-01 4.182994e-01 5.899724e-01 7.805199e-01 
6.924652e-01 6.393380e-01 5.001940e-01 