# vtk DataFile Version 2.0
Comment goes here
ASCII

DATASET STRUCTURED_POINTS
FIELD FieldData 1
TIME 1 1 double
0.82000000
DIMENSIONS    32   32   1

ORIGIN    0.000   0.000   0.000
SPACING   0.03125 0.03125   1.000

POINT_DATA   1024
SCALARS uMag double
LOOKUP_TABLE default

3.152175e-15 4.533287e-02 7.866654e-02 9.010851e-02 7.081414e-02 1.244489e-02 8.540463e-02 2.294402e-01 3.986978e-01 5.973496e-01 7.800082e-01 9.547974e-01 1.045717e+00 1.046411e+00 8.663855e-01 4.997521e-01 1.183515e-14 4.997521e-01 8.663855e-01 1.046411e+00 1.045717e+00 9.547974e-01 7.800082e-01 5.973496e-01 3.986978e-01 2.294402e-01 8.540463e-02 1.244489e-02 7.081414e-02 9.010851e-02 7.866654e-02 4.533287e-02 
4.533287e-02 6.279987e-02 8.841446e-02 1.009411e-01 9.407939e-02 8.522462e-02 1.329834e-01 2.447150e-01 3.907994e-01 5.646321e-01 7.230330e-01 8.790069e-01 9.509879e-01 9.655377e-01 8.278498e-01 6.200370e-01 4.997521e-01 6.200370e-01 8.278498e-01 9.655377e-01 9.509879e-01 8.790069e-01 7.230330e-01 5.646321e-01 3.907994e-01 2.447150e-01 1.329834e-01 8.522462e-02 9.407939e-02 1.009411e-01 8.841446e-02 6.279987e-02 
9.791257e-02 1.083686e-01 1.311487e-01 1.544810e-01 1.745271e-01 1.982126e-01 2.392104e-01 2.895767e-01 3.556360e-01 4.157830e-01 4.682805e-01 5.105095e-01 5.214220e-01 5.863498e-01 7.228073e-01 8.425591e-01 8.872203e-01 8.425591e-01 7.228073e-01 5.863498e-01 5.214220e-01 5.105095e-01 4.682805e-01 4.157830e-01 3.556360e-01 2.895767e-01 2.392104e-01 1.982126e-01 1.745271e-01 1.544810e-01 1.311487e-01 1.083686e-01 
1.784171e-01 1.832232e-01 1.981404e-01 2.233837e-01 2.546460e-01 2.985433e-01 3.531825e-01 4.011902e-01 4.423491e-01 4.388072e-01 4.132858e-01 3.236015e-01 1.944505e-01 2.412112e-01 5.556357e-01 9.444494e-01 1.129925e+00 9.444494e-01 5.556357e-01 2.412112e-01 1.944505e-01 3.236015e-01 4.132858e-01 4.388072e-01 4.423491e-01 4.011902e-01 3.531825e-01 2.985433e-01 2.546460e-01 2.233837e-01 1.981404e-01 1.832232e-01 
2.772852e-01 2.779385e-01 2.891525e-01 3.176880e-01 3.607824e-01 4.255767e-01 5.036842e-01 5.815791e-01 6.602027e-01 6.989979e-01 7.340114e-01 6.699187e-01 6.090844e-01 4.361629e-01 6.557148e-01 9.776314e-01 1.115056e+00 9.776314e-01 6.557148e-01 4.361629e-01 6.090844e-01 6.699187e-01 7.340114e-01 6.989979e-01 6.602027e-01 5.815791e-01 5.036842e-01 4.255767e-01 3.607824e-01 3.176880e-01 2.891525e-01 2.779385e-01 
4.208351e-01 4.138824e-01 4.103196e-01 4.271894e-01 4.625019e-01 5.301732e-01 6.097088e-01 7.053234e-01 8.083213e-01 9.028279e-01 9.847465e-01 9.594069e-01 9.358634e-01 8.209583e-01 9.621690e-01 1.098022e+00 1.104162e+00 1.098022e+00 9.621690e-01 8.209583e-01 9.358634e-01 9.594069e-01 9.847465e-01 9.028279e-01 8.083213e-01 7.053234e-01 6.097088e-01 5.301732e-01 4.625019e-01 4.271894e-01 4.103196e-01 4.138824e-01 
5.859938e-01 5.661959e-01 5.404106e-01 5.345261e-01 5.562967e-01 6.209651e-01 6.991315e-01 8.076110e-01 9.419724e-01 1.115153e+00 1.290438e+00 1.467119e+00 1.986357e+00 2.608662e+00 2.695251e+00 1.471396e+00 5.142409e-01 1.471396e+00 2.695251e+00 2.608662e+00 1.986357e+00 1.467119e+00 1.290438e+00 1.115153e+00 9.419724e-01 8.076110e-01 6.991315e-01 6.209651e-01 5.562967e-01 5.345261e-01 5.404106e-01 5.661959e-01 
7.919922e-01 7.546688e-01 6.915063e-01 6.439014e-01 6.327481e-01 6.829424e-01 7.464102e-01 8.613443e-01 1.030609e+00 1.315135e+00 1.581410e+00 2.283275e+00 2.848312e+00 2.205299e+00 1.314090e+00 1.879004e+00 1.838329e+00 1.879004e+00 1.314090e+00 2.205299e+00 2.848312e+00 2.283275e+00 1.581410e+00 1.315135e+00 1.030609e+00 8.613443e-01 7.464102e-01 6.829424e-01 6.327481e-01 6.439014e-01 6.915063e-01 7.546688e-01 
1.003850e+00 9.414368e-01 8.291815e-01 7.162645e-01 6.549567e-01 6.759735e-01 7.107802e-01 8.052885e-01 1.025829e+00 1.268162e+00 1.360673e+00 1.352728e+00 4.976735e-01 2.178387e+00 2.102951e+00 1.033727e+00 4.106372e-01 1.033727e+00 2.102951e+00 2.178387e+00 4.976735e-01 1.352728e+00 1.360673e+00 1.268162e+00 1.025829e+00 8.052885e-01 7.107802e-01 6.759735e-01 6.549567e-01 7.162645e-01 8.291815e-01 9.414368e-01 
1.221516e+00 1.132879e+00 9.625374e-01 7.667215e-01 6.322315e-01 6.137161e-01 6.026304e-01 6.825814e-01 9.422916e-01 5.789365e-01 2.543148e-01 8.018069e-01 1.856901e+00 1.396827e+00 3.737232e-01 5.121720e-01 5.174847e-01 5.121720e-01 3.737232e-01 1.396827e+00 1.856901e+00 8.018069e-01 2.543148e-01 5.789365e-01 9.422916e-01 6.825814e-01 6.026304e-01 6.137161e-01 6.322315e-01 7.667215e-01 9.625374e-01 1.132879e+00 
1.403079e+00 1.286256e+00 1.061698e+00 7.643643e-01 5.369746e-01 4.618174e-01 3.624366e-01 5.041381e-01 2.841430e-01 7.230692e-01 5.271686e-01 7.538201e-01 1.113180e+00 7.273894e-01 5.663377e-01 7.958435e-01 8.205593e-01 7.958435e-01 5.663377e-01 7.273894e-01 1.113180e+00 7.538201e-01 5.271686e-01 7.230692e-01 2.841430e-01 5.041381e-01 3.624366e-01 4.618174e-01 5.369746e-01 7.643643e-01 1.061698e+00 1.286256e+00 
1.530027e+00 1.395351e+00 1.132432e+00 7.406344e-01 4.218912e-01 2.577432e-01 4.553778e-02 2.246901e-01 8.714696e-01 9.967834e-01 1.429086e-01 1.209114e+00 1.091098e+00 4.184004e-01 4.521078e-01 6.781523e-01 7.952210e-01 6.781523e-01 4.521078e-01 4.184004e-01 1.091098e+00 1.209114e+00 1.429086e-01 9.967834e-01 8.714696e-01 2.246901e-01 4.553778e-02 2.577432e-01 4.218912e-01 7.406344e-01 1.132432e+00 1.395351e+00 
1.563952e+00 1.423861e+00 1.163799e+00 7.103818e-01 3.778490e-01 6.919348e-02 3.252459e-01 3.842985e-01 1.660930e+00 5.219212e-01 4.178885e-01 1.572202e+00 5.916727e-01 4.973422e-01 4.673018e-01 6.078018e-01 6.444741e-01 6.078018e-01 4.673018e-01 4.973422e-01 5.916727e-01 1.572202e+00 4.178885e-01 5.219212e-01 1.660930e+00 3.842985e-01 3.252459e-01 6.919348e-02 3.778490e-01 7.103818e-01 1.163799e+00 1.423861e+00 
1.473273e+00 1.359343e+00 1.156280e+00 7.783519e-01 5.478125e-01 5.046782e-01 6.393768e-01 1.197141e+00 1.540654e+00 6.847087e-01 1.031158e+00 1.371009e+00 4.599551e-01 5.520317e-01 3.847206e-01 4.310900e-01 3.833054e-01 4.310900e-01 3.847206e-01 5.520317e-01 4.599551e-01 1.371009e+00 1.031158e+00 6.847087e-01 1.540654e+00 1.197141e+00 6.393768e-01 5.046782e-01 5.478125e-01 7.783519e-01 1.156280e+00 1.359343e+00 
1.213547e+00 1.179308e+00 1.157672e+00 1.086108e+00 1.052660e+00 1.198568e+00 1.178373e+00 1.695064e+00 9.199285e-01 8.849049e-01 1.355290e+00 9.111202e-01 4.703303e-01 3.693466e-01 2.953215e-01 2.784632e-01 2.135187e-01 2.784632e-01 2.953215e-01 3.693466e-01 4.703303e-01 9.111202e-01 1.355290e+00 8.849049e-01 9.199285e-01 1.695064e+00 1.178373e+00 1.198568e+00 1.052660e+00 1.086108e+00 1.157672e+00 1.179308e+00 
7.371515e-01 9.136331e-01 1.256031e+00 1.587222e+00 1.705430e+00 1.841211e+00 1.530261e+00 1.589845e+00 5.643751e-01 1.027184e+00 1.263925e+00 4.161278e-01 3.961745e-01 1.951770e-01 2.309496e-01 1.389606e-01 7.210345e-02 1.389606e-01 2.309496e-01 1.951770e-01 3.961745e-01 4.161278e-01 1.263925e+00 1.027184e+00 5.643751e-01 1.589845e+00 1.530261e+00 1.841211e+00 1.705430e+00 1.587222e+00 1.256031e+00 9.136331e-01 
2.591722e-14 7.371515e-01 1.366092e+00 1.872608e+00 2.008137e+00 2.024430e+00 1.522745e+00 1.384148e+00 5.369202e-01 1.099669e+00 1.044923e+00 5.303136e-03 2.945914e-01 7.761594e-02 1.779044e-01 7.210345e-02 9.804999e-15 7.210345e-02 1.779044e-01 7.761594e-02 2.945914e-01 5.303136e-03 1.044923e+00 1.099669e+00 5.369202e-01 1.384148e+00 1.522745e+00 2.024430e+00 2.008137e+00 1.872608e+00 1.366092e+00 7.371515e-01 
7.371515e-01 9.136331e-01 1.256031e+00 1.587222e+00 1.705430e+00 1.841211e+00 1.530261e+00 1.589845e+00 5.643751e-01 1.027184e+00 1.263925e+00 4.161278e-01 3.961745e-01 1.951770e-01 2.309496e-01 1.389606e-01 7.210345e-02 1.389606e-01 2.309496e-01 1.951770e-01 3.961745e-01 4.161278e-01 1.263925e+00 1.027184e+00 5.643751e-01 1.589845e+00 1.530261e+00 1.841211e+00 1.705430e+00 1.587222e+00 1.256031e+00 9.136331e-01 
1.213547e+00 1.179308e+00 1.157672e+00 1.086108e+00 1.052660e+00 1.198568e+00 1.178373e+00 1.695064e+00 9.199285e-01 8.849049e-01 1.355290e+00 9.111202e-01 4.703303e-01 3.693466e-01 2.953215e-01 2.784632e-01 2.135187e-01 2.784632e-01 2.953215e-01 3.693466e-01 4.703303e-01 9.111202e-01 1.355290e+00 8.849049e-01 9.199285e-01 1.695064e+00 1.178373e+00 1.198568e+00 1.052660e+00 1.086108e+00 1.157672e+00 1.179308e+00 
1.473273e+00 1.359343e+00 1.156280e+00 7.783519e-01 5.478125e-01 5.046782e-01 6.393768e-01 1.197141e+00 1.540654e+00 6.847087e-01 1.031158e+00 1.371009e+00 4.599551e-01 5.520317e-01 3.847206e-01 4.310900e-01 3.833054e-01 4.310900e-01 3.847206e-01 5.520317e-01 4.599551e-01 1.371009e+00 1.031158e+00 6.847087e-01 1.540654e+00 1.197141e+00 6.393768e-01 5.046782e-01 5.478125e-01 7.783519e-01 1.156280e+00 1.359343e+00 
1.563952e+00 1.423861e+00 1.163799e+00 7.103818e-01 3.778490e-01 6.919348e-02 3.252459e-01 3.842985e-01 1.660930e+00 5.219212e-01 4.178885e-01 1.572202e+00 5.916727e-01 4.973422e-01 4.673018e-01 6.078018e-01 6.444741e-01 6.078018e-01 4.673018e-01 4.973422e-01 5.916727e-01 1.572202e+00 4.178885e-01 5.219212e-01 1.660930e+00 3.842985e-01 3.252459e-01 6.919348e-02 3.778490e-01 7.103818e-01 1.163799e+00 1.423861e+00 
1.530027e+00 1.395351e+00 1.132432e+00 7.406344e-01 4.218912e-01 2.577432e-01 4.553778e-02 2.246901e-01 8.714696e-01 9.967834e-01 1.429086e-01 1.209114e+00 1.091098e+00 4.184004e-01 4.521078e-01 6.781523e-01 7.952210e-01 6.781523e-01 4.521078e-01 4.184004e-01 1.091098e+00 1.209114e+00 1.429086e-01 9.967834e-01 8.714696e-01 2.246901e-01 4.553778e-02 2.577432e-01 4.218912e-01 7.406344e-01 1.132432e+00 1.395351e+00 
1.403079e+00 1.286256e+00 1.061698e+00 7.643643e-01 5.369746e-01 4.618174e-01 3.624366e-01 5.041381e-01 2.841430e-01 7.230692e-01 5.271686e-01 7.538201e-01 1.113180e+00 7.273894e-01 5.663377e-01 7.958435e-01 8.205593e-01 7.958435e-01 5.663377e-01 7.273894e-01 1.113180e+00 7.538201e-01 5.271686e-01 7.230692e-01 2.841430e-01 5.041381e-01 3.624366e-01 4.618174e-01 5.369746e-01 7.643643e-01 1.061698e+00 1.286256e+00 
1.221516e+00 1.132879e+00 9.625374e-01 7.667215e-01 6.322315e-01 6.137161e-01 6.026304e-01 6.825814e-01 9.422916e-01 5.789365e-01 2.543148e-01 8.018069e-01 1.856901e+00 1.396827e+00 3.737232e-01 5.121720e-01 5.174847e-01 5.121720e-01 3.737232e-01 1.396827e+00 1.856901e+00 8.018069e-01 2.543148e-01 5.789365e-01 9.422916e-01 6.825814e-01 6.026304e-01 6.137161e-01 6.322315e-01 7.667215e-01 9.625374e-01 1.132879e+00 
1.003850e+00 9.414368e-01 8.291815e-01 7.162645e-01 6.549567e-01 6.759735e-01 7.107802e-01 8.052885e-01 1.025829e+00 1.268162e+00 1.360673e+00 1.352728e+00 4.976735e-01 2.178387e+00 2.102951e+00 1.033727e+00 4.106372e-01 1.033727e+00 2.102951e+00 2.178387e+00 4.976735e-01 1.352728e+00 1.360673e+00 1.268162e+00 1.025829e+00 8.052885e-01 7.107802e-01 6.759735e-01 6.549567e-01 7.162645e-01 8.291815e-01 9.414368e-01 
7.919922e-01 7.546688e-01 6.915063e-01 6.439014e-01 6.327481e-01 6.829424e-01 7.464102e-01 8.613443e-01 1.030609e+00 1.315135e+00 1.581410e+00 2.283275e+00 2.848312e+00 2.205299e+00 1.314090e+00 1.879004e+00 1.838329e+00 1.879004e+00 1.314090e+00 2.205299e+00 2.848312e+00 2.283275e+00 1.581410e+00 1.315135e+00 1.030609e+00 8.613443e-01 7.464102e-01 6.829424e-01 6.327481e-01 6.439014e-01 6.915063e-01 7.546688e-01 
5.859938e-01 5.661959e-01 5.404106e-01 5.345261e-01 5.562967e-01 6.209651e-01 6.991315e-01 8.076110e-01 9.419724e-01 1.115153e+00 1.290438e+00 1.467119e+00 1.986357e+00 2.608662e+00 2.695251e+00 1.471396e+00 5.142409e-01 1.471396e+00 2.695251e+00 2.608662e+00 1.986357e+00 1.467119e+00 1.290438e+00 1.115153e+00 9.419724e-01 8.076110e-01 6.991315e-01 6.209651e-01 5.562967e-01 5.345261e-01 5.404106e-01 5.661959e-01 
4.208351e-01 4.138824e-01 4.103196e-01 4.271894e-01 4.625019e-01 5.301732e-01 6.097088e-01 7.053234e-01 8.083213e-01 9.028279e-01 9.847465e-01 9.594069e-01 9.358634e-01 8.209583e-01 9.621690e-01 1.098022e+00 1.104162e+00 1.098022e+00 9.621690e-01 8.209583e-01 9.358634e-01 9.594069e-01 9.847465e-01 9.028279e-01 8.083213e-01 7.053234e-01 6.097088e-01 5.301732e-01 4.625019e-01 4.271894e-01 4.103196e-01 4.138824e-01 
2.772852e-01 2.779385e-01 2.891525e-01 3.176880e-01 3.607824e-01 4.255767e-01 5.036842e-01 5.815791e-01 6.602027e-01 6.989979e-01 7.340114e-01 6.699187e-01 6.090844e-01 4.361629e-01 6.557148e-01 9.776314e-01 1.115056e+00 9.776314e-01 6.557148e-01 4.361629e-01 6.090844e-01 6.699187e-01 7.340114e-01 6.989979e-01 6.602027e-01 5.815791e-01 5.036842e-01 4.255767e-01 3.607824e-01 3.176880e-01 2.891525e-01 2.779385e-01 
1.784171e-01 1.832232e-01 1.981404e-01 2.233837e-01 2.546460e-01 2.985433e-01 3.531825e-01 4.011902e-01 4.423491e-01 4.388072e-01 4.132858e-01 3.236015e-01 1.944505e-01 2.412112e-01 5.556357e-01 9.444494e-01 1.129925e+00 9.444494e-01 5.556357e-01 2.412112e-01 1.944505e-01 3.236015e-01 4.132858e-01 4.388072e-01 4.423491e-01 4.011902e-01 3.531825e-01 2.985433e-01 2.546460e-01 2.233837e-01 1.981404e-01 1.832232e-01 
9.791257e-02 1.083686e-01 1.311487e-01 1.544810e-01 1.745271e-01 1.982126e-01 2.392104e-01 2.895767e-01 3.556360e-01 4.157830e-01 4.682805e-01 5.105095e-01 5.214220e-01 5.863498e-01 7.228073e-01 8.425591e-01 8.872203e-01 8.425591e-01 7.228073e-01 5.863498e-01 5.214220e-01 5.105095e-01 4.682805e-01 4.157830e-01 3.556360e-01 2.895767e-01 2.392104e-01 1.982126e-01 1.745271e-01 1.544810e-01 1.311487e-01 1.083686e-01 
4.533287e-02 6.279987e-02 8.841446e-02 1.009411e-01 9.407939e-02 8.522462e-02 1.329834e-01 2.447150e-01 3.907994e-01 5.646321e-01 7.230330e-01 8.790069e-01 9.509879e-01 9.655377e-01 8.278498e-01 6.200370e-01 4.997521e-01 6.200370e-01 8.278498e-01 9.655377e-01 9.509879e-01 8.790069e-01 7.230330e-01 5.646321e-01 3.907994e-01 2.447150e-01 1.329834e-01 8.522462e-02 9.407939e-02 1.009411e-01 8.841446e-02 6.279987e-02 
