# vtk DataFile Version 2.0
Comment goes here
ASCII

DATASET STRUCTURED_POINTS
FIELD FieldData 1
TIME 1 1 double
0.54000000
DIMENSIONS    32   32   1

ORIGIN    0.000   0.000   0.000
SPACING   0.03125 0.03125   1.000

POINT_DATA   1024
SCALARS uMag double
LOOKUP_TABLE default

4.590339e-15 8.796299e-02 1.717596e-01 2.381661e-01 2.946200e-01 3.129541e-01 3.186615e-01 2.528084e-01 1.774577e-01 1.161434e-02 1.747502e-01 4.535381e-01 6.137750e-01 7.858136e-01 7.327136e-01 5.315935e-01 7.739498e-15 5.315935e-01 7.327136e-01 7.858136e-01 6.137750e-01 4.535381e-01 1.747502e-01 1.161434e-02 1.774577e-01 2.528084e-01 3.186615e-01 3.129541e-01 2.946200e-01 2.381661e-01 1.717596e-01 8.796299e-02 
8.796299e-02 1.245292e-01 1.914256e-01 2.525645e-01 3.064102e-01 3.276175e-01 3.403382e-01 2.933256e-01 2.581332e-01 1.834378e-01 2.415624e-01 4.275499e-01 5.588762e-01 7.253851e-01 7.073931e-01 6.369548e-01 5.315935e-01 6.369548e-01 7.073931e-01 7.253851e-01 5.588762e-01 4.275499e-01 2.415624e-01 1.834378e-01 2.581332e-01 2.933256e-01 3.403382e-01 3.276175e-01 3.064102e-01 2.525645e-01 1.914256e-01 1.245292e-01 
1.803573e-01 2.024282e-01 2.485430e-01 3.019871e-01 3.516083e-01 3.826474e-01 4.127043e-01 4.060496e-01 4.336299e-01 4.043396e-01 4.495468e-01 4.410835e-01 4.057631e-01 4.474306e-01 5.468370e-01 8.290077e-01 1.042102e+00 8.290077e-01 5.468370e-01 4.474306e-01 4.057631e-01 4.410835e-01 4.495468e-01 4.043396e-01 4.336299e-01 4.060496e-01 4.127043e-01 3.826474e-01 3.516083e-01 3.019871e-01 2.485430e-01 2.024282e-01 
2.876992e-01 3.023705e-01 3.319248e-01 3.750404e-01 4.173715e-01 4.576306e-01 5.019458e-01 5.341583e-01 6.065881e-01 6.197722e-01 7.173315e-01 6.446835e-01 5.446489e-01 3.835480e-01 2.910841e-01 9.216816e-01 1.432716e+00 9.216816e-01 2.910841e-01 3.835480e-01 5.446489e-01 6.446835e-01 7.173315e-01 6.197722e-01 6.065881e-01 5.341583e-01 5.019458e-01 4.576306e-01 4.173715e-01 3.750404e-01 3.319248e-01 3.023705e-01 
4.070200e-01 4.177708e-01 4.364816e-01 4.723663e-01 5.078906e-01 5.575374e-01 6.084706e-01 6.771611e-01 7.733231e-01 8.437375e-01 1.036094e+00 9.958139e-01 1.054782e+00 8.123249e-01 2.041865e-01 9.772834e-01 1.623969e+00 9.772834e-01 2.041865e-01 8.123249e-01 1.054782e+00 9.958139e-01 1.036094e+00 8.437375e-01 7.733231e-01 6.771611e-01 6.084706e-01 5.575374e-01 5.078906e-01 4.723663e-01 4.364816e-01 4.177708e-01 
5.547055e-01 5.591584e-01 5.646269e-01 5.860168e-01 6.111568e-01 6.625460e-01 7.183383e-01 8.203377e-01 9.295357e-01 1.064824e+00 1.329106e+00 1.219904e+00 1.270224e+00 1.195452e+00 1.000090e+00 1.148861e+00 1.220978e+00 1.148861e+00 1.000090e+00 1.195452e+00 1.270224e+00 1.219904e+00 1.329106e+00 1.064824e+00 9.295357e-01 8.203377e-01 7.183383e-01 6.625460e-01 6.111568e-01 5.860168e-01 5.646269e-01 5.591584e-01 
7.185006e-01 7.161700e-01 7.060198e-01 7.113769e-01 7.253499e-01 7.770363e-01 8.331068e-01 9.633734e-01 1.052002e+00 1.263568e+00 1.448644e+00 1.385421e+00 1.872074e+00 2.177193e+00 2.296698e+00 1.422684e+00 2.420244e-01 1.422684e+00 2.296698e+00 2.177193e+00 1.872074e+00 1.385421e+00 1.448644e+00 1.263568e+00 1.052002e+00 9.633734e-01 8.331068e-01 7.770363e-01 7.253499e-01 7.113769e-01 7.060198e-01 7.161700e-01 
9.194117e-01 9.039099e-01 8.661343e-01 8.369522e-01 8.297625e-01 8.653933e-01 9.355606e-01 1.083014e+00 1.228759e+00 1.425807e+00 1.680696e+00 2.039770e+00 2.377652e+00 2.201219e+00 1.666110e+00 1.671844e+00 1.623780e+00 1.671844e+00 1.666110e+00 2.201219e+00 2.377652e+00 2.039770e+00 1.680696e+00 1.425807e+00 1.228759e+00 1.083014e+00 9.355606e-01 8.653933e-01 8.297625e-01 8.369522e-01 8.661343e-01 9.039099e-01 
1.125788e+00 1.094436e+00 1.017693e+00 9.457411e-01 9.145772e-01 9.432761e-01 1.050175e+00 1.246977e+00 1.313005e+00 1.336653e+00 1.204411e+00 1.403019e+00 9.260407e-01 1.791468e+00 1.709552e+00 1.393304e+00 1.076283e+00 1.393304e+00 1.709552e+00 1.791468e+00 9.260407e-01 1.403019e+00 1.204411e+00 1.336653e+00 1.313005e+00 1.246977e+00 1.050175e+00 9.432761e-01 9.145772e-01 9.457411e-01 1.017693e+00 1.094436e+00 
1.354942e+00 1.301447e+00 1.167328e+00 1.027712e+00 9.494716e-01 9.581285e-01 1.107961e+00 1.179060e+00 7.317002e-01 3.651578e-01 6.935808e-01 1.323364e+00 1.899526e+00 1.375399e+00 9.915376e-01 9.976001e-01 8.417065e-01 9.976001e-01 9.915376e-01 1.375399e+00 1.899526e+00 1.323364e+00 6.935808e-01 3.651578e-01 7.317002e-01 1.179060e+00 1.107961e+00 9.581285e-01 9.494716e-01 1.027712e+00 1.167328e+00 1.301447e+00 
1.542528e+00 1.464951e+00 1.261798e+00 1.043424e+00 9.138884e-01 9.155758e-01 1.070587e+00 4.519199e-01 5.982967e-01 8.487765e-01 1.303864e+00 1.406330e+00 9.082641e-01 6.002993e-01 9.131130e-01 1.309316e+00 1.305643e+00 1.309316e+00 9.131130e-01 6.002993e-01 9.082641e-01 1.406330e+00 1.303864e+00 8.487765e-01 5.982967e-01 4.519199e-01 1.070587e+00 9.155758e-01 9.138884e-01 1.043424e+00 1.261798e+00 1.464951e+00 
1.701535e+00 1.598992e+00 1.324013e+00 1.032967e+00 8.336740e-01 8.755359e-01 5.907705e-01 1.125711e+00 1.325804e+00 8.472276e-01 1.504949e+00 1.343894e+00 8.609205e-01 8.492351e-01 9.140810e-01 1.114851e+00 1.128249e+00 1.114851e+00 9.140810e-01 8.492351e-01 8.609205e-01 1.343894e+00 1.504949e+00 8.472276e-01 1.325804e+00 1.125711e+00 5.907705e-01 8.755359e-01 8.336740e-01 1.032967e+00 1.324013e+00 1.598992e+00 
1.741533e+00 1.615991e+00 1.287078e+00 9.484361e-01 7.510743e-01 7.667333e-01 9.704220e-01 1.851208e+00 8.357180e-01 1.017278e+00 2.034847e+00 1.312111e+00 9.524591e-01 7.832933e-01 7.619208e-01 9.332609e-01 9.760372e-01 9.332609e-01 7.619208e-01 7.832933e-01 9.524591e-01 1.312111e+00 2.034847e+00 1.017278e+00 8.357180e-01 1.851208e+00 9.704220e-01 7.667333e-01 7.510743e-01 9.484361e-01 1.287078e+00 1.615991e+00 
1.664746e+00 1.530590e+00 1.243476e+00 9.681298e-01 9.973836e-01 9.782941e-01 1.663277e+00 1.358322e+00 6.768304e-01 1.662738e+00 1.880962e+00 9.607598e-01 8.585065e-01 7.537569e-01 6.747346e-01 6.749117e-01 6.500611e-01 6.749117e-01 6.747346e-01 7.537569e-01 8.585065e-01 9.607598e-01 1.880962e+00 1.662738e+00 6.768304e-01 1.358322e+00 1.663277e+00 9.782941e-01 9.973836e-01 9.681298e-01 1.243476e+00 1.530590e+00 
1.359968e+00 1.287345e+00 1.222005e+00 1.242991e+00 1.431221e+00 1.557700e+00 1.863404e+00 1.258036e+00 1.272151e+00 1.957491e+00 1.398062e+00 7.233219e-01 7.176836e-01 5.730017e-01 4.962251e-01 4.214456e-01 3.713496e-01 4.214456e-01 4.962251e-01 5.730017e-01 7.176836e-01 7.233219e-01 1.398062e+00 1.957491e+00 1.272151e+00 1.258036e+00 1.863404e+00 1.557700e+00 1.431221e+00 1.242991e+00 1.222005e+00 1.287345e+00 
7.978753e-01 9.682495e-01 1.299996e+00 1.591175e+00 1.711814e+00 1.892122e+00 1.671943e+00 1.363017e+00 1.745933e+00 1.568640e+00 7.279363e-01 3.232267e-01 4.252616e-01 3.552183e-01 3.438937e-01 2.307563e-01 1.504835e-01 2.307563e-01 3.438937e-01 3.552183e-01 4.252616e-01 3.232267e-01 7.279363e-01 1.568640e+00 1.745933e+00 1.363017e+00 1.671943e+00 1.892122e+00 1.711814e+00 1.591175e+00 1.299996e+00 9.682495e-01 
2.014634e-15 7.978753e-01 1.378592e+00 1.737233e+00 1.795528e+00 1.969360e+00 1.499648e+00 1.296980e+00 1.799419e+00 1.200541e+00 2.881367e-01 1.552582e-01 2.875194e-01 2.607724e-01 2.740318e-01 1.504835e-01 2.184000e-14 1.504835e-01 2.740318e-01 2.607724e-01 2.875194e-01 1.552582e-01 2.881367e-01 1.200541e+00 1.799419e+00 1.296980e+00 1.499648e+00 1.969360e+00 1.795528e+00 1.737233e+00 1.378592e+00 7.978753e-01 
7.978753e-01 9.682495e-01 1.299996e+00 1.591175e+00 1.711814e+00 1.892122e+00 1.671943e+00 1.363017e+00 1.745933e+00 1.568640e+00 7.279363e-01 3.232267e-01 4.252616e-01 3.552183e-01 3.438937e-01 2.307563e-01 1.504835e-01 2.307563e-01 3.438937e-01 3.552183e-01 4.252616e-01 3.232267e-01 7.279363e-01 1.568640e+00 1.745933e+00 1.363017e+00 1.671943e+00 1.892122e+00 1.711814e+00 1.591175e+00 1.299996e+00 9.682495e-01 
1.359968e+00 1.287345e+00 1.222005e+00 1.242991e+00 1.431221e+00 1.557700e+00 1.863404e+00 1.258036e+00 1.272151e+00 1.957491e+00 1.398062e+00 7.233219e-01 7.176836e-01 5.730017e-01 4.962251e-01 4.214456e-01 3.713496e-01 4.214456e-01 4.962251e-01 5.730017e-01 7.176836e-01 7.233219e-01 1.398062e+00 1.957491e+00 1.272151e+00 1.258036e+00 1.863404e+00 1.557700e+00 1.431221e+00 1.242991e+00 1.222005e+00 1.287345e+00 
1.664746e+00 1.530590e+00 1.243476e+00 9.681298e-01 9.973836e-01 9.782941e-01 1.663277e+00 1.358322e+00 6.768304e-01 1.662738e+00 1.880962e+00 9.607598e-01 8.585065e-01 7.537569e-01 6.747346e-01 6.749117e-01 6.500611e-01 6.749117e-01 6.747346e-01 7.537569e-01 8.585065e-01 9.607598e-01 1.880962e+00 1.662738e+00 6.768304e-01 1.358322e+00 1.663277e+00 9.782941e-01 9.973836e-01 9.681298e-01 1.243476e+00 1.530590e+00 
1.741533e+00 1.615991e+00 1.287078e+00 9.484361e-01 7.510743e-01 7.667333e-01 9.704220e-01 1.851208e+00 8.357180e-01 1.017278e+00 2.034847e+00 1.312111e+00 9.524591e-01 7.832933e-01 7.619208e-01 9.332609e-01 9.760372e-01 9.332609e-01 7.619208e-01 7.832933e-01 9.524591e-01 1.312111e+00 2.034847e+00 1.017278e+00 8.357180e-01 1.851208e+00 9.704220e-01 7.667333e-01 7.510743e-01 9.484361e-01 1.287078e+00 1.615991e+00 
1.701535e+00 1.598992e+00 1.324013e+00 1.032967e+00 8.336740e-01 8.755359e-01 5.907705e-01 1.125711e+00 1.325804e+00 8.472276e-01 1.504949e+00 1.343894e+00 8.609205e-01 8.492351e-01 9.140810e-01 1.114851e+00 1.128249e+00 1.114851e+00 9.140810e-01 8.492351e-01 8.609205e-01 1.343894e+00 1.504949e+00 8.472276e-01 1.325804e+00 1.125711e+00 5.907705e-01 8.755359e-01 8.336740e-01 1.032967e+00 1.324013e+00 1.598992e+00 
1.542528e+00 1.464951e+00 1.261798e+00 1.043424e+00 9.138884e-01 9.155758e-01 1.070587e+00 4.519199e-01 5.982967e-01 8.487765e-01 1.303864e+00 1.406330e+00 9.082641e-01 6.002993e-01 9.131130e-01 1.309316e+00 1.305643e+00 1.309316e+00 9.131130e-01 6.002993e-01 9.082641e-01 1.406330e+00 1.303864e+00 8.487765e-01 5.982967e-01 4.519199e-01 1.070587e+00 9.155758e-01 9.138884e-01 1.043424e+00 1.261798e+00 1.464951e+00 
1.354942e+00 1.301447e+00 1.167328e+00 1.027712e+00 9.494716e-01 9.581285e-01 1.107961e+00 1.179060e+00 7.317002e-01 3.651578e-01 6.935808e-01 1.323364e+00 1.899526e+00 1.375399e+00 9.915376e-01 9.976001e-01 8.417065e-01 9.976001e-01 9.915376e-01 1.375399e+00 1.899526e+00 1.323364e+00 6.935808e-01 3.651578e-01 7.317002e-01 1.179060e+00 1.107961e+00 9.581285e-01 9.494716e-01 1.027712e+00 1.167328e+00 1.301447e+00 
1.125788e+00 1.094436e+00 1.017693e+00 9.457411e-01 9.145772e-01 9.432761e-01 1.050175e+00 1.246977e+00 1.313005e+00 1.336653e+00 1.204411e+00 1.403019e+00 9.260407e-01 1.791468e+00 1.709552e+00 1.393304e+00 1.076283e+00 1.393304e+00 1.709552e+00 1.791468e+00 9.260407e-01 1.403019e+00 1.204411e+00 1.336653e+00 1.313005e+00 1.246977e+00 1.050175e+00 9.432761e-01 9.145772e-01 9.457411e-01 1.017693e+00 1.094436e+00 
9.194117e-01 9.039099e-01 8.661343e-01 8.369522e-01 8.297625e-01 8.653933e-01 9.355606e-01 1.083014e+00 1.228759e+00 1.425807e+00 1.680696e+00 2.039770e+00 2.377652e+00 2.201219e+00 1.666110e+00 1.671844e+00 1.623780e+00 1.671844e+00 1.666110e+00 2.201219e+00 2.377652e+00 2.039770e+00 1.680696e+00 1.425807e+00 1.228759e+00 1.083014e+00 9.355606e-01 8.653933e-01 8.297625e-01 8.369522e-01 8.661343e-01 9.039099e-01 
7.185006e-01 7.161700e-01 7.060198e-01 7.113769e-01 7.253499e-01 7.770363e-01 8.331068e-01 9.633734e-01 1.052002e+00 1.263568e+00 1.448644e+00 1.385421e+00 1.872074e+00 2.177193e+00 2.296698e+00 1.422684e+00 2.420244e-01 1.422684e+00 2.296698e+00 2.177193e+00 1.872074e+00 1.385421e+00 1.448644e+00 1.263568e+00 1.052002e+00 9.633734e-01 8.331068e-01 7.770363e-01 7.253499e-01 7.113769e-01 7.060198e-01 7.161700e-01 
5.547055e-01 5.591584e-01 5.646269e-01 5.860168e-01 6.111568e-01 6.625460e-01 7.183383e-01 8.203377e-01 9.295357e-01 1.064824e+00 1.329106e+00 1.219904e+00 1.270224e+00 1.195452e+00 1.000090e+00 1.148861e+00 1.220978e+00 1.148861e+00 1.000090e+00 1.195452e+00 1.270224e+00 1.219904e+00 1.329106e+00 1.064824e+00 9.295357e-01 8.203377e-01 7.183383e-01 6.625460e-01 6.111568e-01 5.860168e-01 5.646269e-01 5.591584e-01 
4.070200e-01 4.177708e-01 4.364816e-01 4.723663e-01 5.078906e-01 5.575374e-01 6.084706e-01 6.771611e-01 7.733231e-01 8.437375e-01 1.036094e+00 9.958139e-01 1.054782e+00 8.123249e-01 2.041865e-01 9.772834e-01 1.623969e+00 9.772834e-01 2.041865e-01 8.123249e-01 1.054782e+00 9.958139e-01 1.036094e+00 8.437375e-01 7.733231e-01 6.771611e-01 6.084706e-01 5.575374e-01 5.078906e-01 4.723663e-01 4.364816e-01 4.177708e-01 
2.876992e-01 3.023705e-01 3.319248e-01 3.750404e-01 4.173715e-01 4.576306e-01 5.019458e-01 5.341583e-01 6.065881e-01 6.197722e-01 7.173315e-01 6.446835e-01 5.446489e-01 3.835480e-01 2.910841e-01 9.216816e-01 1.432716e+00 9.216816e-01 2.910841e-01 3.835480e-01 5.446489e-01 6.446835e-01 7.173315e-01 6.197722e-01 6.065881e-01 5.341583e-01 5.019458e-01 4.576306e-01 4.173715e-01 3.750404e-01 3.319248e-01 3.023705e-01 
1.803573e-01 2.024282e-01 2.485430e-01 3.019871e-01 3.516083e-01 3.826474e-01 4.127043e-01 4.060496e-01 4.336299e-01 4.043396e-01 4.495468e-01 4.410835e-01 4.057631e-01 4.474306e-01 5.468370e-01 8.290077e-01 1.042102e+00 8.290077e-01 5.468370e-01 4.474306e-01 4.057631e-01 4.410835e-01 4.495468e-01 4.043396e-01 4.336299e-01 4.060496e-01 4.127043e-01 3.826474e-01 3.516083e-01 3.019871e-01 2.485430e-01 2.024282e-01 
8.796299e-02 1.245292e-01 1.914256e-01 2.525645e-01 3.064102e-01 3.276175e-01 3.403382e-01 2.933256e-01 2.581332e-01 1.834378e-01 2.415624e-01 4.275499e-01 5.588762e-01 7.253851e-01 7.073931e-01 6.369548e-01 5.315935e-01 6.369548e-01 7.073931e-01 7.253851e-01 5.588762e-01 4.275499e-01 2.415624e-01 1.834378e-01 2.581332e-01 2.933256e-01 3.403382e-01 3.276175e-01 3.064102e-01 2.525645e-01 1.914256e-01 1.245292e-01 
