# vtk DataFile Version 2.0
Comment goes here
ASCII

DATASET STRUCTURED_POINTS
FIELD FieldData 1
TIME 1 1 double
0.30000000
DIMENSIONS    32   32   1

ORIGIN    0.000   0.000   0.000
SPACING   0.03125 0.03125   1.000

POINT_DATA   1024
SCALARS uMag double
LOOKUP_TABLE default

2.943889e-15 1.087414e-01 2.213013e-01 3.394632e-01 4.677026e-01 6.048010e-01 7.547307e-01 9.133021e-01 1.081639e+00 1.253563e+00 1.422066e+00 1.572868e+00 1.667282e+00 1.643288e+00 1.402233e+00 8.568680e-01 1.066502e-14 8.568680e-01 1.402233e+00 1.643288e+00 1.667282e+00 1.572868e+00 1.422066e+00 1.253563e+00 1.081639e+00 9.133021e-01 7.547307e-01 6.048010e-01 4.677026e-01 3.394632e-01 2.213013e-01 1.087414e-01 
1.087414e-01 1.547466e-01 2.486522e-01 3.596735e-01 4.842412e-01 6.192535e-01 7.670068e-01 9.236627e-01 1.086869e+00 1.251743e+00 1.403082e+00 1.529103e+00 1.581898e+00 1.525657e+00 1.327858e+00 1.021715e+00 8.568680e-01 1.021715e+00 1.327858e+00 1.525657e+00 1.581898e+00 1.529103e+00 1.403082e+00 1.251743e+00 1.086869e+00 9.236627e-01 7.670068e-01 6.192535e-01 4.842412e-01 3.596735e-01 2.486522e-01 1.547466e-01 
2.163602e-01 2.427986e-01 3.104903e-01 4.053457e-01 5.206393e-01 6.511991e-01 7.988113e-01 9.551905e-01 1.120103e+00 1.278456e+00 1.416132e+00 1.508762e+00 1.517755e+00 1.428202e+00 1.321694e+00 1.382592e+00 1.486388e+00 1.382592e+00 1.321694e+00 1.428202e+00 1.517755e+00 1.508762e+00 1.416132e+00 1.278456e+00 1.120103e+00 9.551905e-01 7.988113e-01 6.511991e-01 5.206393e-01 4.053457e-01 3.104903e-01 2.427986e-01 
3.130097e-01 3.333269e-01 3.886589e-01 4.737869e-01 5.833035e-01 7.125301e-01 8.614421e-01 1.020267e+00 1.185018e+00 1.336691e+00 1.447756e+00 1.487084e+00 1.388035e+00 1.295887e+00 1.471390e+00 1.805856e+00 1.957717e+00 1.805856e+00 1.471390e+00 1.295887e+00 1.388035e+00 1.487084e+00 1.447756e+00 1.336691e+00 1.185018e+00 1.020267e+00 8.614421e-01 7.125301e-01 5.833035e-01 4.737869e-01 3.886589e-01 3.333269e-01 
4.062480e-01 4.235244e-01 4.702276e-01 5.481303e-01 6.526054e-01 7.824497e-01 9.376163e-01 1.103396e+00 1.283428e+00 1.445790e+00 1.573893e+00 1.642434e+00 1.625037e+00 1.581547e+00 1.759075e+00 2.088655e+00 2.197411e+00 2.088655e+00 1.759075e+00 1.581547e+00 1.625037e+00 1.642434e+00 1.573893e+00 1.445790e+00 1.283428e+00 1.103396e+00 9.376163e-01 7.824497e-01 6.526054e-01 5.481303e-01 4.702276e-01 4.235244e-01 
4.726684e-01 4.907576e-01 5.406195e-01 6.249234e-01 7.391657e-01 8.846014e-01 1.058378e+00 1.251869e+00 1.477020e+00 1.715710e+00 1.962017e+00 1.996735e+00 1.543714e+00 1.579307e+00 2.240271e+00 2.544659e+00 2.567716e+00 2.544659e+00 2.240271e+00 1.579307e+00 1.543714e+00 1.996735e+00 1.962017e+00 1.715710e+00 1.477020e+00 1.251869e+00 1.058378e+00 8.846014e-01 7.391657e-01 6.249234e-01 5.406195e-01 4.907576e-01 
5.325683e-01 5.539301e-01 6.091680e-01 7.035854e-01 8.269757e-01 9.902419e-01 1.188788e+00 1.425418e+00 1.755954e+00 2.079500e+00 2.007892e+00 1.143230e+00 1.551575e+00 2.269640e+00 2.390900e+00 2.295987e+00 2.168132e+00 2.295987e+00 2.390900e+00 2.269640e+00 1.551575e+00 1.143230e+00 2.007892e+00 2.079500e+00 1.755954e+00 1.425418e+00 1.188788e+00 9.902419e-01 8.269757e-01 7.035854e-01 6.091680e-01 5.539301e-01 
5.389971e-01 5.673076e-01 6.439167e-01 7.648836e-01 9.204028e-01 1.123021e+00 1.367493e+00 1.714587e+00 2.082432e+00 1.866142e+00 5.746126e-01 1.438555e+00 2.406227e+00 2.290835e+00 2.044874e+00 1.996809e+00 1.933859e+00 1.996809e+00 2.044874e+00 2.290835e+00 2.406227e+00 1.438555e+00 5.746126e-01 1.866142e+00 2.082432e+00 1.714587e+00 1.367493e+00 1.123021e+00 9.204028e-01 7.648836e-01 6.439167e-01 5.673076e-01 
5.321893e-01 5.761550e-01 6.851399e-01 8.416434e-01 1.021001e+00 1.267066e+00 1.579546e+00 1.920628e+00 1.812302e+00 6.673592e-01 1.177995e+00 2.267715e+00 2.397918e+00 2.293859e+00 2.061550e+00 1.743098e+00 1.567458e+00 1.743098e+00 2.061550e+00 2.293859e+00 2.397918e+00 2.267715e+00 1.177995e+00 6.673592e-01 1.812302e+00 1.920628e+00 1.579546e+00 1.267066e+00 1.021001e+00 8.416434e-01 6.851399e-01 5.761550e-01 
4.302652e-01 4.989000e-01 6.661549e-01 8.706825e-01 1.115420e+00 1.432984e+00 1.766708e+00 1.879288e+00 1.329200e+00 7.300032e-01 2.073281e+00 2.479688e+00 2.657826e+00 2.358777e+00 1.721199e+00 1.043790e+00 5.735095e-01 1.043790e+00 1.721199e+00 2.358777e+00 2.657826e+00 2.479688e+00 2.073281e+00 7.300032e-01 1.329200e+00 1.879288e+00 1.766708e+00 1.432984e+00 1.115420e+00 8.706825e-01 6.661549e-01 4.989000e-01 
3.073094e-01 4.268418e-01 6.834038e-01 9.735429e-01 1.284759e+00 1.637116e+00 1.757086e+00 1.825564e+00 8.565478e-01 1.793764e+00 2.394490e+00 2.276197e+00 2.215009e+00 1.613793e+00 1.010478e+00 4.479712e-01 9.223576e-02 4.479712e-01 1.010478e+00 1.613793e+00 2.215009e+00 2.276197e+00 2.394490e+00 1.793764e+00 8.565478e-01 1.825564e+00 1.757086e+00 1.637116e+00 1.284759e+00 9.735429e-01 6.834038e-01 4.268418e-01 
6.347623e-02 2.850495e-01 6.212601e-01 9.734876e-01 1.364111e+00 1.568551e+00 1.895775e+00 1.983129e+00 1.015696e+00 2.305110e+00 1.787455e+00 1.535567e+00 1.525406e+00 1.208316e+00 7.650111e-01 2.326515e-01 2.373833e-02 2.326515e-01 7.650111e-01 1.208316e+00 1.525406e+00 1.535567e+00 1.787455e+00 2.305110e+00 1.015696e+00 1.983129e+00 1.895775e+00 1.568551e+00 1.364111e+00 9.734876e-01 6.212601e-01 2.850495e-01 
1.684330e-01 2.554202e-01 5.423052e-01 9.675568e-01 1.496372e+00 1.705550e+00 2.111392e+00 1.859361e+00 1.728948e+00 2.094973e+00 9.594826e-01 9.964640e-01 1.132184e+00 1.064649e+00 8.480778e-01 4.832503e-01 2.788256e-01 4.832503e-01 8.480778e-01 1.064649e+00 1.132184e+00 9.964640e-01 9.594826e-01 2.094973e+00 1.728948e+00 1.859361e+00 2.111392e+00 1.705550e+00 1.496372e+00 9.675568e-01 5.423052e-01 2.554202e-01 
4.273049e-01 3.856357e-01 4.313359e-01 8.666801e-01 1.417082e+00 1.920915e+00 2.355459e+00 1.689081e+00 2.175013e+00 1.490031e+00 8.208047e-01 9.258907e-01 9.995616e-01 9.804592e-01 7.316335e-01 4.458969e-01 3.050298e-01 4.458969e-01 7.316335e-01 9.804592e-01 9.995616e-01 9.258907e-01 8.208047e-01 1.490031e+00 2.175013e+00 1.689081e+00 2.355459e+00 1.920915e+00 1.417082e+00 8.666801e-01 4.313359e-01 3.856357e-01 
5.443238e-01 4.977404e-01 4.257109e-01 4.498975e-01 8.944624e-01 1.863322e+00 2.241629e+00 1.817519e+00 1.985327e+00 1.154968e+00 1.134096e+00 1.120549e+00 9.808802e-01 8.314229e-01 6.155534e-01 4.328303e-01 3.444187e-01 4.328303e-01 6.155534e-01 8.314229e-01 9.808802e-01 1.120549e+00 1.134096e+00 1.154968e+00 1.985327e+00 1.817519e+00 2.241629e+00 1.863322e+00 8.944624e-01 4.498975e-01 4.257109e-01 4.977404e-01 
5.173861e-01 5.890609e-01 6.789838e-01 6.751085e-01 8.787728e-01 1.459046e+00 1.603872e+00 2.088602e+00 1.712325e+00 1.321646e+00 1.589978e+00 1.415108e+00 1.186005e+00 8.591037e-01 5.480381e-01 3.087217e-01 2.085902e-01 3.087217e-01 5.480381e-01 8.591037e-01 1.186005e+00 1.415108e+00 1.589978e+00 1.321646e+00 1.712325e+00 2.088602e+00 1.603872e+00 1.459046e+00 8.787728e-01 6.751085e-01 6.789838e-01 5.890609e-01 
1.122929e-14 5.173861e-01 1.044836e+00 1.445399e+00 1.369960e+00 1.856948e-01 1.542622e+00 2.057385e+00 1.547269e+00 1.438053e+00 1.780179e+00 1.571402e+00 1.320386e+00 8.877923e-01 5.124569e-01 2.085902e-01 1.298352e-14 2.085902e-01 5.124569e-01 8.877923e-01 1.320386e+00 1.571402e+00 1.780179e+00 1.438053e+00 1.547269e+00 2.057385e+00 1.542622e+00 1.856948e-01 1.369960e+00 1.445399e+00 1.044836e+00 5.173861e-01 
5.173861e-01 5.890609e-01 6.789838e-01 6.751085e-01 8.787728e-01 1.459046e+00 1.603872e+00 2.088602e+00 1.712325e+00 1.321646e+00 1.589978e+00 1.415108e+00 1.186005e+00 8.591037e-01 5.480381e-01 3.087217e-01 2.085902e-01 3.087217e-01 5.480381e-01 8.591037e-01 1.186005e+00 1.415108e+00 1.589978e+00 1.321646e+00 1.712325e+00 2.088602e+00 1.603872e+00 1.459046e+00 8.787728e-01 6.751085e-01 6.789838e-01 5.890609e-01 
5.443238e-01 4.977404e-01 4.257109e-01 4.498975e-01 8.944624e-01 1.863322e+00 2.241629e+00 1.817519e+00 1.985327e+00 1.154968e+00 1.134096e+00 1.120549e+00 9.808802e-01 8.314229e-01 6.155534e-01 4.328303e-01 3.444187e-01 4.328303e-01 6.155534e-01 8.314229e-01 9.808802e-01 1.120549e+00 1.134096e+00 1.154968e+00 1.985327e+00 1.817519e+00 2.241629e+00 1.863322e+00 8.944624e-01 4.498975e-01 4.257109e-01 4.977404e-01 
4.273049e-01 3.856357e-01 4.313359e-01 8.666801e-01 1.417082e+00 1.920915e+00 2.355459e+00 1.689081e+00 2.175013e+00 1.490031e+00 8.208047e-01 9.258907e-01 9.995616e-01 9.804592e-01 7.316335e-01 4.458969e-01 3.050298e-01 4.458969e-01 7.316335e-01 9.804592e-01 9.995616e-01 9.258907e-01 8.208047e-01 1.490031e+00 2.175013e+00 1.689081e+00 2.355459e+00 1.920915e+00 1.417082e+00 8.666801e-01 4.313359e-01 3.856357e-01 
1.684330e-01 2.554202e-01 5.423052e-01 9.675568e-01 1.496372e+00 1.705550e+00 2.111392e+00 1.859361e+00 1.728948e+00 2.094973e+00 9.594826e-01 9.964640e-01 1.132184e+00 1.064649e+00 8.480778e-01 4.832503e-01 2.788256e-01 4.832503e-01 8.480778e-01 1.064649e+00 1.132184e+00 9.964640e-01 9.594826e-01 2.094973e+00 1.728948e+00 1.859361e+00 2.111392e+00 1.705550e+00 1.496372e+00 9.675568e-01 5.423052e-01 2.554202e-01 
6.347623e-02 2.850495e-01 6.212601e-01 9.734876e-01 1.364111e+00 1.568551e+00 1.895775e+00 1.983129e+00 1.015696e+00 2.305110e+00 1.787455e+00 1.535567e+00 1.525406e+00 1.208316e+00 7.650111e-01 2.326515e-01 2.373833e-02 2.326515e-01 7.650111e-01 1.208316e+00 1.525406e+00 1.535567e+00 1.787455e+00 2.305110e+00 1.015696e+00 1.983129e+00 1.895775e+00 1.568551e+00 1.364111e+00 9.734876e-01 6.212601e-01 2.850495e-01 
3.073094e-01 4.268418e-01 6.834038e-01 9.735429e-01 1.284759e+00 1.637116e+00 1.757086e+00 1.825564e+00 8.565478e-01 1.793764e+00 2.394490e+00 2.276197e+00 2.215009e+00 1.613793e+00 1.010478e+00 4.479712e-01 9.223576e-02 4.479712e-01 1.010478e+00 1.613793e+00 2.215009e+00 2.276197e+00 2.394490e+00 1.793764e+00 8.565478e-01 1.825564e+00 1.757086e+00 1.637116e+00 1.284759e+00 9.735429e-01 6.834038e-01 4.268418e-01 
4.302652e-01 4.989000e-01 6.661549e-01 8.706825e-01 1.115420e+00 1.432984e+00 1.766708e+00 1.879288e+00 1.329200e+00 7.300032e-01 2.073281e+00 2.479688e+00 2.657826e+00 2.358777e+00 1.721199e+00 1.043790e+00 5.735095e-01 1.043790e+00 1.721199e+00 2.358777e+00 2.657826e+00 2.479688e+00 2.073281e+00 7.300032e-01 1.329200e+00 1.879288e+00 1.766708e+00 1.432984e+00 1.115420e+00 8.706825e-01 6.661549e-01 4.989000e-01 
5.321893e-01 5.761550e-01 6.851399e-01 8.416434e-01 1.021001e+00 1.267066e+00 1.579546e+00 1.920628e+00 1.812302e+00 6.673592e-01 1.177995e+00 2.267715e+00 2.397918e+00 2.293859e+00 2.061550e+00 1.743098e+00 1.567458e+00 1.743098e+00 2.061550e+00 2.293859e+00 2.397918e+00 2.267715e+00 1.177995e+00 6.673592e-01 1.812302e+00 1.920628e+00 1.579546e+00 1.267066e+00 1.021001e+00 8.416434e-01 6.851399e-01 5.761550e-01 
5.389971e-01 5.673076e-01 6.439167e-01 7.648836e-01 9.204028e-01 1.123021e+00 1.367493e+00 1.714587e+00 2.082432e+00 1.866142e+00 5.746126e-01 1.438555e+00 2.406227e+00 2.290835e+00 2.044874e+00 1.996809e+00 1.933859e+00 1.996809e+00 2.044874e+00 2.290835e+00 2.406227e+00 1.438555e+00 5.746126e-01 1.866142e+00 2.082432e+00 1.714587e+00 1.367493e+00 1.123021e+00 9.204028e-01 7.648836e-01 6.439167e-01 5.673076e-01 
5.325683e-01 5.539301e-01 6.091680e-01 7.035854e-01 8.269757e-01 9.902419e-01 1.188788e+00 1.425418e+00 1.755954e+00 2.079500e+00 2.007892e+00 1.143230e+00 1.551575e+00 2.269640e+00 2.390900e+00 2.295987e+00 2.168132e+00 2.295987e+00 2.390900e+00 2.269640e+00 1.551575e+00 1.143230e+00 2.007892e+00 2.079500e+00 1.755954e+00 1.425418e+00 1.188788e+00 9.902419e-01 8.269757e-01 7.035854e-01 6.091680e-01 5.539301e-01 
4.726684e-01 4.907576e-01 5.406195e-01 6.249234e-01 7.391657e-01 8.846014e-01 1.058378e+00 1.251869e+00 1.477020e+00 1.715710e+00 1.962017e+00 1.996735e+00 1.543714e+00 1.579307e+00 2.240271e+00 2.544659e+00 2.567716e+00 2.544659e+00 2.240271e+00 1.579307e+00 1.543714e+00 1.996735e+00 1.962017e+00 1.715710e+00 1.477020e+00 1.251869e+00 1.058378e+00 8.846014e-01 7.391657e-01 6.249234e-01 5.406195e-01 4.907576e-01 
4.062480e-01 4.235244e-01 4.702276e-01 5.481303e-01 6.526054e-01 7.824497e-01 9.376163e-01 1.103396e+00 1.283428e+00 1.445790e+00 1.573893e+00 1.642434e+00 1.625037e+00 1.581547e+00 1.759075e+00 2.088655e+00 2.197411e+00 2.088655e+00 1.759075e+00 1.581547e+00 1.625037e+00 1.642434e+00 1.573893e+00 1.445790e+00 1.283428e+00 1.103396e+00 9.376163e-01 7.824497e-01 6.526054e-01 5.481303e-01 4.702276e-01 4.235244e-01 
3.130097e-01 3.333269e-01 3.886589e-01 4.737869e-01 5.833035e-01 7.125301e-01 8.614421e-01 1.020267e+00 1.185018e+00 1.336691e+00 1.447756e+00 1.487084e+00 1.388035e+00 1.295887e+00 1.471390e+00 1.805856e+00 1.957717e+00 1.805856e+00 1.471390e+00 1.295887e+00 1.388035e+00 1.487084e+00 1.447756e+00 1.336691e+00 1.185018e+00 1.020267e+00 8.614421e-01 7.125301e-01 5.833035e-01 4.737869e-01 3.886589e-01 3.333269e-01 
2.163602e-01 2.427986e-01 3.104903e-01 4.053457e-01 5.206393e-01 6.511991e-01 7.988113e-01 9.551905e-01 1.120103e+00 1.278456e+00 1.416132e+00 1.508762e+00 1.517755e+00 1.428202e+00 1.321694e+00 1.382592e+00 1.486388e+00 1.382592e+00 1.321694e+00 1.428202e+00 1.517755e+00 1.508762e+00 1.416132e+00 1.278456e+00 1.120103e+00 9.551905e-01 7.988113e-01 6.511991e-01 5.206393e-01 4.053457e-01 3.104903e-01 2.427986e-01 
1.087414e-01 1.547466e-01 2.486522e-01 3.596735e-01 4.842412e-01 6.192535e-01 7.670068e-01 9.236627e-01 1.086869e+00 1.251743e+00 1.403082e+00 1.529103e+00 1.581898e+00 1.525657e+00 1.327858e+00 1.021715e+00 8.568680e-01 1.021715e+00 1.327858e+00 1.525657e+00 1.581898e+00 1.529103e+00 1.403082e+00 1.251743e+00 1.086869e+00 9.236627e-01 7.670068e-01 6.192535e-01 4.842412e-01 3.596735e-01 2.486522e-01 1.547466e-01 
