# vtk DataFile Version 2.0
Comment goes here
ASCII

DATASET STRUCTURED_POINTS
FIELD FieldData 1
TIME 1 1 double
1.04000000
DIMENSIONS    32   32   1

ORIGIN    0.000   0.000   0.000
SPACING   0.03125 0.03125   1.000

POINT_DATA   1024
SCALARS uMag double
LOOKUP_TABLE default

3.115872e-14 3.137095e-04 1.876083e-02 6.210882e-02 1.492870e-01 2.717094e-01 4.423839e-01 6.390216e-01 8.583866e-01 1.071752e+00 1.252216e+00 1.378592e+00 1.400218e+00 1.309295e+00 1.051495e+00 6.196382e-01 1.200926e-13 6.196382e-01 1.051495e+00 1.309295e+00 1.400218e+00 1.378592e+00 1.252216e+00 1.071752e+00 8.583866e-01 6.390216e-01 4.423839e-01 2.717094e-01 1.492870e-01 6.210882e-02 1.876083e-02 3.137095e-04 
3.137095e-04 1.102372e-02 3.164902e-02 7.887310e-02 1.632499e-01 2.809801e-01 4.410723e-01 6.221961e-01 8.225198e-01 1.013306e+00 1.173397e+00 1.282860e+00 1.303248e+00 1.231944e+00 1.046145e+00 7.892006e-01 6.196382e-01 7.892006e-01 1.046145e+00 1.231944e+00 1.303248e+00 1.282860e+00 1.173397e+00 1.013306e+00 8.225198e-01 6.221961e-01 4.410723e-01 2.809801e-01 1.632499e-01 7.887310e-02 3.164902e-02 1.102372e-02 
1.158107e-02 2.821190e-02 6.130376e-02 1.197688e-01 1.997009e-01 3.046684e-01 4.341631e-01 5.676020e-01 7.090910e-01 8.289352e-01 9.244961e-01 9.927116e-01 1.011840e+00 1.025346e+00 1.038979e+00 1.112069e+00 1.177161e+00 1.112069e+00 1.038979e+00 1.025346e+00 1.011840e+00 9.927116e-01 9.244961e-01 8.289352e-01 7.090910e-01 5.676020e-01 4.341631e-01 3.046684e-01 1.997009e-01 1.197688e-01 6.130376e-02 2.821190e-02 
5.441873e-02 6.291995e-02 1.009887e-01 1.746341e-01 2.614752e-01 3.670019e-01 4.735061e-01 5.641373e-01 6.404923e-01 6.694533e-01 6.761019e-01 6.608844e-01 6.477514e-01 7.281944e-01 9.890000e-01 1.399194e+00 1.641765e+00 1.399194e+00 9.890000e-01 7.281944e-01 6.477514e-01 6.608844e-01 6.761019e-01 6.694533e-01 6.404923e-01 5.641373e-01 4.735061e-01 3.670019e-01 2.614752e-01 1.746341e-01 1.009887e-01 6.291995e-02 
1.261976e-01 1.282442e-01 1.653874e-01 2.508217e-01 3.505301e-01 4.665690e-01 5.639626e-01 6.313733e-01 6.589451e-01 6.023446e-01 5.013612e-01 3.399422e-01 2.412021e-01 4.776757e-01 9.501628e-01 1.567067e+00 1.903841e+00 1.567067e+00 9.501628e-01 4.776757e-01 2.412021e-01 3.399422e-01 5.013612e-01 6.023446e-01 6.589451e-01 6.313733e-01 5.639626e-01 4.665690e-01 3.505301e-01 2.508217e-01 1.653874e-01 1.282442e-01 
2.446464e-01 2.325583e-01 2.458148e-01 3.223988e-01 4.285678e-01 5.579953e-01 6.503300e-01 7.134676e-01 7.194267e-01 6.248163e-01 5.077323e-01 2.528987e-01 6.619656e-02 3.191248e-01 9.014179e-01 1.655885e+00 2.015692e+00 1.655885e+00 9.014179e-01 3.191248e-01 6.619656e-02 2.528987e-01 5.077323e-01 6.248163e-01 7.194267e-01 7.134676e-01 6.503300e-01 5.579953e-01 4.285678e-01 3.223988e-01 2.458148e-01 2.325583e-01 
3.907381e-01 3.611089e-01 3.404265e-01 3.921682e-01 5.060809e-01 6.538212e-01 7.523161e-01 8.241767e-01 8.240976e-01 7.186169e-01 5.934934e-01 2.728240e-01 4.421452e-01 5.745971e-01 9.425665e-01 1.462981e+00 1.682735e+00 1.462981e+00 9.425665e-01 5.745971e-01 4.421452e-01 2.728240e-01 5.934934e-01 7.186169e-01 8.240976e-01 8.241767e-01 7.523161e-01 6.538212e-01 5.060809e-01 3.921682e-01 3.404265e-01 3.611089e-01 
5.733814e-01 5.222579e-01 4.455631e-01 4.382729e-01 5.430357e-01 7.111489e-01 8.063487e-01 8.915268e-01 8.558315e-01 6.920048e-01 5.604547e-01 7.196897e-02 4.129210e-01 7.677495e-01 1.364639e+00 1.528492e+00 1.470616e+00 1.528492e+00 1.364639e+00 7.677495e-01 4.129210e-01 7.196897e-02 5.604547e-01 6.920048e-01 8.558315e-01 8.915268e-01 8.063487e-01 7.111489e-01 5.430357e-01 4.382729e-01 4.455631e-01 5.222579e-01 
7.586620e-01 6.831941e-01 5.429182e-01 4.496326e-01 5.462929e-01 7.401693e-01 8.609572e-01 9.779964e-01 9.731429e-01 8.774596e-01 7.912859e-01 5.781313e-01 1.377908e+00 1.596829e+00 1.365951e+00 5.472484e-01 1.620013e-01 5.472484e-01 1.365951e+00 1.596829e+00 1.377908e+00 5.781313e-01 7.912859e-01 8.774596e-01 9.731429e-01 9.779964e-01 8.609572e-01 7.401693e-01 5.462929e-01 4.496326e-01 5.429182e-01 6.831941e-01 
9.451733e-01 8.499993e-01 6.348038e-01 4.304042e-01 5.010712e-01 7.442448e-01 8.897074e-01 1.117306e+00 1.020837e+00 8.574945e-01 3.424060e-01 1.428307e+00 8.375972e-01 2.926704e-01 4.994937e-01 5.011946e-01 6.063501e-01 5.011946e-01 4.994937e-01 2.926704e-01 8.375972e-01 1.428307e+00 3.424060e-01 8.574945e-01 1.020837e+00 1.117306e+00 8.897074e-01 7.442448e-01 5.010712e-01 4.304042e-01 6.348038e-01 8.499993e-01 
1.095309e+00 9.825507e-01 7.008004e-01 3.727360e-01 4.190002e-01 7.110964e-01 8.977183e-01 1.155654e+00 1.266806e+00 8.228233e-01 3.849009e-01 2.514536e-01 5.114526e-01 2.428042e-01 6.820025e-01 8.782126e-01 9.524686e-01 8.782126e-01 6.820025e-01 2.428042e-01 5.114526e-01 2.514536e-01 3.849009e-01 8.228233e-01 1.266806e+00 1.155654e+00 8.977183e-01 7.110964e-01 4.190002e-01 3.727360e-01 7.008004e-01 9.825507e-01 
1.203777e+00 1.086922e+00 7.430919e-01 3.156596e-01 2.970338e-01 6.554824e-01 9.793236e-01 1.624845e+00 1.794215e+00 2.880574e-01 7.359598e-01 3.333119e-01 9.074394e-01 1.280672e+00 8.557666e-01 4.868552e-01 8.550799e-02 4.868552e-01 8.557666e-01 1.280672e+00 9.074394e-01 3.333119e-01 7.359598e-01 2.880574e-01 1.794215e+00 1.624845e+00 9.793236e-01 6.554824e-01 2.970338e-01 3.156596e-01 7.430919e-01 1.086922e+00 
1.226870e+00 1.117669e+00 7.487972e-01 3.042474e-01 1.693692e-01 6.476924e-01 1.001108e+00 2.129215e+00 1.609894e+00 1.170918e+00 8.541843e-01 6.180067e-01 6.618773e-01 3.109345e-01 1.492634e-01 1.688870e-01 4.204537e-02 1.688870e-01 1.492634e-01 3.109345e-01 6.618773e-01 6.180067e-01 8.541843e-01 1.170918e+00 1.609894e+00 2.129215e+00 1.001108e+00 6.476924e-01 1.693692e-01 3.042474e-01 7.487972e-01 1.117669e+00 
1.154931e+00 1.075560e+00 7.577867e-01 4.832263e-01 2.518678e-01 5.827549e-01 1.247031e+00 2.886584e+00 4.543195e-01 1.985807e+00 2.624073e-01 3.448191e-01 2.854808e-01 3.677684e-01 2.634025e-01 1.333815e-01 2.271133e-04 1.333815e-01 2.634025e-01 3.677684e-01 2.854808e-01 3.448191e-01 2.624073e-01 1.985807e+00 4.543195e-01 2.886584e+00 1.247031e+00 5.827549e-01 2.518678e-01 4.832263e-01 7.577867e-01 1.075560e+00 
9.200379e-01 9.241558e-01 8.020005e-01 7.768130e-01 7.383605e-01 7.062570e-01 1.666024e+00 2.196287e+00 1.824747e+00 1.147416e+00 6.786778e-01 3.029957e-01 2.587786e-01 2.457817e-01 1.292477e-01 1.107817e-01 2.962885e-02 1.107817e-01 1.292477e-01 2.457817e-01 2.587786e-01 3.029957e-01 6.786778e-01 1.147416e+00 1.824747e+00 2.196287e+00 1.666024e+00 7.062570e-01 7.383605e-01 7.768130e-01 8.020005e-01 9.241558e-01 
5.291653e-01 6.768694e-01 9.296815e-01 1.045105e+00 1.209862e+00 8.656386e-01 1.457199e+00 1.185483e+00 1.497489e+00 4.043051e-01 6.908290e-01 2.673231e-01 3.400476e-01 2.296943e-01 1.575041e-01 8.667652e-02 3.903968e-02 8.667652e-02 1.575041e-01 2.296943e-01 3.400476e-01 2.673231e-01 6.908290e-01 4.043051e-01 1.497489e+00 1.185483e+00 1.457199e+00 8.656386e-01 1.209862e+00 1.045105e+00 9.296815e-01 6.768694e-01 
5.177842e-14 5.291653e-01 9.930452e-01 1.186856e+00 1.389052e+00 9.952505e-01 1.083900e+00 1.197448e+00 7.286614e-01 6.654456e-01 6.936272e-01 4.908659e-01 5.426396e-01 2.663758e-01 1.708023e-01 3.903968e-02 6.306924e-14 3.903968e-02 1.708023e-01 2.663758e-01 5.426396e-01 4.908659e-01 6.936272e-01 6.654456e-01 7.286614e-01 1.197448e+00 1.083900e+00 9.952505e-01 1.389052e+00 1.186856e+00 9.930452e-01 5.291653e-01 
5.291653e-01 6.768694e-01 9.296815e-01 1.045105e+00 1.209862e+00 8.656386e-01 1.457199e+00 1.185483e+00 1.497489e+00 4.043051e-01 6.908290e-01 2.673231e-01 3.400476e-01 2.296943e-01 1.575041e-01 8.667652e-02 3.903968e-02 8.667652e-02 1.575041e-01 2.296943e-01 3.400476e-01 2.673231e-01 6.908290e-01 4.043051e-01 1.497489e+00 1.185483e+00 1.457199e+00 8.656386e-01 1.209862e+00 1.045105e+00 9.296815e-01 6.768694e-01 
9.200379e-01 9.241558e-01 8.020005e-01 7.768130e-01 7.383605e-01 7.062570e-01 1.666024e+00 2.196287e+00 1.824747e+00 1.147416e+00 6.786778e-01 3.029957e-01 2.587786e-01 2.457817e-01 1.292477e-01 1.107817e-01 2.962885e-02 1.107817e-01 1.292477e-01 2.457817e-01 2.587786e-01 3.029957e-01 6.786778e-01 1.147416e+00 1.824747e+00 2.196287e+00 1.666024e+00 7.062570e-01 7.383605e-01 7.768130e-01 8.020005e-01 9.241558e-01 
1.154931e+00 1.075560e+00 7.577867e-01 4.832263e-01 2.518678e-01 5.827549e-01 1.247031e+00 2.886584e+00 4.543195e-01 1.985807e+00 2.624073e-01 3.448191e-01 2.854808e-01 3.677684e-01 2.634025e-01 1.333815e-01 2.271133e-04 1.333815e-01 2.634025e-01 3.677684e-01 2.854808e-01 3.448191e-01 2.624073e-01 1.985807e+00 4.543195e-01 2.886584e+00 1.247031e+00 5.827549e-01 2.518678e-01 4.832263e-01 7.577867e-01 1.075560e+00 
1.226870e+00 1.117669e+00 7.487972e-01 3.042474e-01 1.693692e-01 6.476924e-01 1.001108e+00 2.129215e+00 1.609894e+00 1.170918e+00 8.541843e-01 6.180067e-01 6.618773e-01 3.109345e-01 1.492634e-01 1.688870e-01 4.204537e-02 1.688870e-01 1.492634e-01 3.109345e-01 6.618773e-01 6.180067e-01 8.541843e-01 1.170918e+00 1.609894e+00 2.129215e+00 1.001108e+00 6.476924e-01 1.693692e-01 3.042474e-01 7.487972e-01 1.117669e+00 
1.203777e+00 1.086922e+00 7.430919e-01 3.156596e-01 2.970338e-01 6.554824e-01 9.793236e-01 1.624845e+00 1.794215e+00 2.880574e-01 7.359598e-01 3.333119e-01 9.074394e-01 1.280672e+00 8.557666e-01 4.868552e-01 8.550799e-02 4.868552e-01 8.557666e-01 1.280672e+00 9.074394e-01 3.333119e-01 7.359598e-01 2.880574e-01 1.794215e+00 1.624845e+00 9.793236e-01 6.554824e-01 2.970338e-01 3.156596e-01 7.430919e-01 1.086922e+00 
1.095309e+00 9.825507e-01 7.008004e-01 3.727360e-01 4.190002e-01 7.110964e-01 8.977183e-01 1.155654e+00 1.266806e+00 8.228233e-01 3.849009e-01 2.514536e-01 5.114526e-01 2.428042e-01 6.820025e-01 8.782126e-01 9.524686e-01 8.782126e-01 6.820025e-01 2.428042e-01 5.114526e-01 2.514536e-01 3.849009e-01 8.228233e-01 1.266806e+00 1.155654e+00 8.977183e-01 7.110964e-01 4.190002e-01 3.727360e-01 7.008004e-01 9.825507e-01 
9.451733e-01 8.499993e-01 6.348038e-01 4.304042e-01 5.010712e-01 7.442448e-01 8.897074e-01 1.117306e+00 1.020837e+00 8.574945e-01 3.424060e-01 1.428307e+00 8.375972e-01 2.926704e-01 4.994937e-01 5.011946e-01 6.063501e-01 5.011946e-01 4.994937e-01 2.926704e-01 8.375972e-01 1.428307e+00 3.424060e-01 8.574945e-01 1.020837e+00 1.117306e+00 8.897074e-01 7.442448e-01 5.010712e-01 4.304042e-01 6.348038e-01 8.499993e-01 
7.586620e-01 6.831941e-01 5.429182e-01 4.496326e-01 5.462929e-01 7.401693e-01 8.609572e-01 9.779964e-01 9.731429e-01 8.774596e-01 7.912859e-01 5.781313e-01 1.377908e+00 1.596829e+00 1.365951e+00 5.472484e-01 1.620013e-01 5.472484e-01 1.365951e+00 1.596829e+00 1.377908e+00 5.781313e-01 7.912859e-01 8.774596e-01 9.731429e-01 9.779964e-01 8.609572e-01 7.401693e-01 5.462929e-01 4.496326e-01 5.429182e-01 6.831941e-01 
5.733814e-01 5.222579e-01 4.455631e-01 4.382729e-01 5.430357e-01 7.111489e-01 8.063487e-01 8.915268e-01 8.558315e-01 6.920048e-01 5.604547e-01 7.196897e-02 4.129210e-01 7.677495e-01 1.364639e+00 1.528492e+00 1.470616e+00 1.528492e+00 1.364639e+00 7.677495e-01 4.129210e-01 7.196897e-02 5.604547e-01 6.920048e-01 8.558315e-01 8.915268e-01 8.063487e-01 7.111489e-01 5.430357e-01 4.382729e-01 4.455631e-01 5.222579e-01 
3.907381e-01 3.611089e-01 3.404265e-01 3.921682e-01 5.060809e-01 6.538212e-01 7.523161e-01 8.241767e-01 8.240976e-01 7.186169e-01 5.934934e-01 2.728240e-01 4.421452e-01 5.745971e-01 9.425665e-01 1.462981e+00 1.682735e+00 1.462981e+00 9.425665e-01 5.745971e-01 4.421452e-01 2.728240e-01 5.934934e-01 7.186169e-01 8.240976e-01 8.241767e-01 7.523161e-01 6.538212e-01 5.060809e-01 3.921682e-01 3.404265e-01 3.611089e-01 
2.446464e-01 2.325583e-01 2.458148e-01 3.223988e-01 4.285678e-01 5.579953e-01 6.503300e-01 7.134676e-01 7.194267e-01 6.248163e-01 5.077323e-01 2.528987e-01 6.619656e-02 3.191248e-01 9.014179e-01 1.655885e+00 2.015692e+00 1.655885e+00 9.014179e-01 3.191248e-01 6.619656e-02 2.528987e-01 5.077323e-01 6.248163e-01 7.194267e-01 7.134676e-01 6.503300e-01 5.579953e-01 4.285678e-01 3.223988e-01 2.458148e-01 2.325583e-01 
1.261976e-01 1.282442e-01 1.653874e-01 2.508217e-01 3.505301e-01 4.665690e-01 5.639626e-01 6.313733e-01 6.589451e-01 6.023446e-01 5.013612e-01 3.399422e-01 2.412021e-01 4.776757e-01 9.501628e-01 1.567067e+00 1.903841e+00 1.567067e+00 9.501628e-01 4.776757e-01 2.412021e-01 3.399422e-01 5.013612e-01 6.023446e-01 6.589451e-01 6.313733e-01 5.639626e-01 4.665690e-01 3.505301e-01 2.508217e-01 1.653874e-01 1.282442e-01 
5.441873e-02 6.291995e-02 1.009887e-01 1.746341e-01 2.614752e-01 3.670019e-01 4.735061e-01 5.641373e-01 6.404923e-01 6.694533e-01 6.761019e-01 6.608844e-01 6.477514e-01 7.281944e-01 9.890000e-01 1.399194e+00 1.641765e+00 1.399194e+00 9.890000e-01 7.281944e-01 6.477514e-01 6.608844e-01 6.761019e-01 6.694533e-01 6.404923e-01 5.641373e-01 4.735061e-01 3.670019e-01 2.614752e-01 1.746341e-01 1.009887e-01 6.291995e-02 
1.158107e-02 2.821190e-02 6.130376e-02 1.197688e-01 1.997009e-01 3.046684e-01 4.341631e-01 5.676020e-01 7.090910e-01 8.289352e-01 9.244961e-01 9.927116e-01 1.011840e+00 1.025346e+00 1.038979e+00 1.112069e+00 1.177161e+00 1.112069e+00 1.038979e+00 1.025346e+00 1.011840e+00 9.927116e-01 9.244961e-01 8.289352e-01 7.090910e-01 5.676020e-01 4.341631e-01 3.046684e-01 1.997009e-01 1.197688e-01 6.130376e-02 2.821190e-02 
3.137095e-04 1.102372e-02 3.164902e-02 7.887310e-02 1.632499e-01 2.809801e-01 4.410723e-01 6.221961e-01 8.225198e-01 1.013306e+00 1.173397e+00 1.282860e+00 1.303248e+00 1.231944e+00 1.046145e+00 7.892006e-01 6.196382e-01 7.892006e-01 1.046145e+00 1.231944e+00 1.303248e+00 1.282860e+00 1.173397e+00 1.013306e+00 8.225198e-01 6.221961e-01 4.410723e-01 2.809801e-01 1.632499e-01 7.887310e-02 3.164902e-02 1.102372e-02 
