# vtk DataFile Version 2.0
Comment goes here
ASCII

DATASET STRUCTURED_POINTS
FIELD FieldData 1
TIME 1 1 double
0.88000000
DIMENSIONS    32   32   1

ORIGIN    0.000   0.000   0.000
SPACING   0.03125 0.03125   1.000

POINT_DATA   1024
SCALARS uMag double
LOOKUP_TABLE default

8.468923e-16 9.987230e-03 1.063499e-02 2.194490e-02 7.556125e-02 1.849319e-01 3.147538e-01 5.078649e-01 6.986534e-01 9.340471e-01 1.114012e+00 1.289940e+00 1.336095e+00 1.297826e+00 1.056731e+00 6.428864e-01 8.415153e-15 6.428864e-01 1.056731e+00 1.297826e+00 1.336095e+00 1.289940e+00 1.114012e+00 9.340471e-01 6.986534e-01 5.078649e-01 3.147538e-01 1.849319e-01 7.556125e-02 2.194490e-02 1.063499e-02 9.987230e-03 
9.987230e-03 1.653990e-02 2.715991e-02 4.339939e-02 9.655059e-02 1.938961e-01 3.146529e-01 4.876045e-01 6.557501e-01 8.618369e-01 1.012724e+00 1.166458e+00 1.204818e+00 1.190601e+00 1.029326e+00 8.031996e-01 6.428864e-01 8.031996e-01 1.029326e+00 1.190601e+00 1.204818e+00 1.166458e+00 1.012724e+00 8.618369e-01 6.557501e-01 4.876045e-01 3.146529e-01 1.938961e-01 9.655059e-02 4.339939e-02 2.715991e-02 1.653990e-02 
3.132363e-02 4.013924e-02 6.027416e-02 8.682662e-02 1.483494e-01 2.273797e-01 3.339019e-01 4.605722e-01 5.823058e-01 7.183790e-01 8.059183e-01 9.114359e-01 9.387788e-01 9.870148e-01 1.011921e+00 1.111192e+00 1.209892e+00 1.111192e+00 1.011921e+00 9.870148e-01 9.387788e-01 9.114359e-01 8.059183e-01 7.183790e-01 5.823058e-01 4.605722e-01 3.339019e-01 2.273797e-01 1.483494e-01 8.682662e-02 6.027416e-02 4.013924e-02 
7.717095e-02 8.631123e-02 1.075467e-01 1.449859e-01 2.200967e-01 2.957043e-01 3.971001e-01 4.824682e-01 5.582967e-01 5.979760e-01 5.885890e-01 5.756838e-01 5.111805e-01 6.063619e-01 9.194563e-01 1.403804e+00 1.705850e+00 1.403804e+00 9.194563e-01 6.063619e-01 5.111805e-01 5.756838e-01 5.885890e-01 5.979760e-01 5.582967e-01 4.824682e-01 3.971001e-01 2.957043e-01 2.200967e-01 1.449859e-01 1.075467e-01 8.631123e-02 
1.516209e-01 1.604620e-01 1.768424e-01 2.209521e-01 3.054954e-01 3.820428e-01 4.816428e-01 5.418359e-01 5.942988e-01 5.637265e-01 5.000145e-01 3.624962e-01 1.631676e-01 3.038939e-01 8.190298e-01 1.505185e+00 1.910750e+00 1.505185e+00 8.190298e-01 3.038939e-01 1.631676e-01 3.624962e-01 5.000145e-01 5.637265e-01 5.942988e-01 5.418359e-01 4.816428e-01 3.820428e-01 3.054954e-01 2.209521e-01 1.768424e-01 1.604620e-01 
2.668009e-01 2.686748e-01 2.640401e-01 3.005146e-01 3.884466e-01 4.700321e-01 5.707850e-01 6.241456e-01 6.750321e-01 6.201261e-01 5.935728e-01 4.360270e-01 3.302004e-01 3.284032e-01 8.818534e-01 1.623944e+00 1.977306e+00 1.623944e+00 8.818534e-01 3.284032e-01 3.302004e-01 4.360270e-01 5.935728e-01 6.201261e-01 6.750321e-01 6.241456e-01 5.707850e-01 4.700321e-01 3.884466e-01 3.005146e-01 2.640401e-01 2.686748e-01 
4.129269e-01 4.043165e-01 3.666171e-01 3.831558e-01 4.708162e-01 5.576568e-01 6.549641e-01 6.991025e-01 7.293474e-01 6.411546e-01 6.470605e-01 4.203410e-01 4.351841e-01 4.100996e-01 8.649149e-01 1.315916e+00 1.443573e+00 1.315916e+00 8.649149e-01 4.100996e-01 4.351841e-01 4.203410e-01 6.470605e-01 6.411546e-01 7.293474e-01 6.991025e-01 6.549641e-01 5.576568e-01 4.708162e-01 3.831558e-01 3.666171e-01 4.043165e-01 
5.959718e-01 5.702648e-01 4.775921e-01 4.438308e-01 5.165318e-01 6.086709e-01 7.042027e-01 7.470704e-01 7.428125e-01 5.812880e-01 6.018587e-01 4.204760e-01 6.771515e-01 1.171468e+00 1.636451e+00 1.359807e+00 1.027121e+00 1.359807e+00 1.636451e+00 1.171468e+00 6.771515e-01 4.204760e-01 6.018587e-01 5.812880e-01 7.428125e-01 7.470704e-01 7.042027e-01 6.086709e-01 5.165318e-01 4.438308e-01 4.775921e-01 5.702648e-01 
7.870926e-01 7.416761e-01 5.807115e-01 4.763872e-01 5.357247e-01 6.464833e-01 7.600383e-01 8.266451e-01 7.813793e-01 6.037111e-01 6.695961e-01 9.856316e-01 1.691999e+00 1.614401e+00 9.719447e-01 3.344219e-01 9.823391e-02 3.344219e-01 9.719447e-01 1.614401e+00 1.691999e+00 9.856316e-01 6.695961e-01 6.037111e-01 7.813793e-01 8.266451e-01 7.600383e-01 6.464833e-01 5.357247e-01 4.763872e-01 5.807115e-01 7.416761e-01 
9.845101e-01 9.195670e-01 6.781358e-01 4.756197e-01 4.957317e-01 6.303279e-01 7.776877e-01 9.356417e-01 8.599964e-01 3.925849e-01 4.637103e-01 9.983804e-01 2.624021e-01 4.760258e-01 6.219628e-01 3.737431e-01 3.902782e-01 3.737431e-01 6.219628e-01 4.760258e-01 2.624021e-01 9.983804e-01 4.637103e-01 3.925849e-01 8.599964e-01 9.356417e-01 7.776877e-01 6.303279e-01 4.957317e-01 4.756197e-01 6.781358e-01 9.195670e-01 
1.152106e+00 1.066698e+00 7.421403e-01 4.307973e-01 4.248085e-01 6.143938e-01 8.577955e-01 1.149870e+00 1.023819e+00 2.154277e-01 1.030301e-01 3.147449e-01 4.038888e-01 2.013653e-01 5.769464e-01 6.206731e-01 5.256171e-01 6.206731e-01 5.769464e-01 2.013653e-01 4.038888e-01 3.147449e-01 1.030301e-01 2.154277e-01 1.023819e+00 1.149870e+00 8.577955e-01 6.143938e-01 4.248085e-01 4.307973e-01 7.421403e-01 1.066698e+00 
1.277628e+00 1.180960e+00 7.837568e-01 3.894775e-01 2.886574e-01 5.112786e-01 8.641394e-01 1.714021e+00 1.411567e+00 2.652328e-01 1.411657e-01 3.802361e-01 8.268294e-01 8.170929e-01 5.114501e-01 3.481111e-01 3.085453e-01 3.481111e-01 5.114501e-01 8.170929e-01 8.268294e-01 3.802361e-01 1.411657e-01 2.652328e-01 1.411567e+00 1.714021e+00 8.641394e-01 5.112786e-01 2.886574e-01 3.894775e-01 7.837568e-01 1.180960e+00 
1.326498e+00 1.219255e+00 7.903708e-01 3.690202e-01 1.850372e-01 5.370491e-01 1.391624e+00 2.588367e+00 3.466627e-01 1.371190e+00 3.952117e-01 5.374255e-01 2.217837e-01 1.040765e-01 1.561499e-01 7.864324e-02 6.239488e-02 7.864324e-02 1.561499e-01 1.040765e-01 2.217837e-01 5.374255e-01 3.952117e-01 1.371190e+00 3.466627e-01 2.588367e+00 1.391624e+00 5.370491e-01 1.850372e-01 3.690202e-01 7.903708e-01 1.219255e+00 
1.244956e+00 1.156747e+00 7.883873e-01 4.878625e-01 4.575662e-01 6.639050e-01 2.108450e+00 1.907024e+00 1.862327e+00 1.233416e+00 6.499449e-01 6.801604e-02 1.718499e-01 2.520318e-01 7.319579e-02 6.072254e-02 1.585413e-01 6.072254e-02 7.319579e-02 2.520318e-01 1.718499e-01 6.801604e-02 6.499449e-01 1.233416e+00 1.862327e+00 1.907024e+00 2.108450e+00 6.639050e-01 4.575662e-01 4.878625e-01 7.883873e-01 1.156747e+00 
1.014622e+00 9.805144e-01 8.810005e-01 7.867218e-01 8.745744e-01 8.193547e-01 2.001433e+00 6.467598e-01 1.824006e+00 3.392045e-01 8.250388e-01 1.849195e-02 1.047037e-01 1.594024e-01 1.095382e-01 8.017371e-02 1.958108e-02 8.017371e-02 1.095382e-01 1.594024e-01 1.047037e-01 1.849195e-02 8.250388e-01 3.392045e-01 1.824006e+00 6.467598e-01 2.001433e+00 8.193547e-01 8.745744e-01 7.867218e-01 8.810005e-01 9.805144e-01 
5.688561e-01 7.161588e-01 9.782162e-01 1.119036e+00 1.198434e+00 1.106686e+00 1.216085e+00 8.631992e-01 7.831886e-01 7.407014e-01 4.846482e-01 1.663142e-01 2.178367e-01 1.483994e-01 7.075140e-02 2.394587e-02 1.401646e-02 2.394587e-02 7.075140e-02 1.483994e-01 2.178367e-01 1.663142e-01 4.846482e-01 7.407014e-01 7.831886e-01 8.631992e-01 1.216085e+00 1.106686e+00 1.198434e+00 1.119036e+00 9.782162e-01 7.161588e-01 
1.350494e-14 5.688561e-01 1.010978e+00 1.231506e+00 1.261302e+00 1.135311e+00 2.306101e-01 1.001087e+00 2.894821e-01 5.496986e-01 3.751384e-01 3.493842e-01 3.091137e-01 1.092684e-01 4.370585e-02 1.401646e-02 2.599847e-14 1.401646e-02 4.370585e-02 1.092684e-01 3.091137e-01 3.493842e-01 3.751384e-01 5.496986e-01 2.894821e-01 1.001087e+00 2.306101e-01 1.135311e+00 1.261302e+00 1.231506e+00 1.010978e+00 5.688561e-01 
5.688561e-01 7.161588e-01 9.782162e-01 1.119036e+00 1.198434e+00 1.106686e+00 1.216085e+00 8.631992e-01 7.831886e-01 7.407014e-01 4.846482e-01 1.663142e-01 2.178367e-01 1.483994e-01 7.075140e-02 2.394587e-02 1.401646e-02 2.394587e-02 7.075140e-02 1.483994e-01 2.178367e-01 1.663142e-01 4.846482e-01 7.407014e-01 7.831886e-01 8.631992e-01 1.216085e+00 1.106686e+00 1.198434e+00 1.119036e+00 9.782162e-01 7.161588e-01 
1.014622e+00 9.805144e-01 8.810005e-01 7.867218e-01 8.745744e-01 8.193547e-01 2.001433e+00 6.467598e-01 1.824006e+00 3.392045e-01 8.250388e-01 1.849195e-02 1.047037e-01 1.594024e-01 1.095382e-01 8.017371e-02 1.958108e-02 8.017371e-02 1.095382e-01 1.594024e-01 1.047037e-01 1.849195e-02 8.250388e-01 3.392045e-01 1.824006e+00 6.467598e-01 2.001433e+00 8.193547e-01 8.745744e-01 7.867218e-01 8.810005e-01 9.805144e-01 
1.244956e+00 1.156747e+00 7.883873e-01 4.878625e-01 4.575662e-01 6.639050e-01 2.108450e+00 1.907024e+00 1.862327e+00 1.233416e+00 6.499449e-01 6.801604e-02 1.718499e-01 2.520318e-01 7.319579e-02 6.072254e-02 1.585413e-01 6.072254e-02 7.319579e-02 2.520318e-01 1.718499e-01 6.801604e-02 6.499449e-01 1.233416e+00 1.862327e+00 1.907024e+00 2.108450e+00 6.639050e-01 4.575662e-01 4.878625e-01 7.883873e-01 1.156747e+00 
1.326498e+00 1.219255e+00 7.903708e-01 3.690202e-01 1.850372e-01 5.370491e-01 1.391624e+00 2.588367e+00 3.466627e-01 1.371190e+00 3.952117e-01 5.374255e-01 2.217837e-01 1.040765e-01 1.561499e-01 7.864324e-02 6.239488e-02 7.864324e-02 1.561499e-01 1.040765e-01 2.217837e-01 5.374255e-01 3.952117e-01 1.371190e+00 3.466627e-01 2.588367e+00 1.391624e+00 5.370491e-01 1.850372e-01 3.690202e-01 7.903708e-01 1.219255e+00 
1.277628e+00 1.180960e+00 7.837568e-01 3.894775e-01 2.886574e-01 5.112786e-01 8.641394e-01 1.714021e+00 1.411567e+00 2.652328e-01 1.411657e-01 3.802361e-01 8.268294e-01 8.170929e-01 5.114501e-01 3.481111e-01 3.085453e-01 3.481111e-01 5.114501e-01 8.170929e-01 8.268294e-01 3.802361e-01 1.411657e-01 2.652328e-01 1.411567e+00 1.714021e+00 8.641394e-01 5.112786e-01 2.886574e-01 3.894775e-01 7.837568e-01 1.180960e+00 
1.152106e+00 1.066698e+00 7.421403e-01 4.307973e-01 4.248085e-01 6.143938e-01 8.577955e-01 1.149870e+00 1.023819e+00 2.154277e-01 1.030301e-01 3.147449e-01 4.038888e-01 2.013653e-01 5.769464e-01 6.206731e-01 5.256171e-01 6.206731e-01 5.769464e-01 2.013653e-01 4.038888e-01 3.147449e-01 1.030301e-01 2.154277e-01 1.023819e+00 1.149870e+00 8.577955e-01 6.143938e-01 4.248085e-01 4.307973e-01 7.421403e-01 1.066698e+00 
9.845101e-01 9.195670e-01 6.781358e-01 4.756197e-01 4.957317e-01 6.303279e-01 7.776877e-01 9.356417e-01 8.599964e-01 3.925849e-01 4.637103e-01 9.983804e-01 2.624021e-01 4.760258e-01 6.219628e-01 3.737431e-01 3.902782e-01 3.737431e-01 6.219628e-01 4.760258e-01 2.624021e-01 9.983804e-01 4.637103e-01 3.925849e-01 8.599964e-01 9.356417e-01 7.776877e-01 6.303279e-01 4.957317e-01 4.756197e-01 6.781358e-01 9.195670e-01 
7.870926e-01 7.416761e-01 5.807115e-01 4.763872e-01 5.357247e-01 6.464833e-01 7.600383e-01 8.266451e-01 7.813793e-01 6.037111e-01 6.695961e-01 9.856316e-01 1.691999e+00 1.614401e+00 9.719447e-01 3.344219e-01 9.823391e-02 3.344219e-01 9.719447e-01 1.614401e+00 1.691999e+00 9.856316e-01 6.695961e-01 6.037111e-01 7.813793e-01 8.266451e-01 7.600383e-01 6.464833e-01 5.357247e-01 4.763872e-01 5.807115e-01 7.416761e-01 
5.959718e-01 5.702648e-01 4.775921e-01 4.438308e-01 5.165318e-01 6.086709e-01 7.042027e-01 7.470704e-01 7.428125e-01 5.812880e-01 6.018587e-01 4.204760e-01 6.771515e-01 1.171468e+00 1.636451e+00 1.359807e+00 1.027121e+00 1.359807e+00 1.636451e+00 1.171468e+00 6.771515e-01 4.204760e-01 6.018587e-01 5.812880e-01 7.428125e-01 7.470704e-01 7.042027e-01 6.086709e-01 5.165318e-01 4.438308e-01 4.775921e-01 5.702648e-01 
4.129269e-01 4.043165e-01 3.666171e-01 3.831558e-01 4.708162e-01 5.576568e-01 6.549641e-01 6.991025e-01 7.293474e-01 6.411546e-01 6.470605e-01 4.203410e-01 4.351841e-01 4.100996e-01 8.649149e-01 1.315916e+00 1.443573e+00 1.315916e+00 8.649149e-01 4.100996e-01 4.351841e-01 4.203410e-01 6.470605e-01 6.411546e-01 7.293474e-01 6.991025e-01 6.549641e-01 5.576568e-01 4.708162e-01 3.831558e-01 3.666171e-01 4.043165e-01 
2.668009e-01 2.686748e-01 2.640401e-01 3.005146e-01 3.884466e-01 4.700321e-01 5.707850e-01 6.241456e-01 6.750321e-01 6.201261e-01 5.935728e-01 4.360270e-01 3.302004e-01 3.284032e-01 8.818534e-01 1.623944e+00 1.977306e+00 1.623944e+00 8.818534e-01 3.284032e-01 3.302004e-01 4.360270e-01 5.935728e-01 6.201261e-01 6.750321e-01 6.241456e-01 5.707850e-01 4.700321e-01 3.884466e-01 3.005146e-01 2.640401e-01 2.686748e-01 
1.516209e-01 1.604620e-01 1.768424e-01 2.209521e-01 3.054954e-01 3.820428e-01 4.816428e-01 5.418359e-01 5.942988e-01 5.637265e-01 5.000145e-01 3.624962e-01 1.631676e-01 3.038939e-01 8.190298e-01 1.505185e+00 1.910750e+00 1.505185e+00 8.190298e-01 3.038939e-01 1.631676e-01 3.624962e-01 5.000145e-01 5.637265e-01 5.942988e-01 5.418359e-01 4.816428e-01 3.820428e-01 3.054954e-01 2.209521e-01 1.768424e-01 1.604620e-01 
7.717095e-02 8.631123e-02 1.075467e-01 1.449859e-01 2.200967e-01 2.957043e-01 3.971001e-01 4.824682e-01 5.582967e-01 5.979760e-01 5.885890e-01 5.756838e-01 5.111805e-01 6.063619e-01 9.194563e-01 1.403804e+00 1.705850e+00 1.403804e+00 9.194563e-01 6.063619e-01 5.111805e-01 5.756838e-01 5.885890e-01 5.979760e-01 5.582967e-01 4.824682e-01 3.971001e-01 2.957043e-01 2.200967e-01 1.449859e-01 1.075467e-01 8.631123e-02 
3.132363e-02 4.013924e-02 6.027416e-02 8.682662e-02 1.483494e-01 2.273797e-01 3.339019e-01 4.605722e-01 5.823058e-01 7.183790e-01 8.059183e-01 9.114359e-01 9.387788e-01 9.870148e-01 1.011921e+00 1.111192e+00 1.209892e+00 1.111192e+00 1.011921e+00 9.870148e-01 9.387788e-01 9.114359e-01 8.059183e-01 7.183790e-01 5.823058e-01 4.605722e-01 3.339019e-01 2.273797e-01 1.483494e-01 8.682662e-02 6.027416e-02 4.013924e-02 
9.987230e-03 1.653990e-02 2.715991e-02 4.339939e-02 9.655059e-02 1.938961e-01 3.146529e-01 4.876045e-01 6.557501e-01 8.618369e-01 1.012724e+00 1.166458e+00 1.204818e+00 1.190601e+00 1.029326e+00 8.031996e-01 6.428864e-01 8.031996e-01 1.029326e+00 1.190601e+00 1.204818e+00 1.166458e+00 1.012724e+00 8.618369e-01 6.557501e-01 4.876045e-01 3.146529e-01 1.938961e-01 9.655059e-02 4.339939e-02 2.715991e-02 1.653990e-02 
