# vtk DataFile Version 2.0
Comment goes here
ASCII

DATASET STRUCTURED_POINTS
FIELD FieldData 1
TIME 1 1 double
0.38000000
DIMENSIONS    32   32   1

ORIGIN    0.000   0.000   0.000
SPACING   0.03125 0.03125   1.000

POINT_DATA   1024
SCALARS uMag double
LOOKUP_TABLE default

3.717625e-15 1.170552e-01 2.305342e-01 3.358468e-01 4.294816e-01 5.056179e-01 5.562450e-01 5.756497e-01 5.431136e-01 4.604201e-01 2.918815e-01 7.087690e-02 2.096736e-01 4.418241e-01 5.610335e-01 4.515492e-01 3.507420e-14 4.515492e-01 5.610335e-01 4.418241e-01 2.096736e-01 7.087690e-02 2.918815e-01 4.604201e-01 5.431136e-01 5.756497e-01 5.562450e-01 5.056179e-01 4.294816e-01 3.358468e-01 2.305342e-01 1.170552e-01 
1.170552e-01 1.659219e-01 2.594316e-01 3.570141e-01 4.477679e-01 5.226408e-01 5.757584e-01 5.990872e-01 5.785282e-01 5.181994e-01 3.978021e-01 2.866874e-01 2.926428e-01 4.105892e-01 5.195530e-01 5.292016e-01 4.515492e-01 5.292016e-01 5.195530e-01 4.105892e-01 2.926428e-01 2.866874e-01 3.978021e-01 5.181994e-01 5.785282e-01 5.990872e-01 5.757584e-01 5.226408e-01 4.477679e-01 3.570141e-01 2.594316e-01 1.659219e-01 
2.386928e-01 2.661316e-01 3.321427e-01 4.132303e-01 4.957394e-01 5.687895e-01 6.282718e-01 6.673174e-01 6.794281e-01 6.783776e-01 6.442837e-01 6.147541e-01 5.251897e-01 3.961346e-01 3.612094e-01 6.454844e-01 8.974736e-01 6.454844e-01 3.612094e-01 3.961346e-01 5.251897e-01 6.147541e-01 6.442837e-01 6.783776e-01 6.794281e-01 6.673174e-01 6.282718e-01 5.687895e-01 4.957394e-01 4.132303e-01 3.321427e-01 2.661316e-01 
3.659623e-01 3.849072e-01 4.338042e-01 5.005249e-01 5.752495e-01 6.462520e-01 7.154229e-01 7.695066e-01 8.183296e-01 8.638147e-01 8.999400e-01 9.348933e-01 8.695375e-01 6.902541e-01 3.278457e-01 6.849762e-01 1.217678e+00 6.849762e-01 3.278457e-01 6.902541e-01 8.695375e-01 9.348933e-01 8.999400e-01 8.638147e-01 8.183296e-01 7.695066e-01 7.154229e-01 6.462520e-01 5.752495e-01 5.005249e-01 4.338042e-01 3.849072e-01 
5.061149e-01 5.198872e-01 5.556167e-01 6.093390e-01 6.744411e-01 7.432673e-01 8.202156e-01 8.915332e-01 9.770251e-01 1.075608e+00 1.185113e+00 1.328136e+00 1.338523e+00 1.184275e+00 6.093699e-01 7.632129e-01 1.419554e+00 7.632129e-01 6.093699e-01 1.184275e+00 1.338523e+00 1.328136e+00 1.185113e+00 1.075608e+00 9.770251e-01 8.915332e-01 8.202156e-01 7.432673e-01 6.744411e-01 6.093390e-01 5.556167e-01 5.198872e-01 
6.547463e-01 6.651041e-01 6.911623e-01 7.355627e-01 7.939970e-01 8.637010e-01 9.525014e-01 1.039859e+00 1.176814e+00 1.296816e+00 1.474682e+00 1.554342e+00 1.578054e+00 1.712861e+00 1.572453e+00 1.400642e+00 6.307851e-01 1.400642e+00 1.572453e+00 1.712861e+00 1.578054e+00 1.554342e+00 1.474682e+00 1.296816e+00 1.176814e+00 1.039859e+00 9.525014e-01 8.637010e-01 7.939970e-01 7.355627e-01 6.911623e-01 6.651041e-01 
8.228406e-01 8.282065e-01 8.415909e-01 8.727137e-01 9.202166e-01 9.894796e-01 1.086117e+00 1.200114e+00 1.394133e+00 1.520282e+00 1.606116e+00 1.927946e+00 2.209613e+00 2.462488e+00 2.449456e+00 1.551691e+00 1.268818e+00 1.551691e+00 2.449456e+00 2.462488e+00 2.209613e+00 1.927946e+00 1.606116e+00 1.520282e+00 1.394133e+00 1.200114e+00 1.086117e+00 9.894796e-01 9.202166e-01 8.727137e-01 8.415909e-01 8.282065e-01 
9.981379e-01 9.970858e-01 9.931144e-01 1.009095e+00 1.045156e+00 1.123702e+00 1.243609e+00 1.436518e+00 1.666319e+00 1.675436e+00 1.781897e+00 2.010245e+00 2.281635e+00 1.936012e+00 1.957058e+00 2.049215e+00 2.086916e+00 2.049215e+00 1.957058e+00 1.936012e+00 2.281635e+00 2.010245e+00 1.781897e+00 1.675436e+00 1.666319e+00 1.436518e+00 1.243609e+00 1.123702e+00 1.045156e+00 1.009095e+00 9.931144e-01 9.970858e-01 
1.195200e+00 1.181226e+00 1.149621e+00 1.136677e+00 1.157623e+00 1.253343e+00 1.436008e+00 1.711784e+00 1.682241e+00 1.353865e+00 1.281660e+00 1.129426e+00 1.438263e+00 1.854020e+00 1.918224e+00 1.850092e+00 1.627205e+00 1.850092e+00 1.918224e+00 1.854020e+00 1.438263e+00 1.129426e+00 1.281660e+00 1.353865e+00 1.682241e+00 1.711784e+00 1.436008e+00 1.253343e+00 1.157623e+00 1.136677e+00 1.149621e+00 1.181226e+00 
1.385815e+00 1.354263e+00 1.279946e+00 1.228958e+00 1.232721e+00 1.378906e+00 1.648011e+00 1.645231e+00 8.892235e-01 4.472294e-01 8.529205e-01 1.595547e+00 1.928674e+00 1.479632e+00 1.318848e+00 1.643614e+00 1.666521e+00 1.643614e+00 1.318848e+00 1.479632e+00 1.928674e+00 1.595547e+00 8.529205e-01 4.472294e-01 8.892235e-01 1.645231e+00 1.648011e+00 1.378906e+00 1.232721e+00 1.228958e+00 1.279946e+00 1.354263e+00 
1.577943e+00 1.518685e+00 1.388174e+00 1.276515e+00 1.261657e+00 1.469483e+00 1.570803e+00 8.062241e-01 6.545643e-01 1.105736e+00 1.605272e+00 1.767601e+00 1.266579e+00 1.048348e+00 1.390141e+00 1.823394e+00 2.002269e+00 1.823394e+00 1.390141e+00 1.048348e+00 1.266579e+00 1.767601e+00 1.605272e+00 1.105736e+00 6.545643e-01 8.062241e-01 1.570803e+00 1.469483e+00 1.261657e+00 1.276515e+00 1.388174e+00 1.518685e+00 
1.714180e+00 1.621479e+00 1.421250e+00 1.240099e+00 1.199289e+00 1.442821e+00 9.361514e-01 1.207720e+00 1.329121e+00 1.478454e+00 2.112563e+00 1.831795e+00 1.228245e+00 1.162513e+00 1.329314e+00 1.565144e+00 1.722549e+00 1.565144e+00 1.329314e+00 1.162513e+00 1.228245e+00 1.831795e+00 2.112563e+00 1.478454e+00 1.329121e+00 1.207720e+00 9.361514e-01 1.442821e+00 1.199289e+00 1.240099e+00 1.421250e+00 1.621479e+00 
1.785913e+00 1.654757e+00 1.403160e+00 1.147951e+00 1.194385e+00 1.242417e+00 1.362094e+00 1.708063e+00 1.285807e+00 2.095245e+00 2.517781e+00 1.776471e+00 1.230843e+00 1.211057e+00 1.146755e+00 1.320046e+00 1.435736e+00 1.320046e+00 1.146755e+00 1.211057e+00 1.230843e+00 1.776471e+00 2.517781e+00 2.095245e+00 1.285807e+00 1.708063e+00 1.362094e+00 1.242417e+00 1.194385e+00 1.147951e+00 1.403160e+00 1.654757e+00 
1.704296e+00 1.545819e+00 1.312137e+00 1.094211e+00 1.310533e+00 1.364667e+00 2.006745e+00 1.617650e+00 1.596888e+00 2.593681e+00 2.138964e+00 1.451313e+00 1.220746e+00 1.138621e+00 9.456295e-01 9.468765e-01 9.485975e-01 9.468765e-01 9.456295e-01 1.138621e+00 1.220746e+00 1.451313e+00 2.138964e+00 2.593681e+00 1.596888e+00 1.617650e+00 2.006745e+00 1.364667e+00 1.310533e+00 1.094211e+00 1.312137e+00 1.545819e+00 
1.416577e+00 1.318819e+00 1.253834e+00 1.331589e+00 1.559461e+00 1.881290e+00 2.032212e+00 1.713146e+00 1.989101e+00 2.276006e+00 1.455997e+00 1.003870e+00 9.995301e-01 8.403575e-01 6.983795e-01 6.117205e-01 5.537558e-01 6.117205e-01 6.983795e-01 8.403575e-01 9.995301e-01 1.003870e+00 1.455997e+00 2.276006e+00 1.989101e+00 1.713146e+00 2.032212e+00 1.881290e+00 1.559461e+00 1.331589e+00 1.253834e+00 1.318819e+00 
8.325875e-01 9.986800e-01 1.332453e+00 1.664355e+00 1.818402e+00 2.147442e+00 1.940996e+00 1.981903e+00 2.197350e+00 1.616835e+00 7.821168e-01 4.915675e-01 6.665540e-01 5.551195e-01 5.001988e-01 3.398049e-01 2.221870e-01 3.398049e-01 5.001988e-01 5.551195e-01 6.665540e-01 4.915675e-01 7.821168e-01 1.616835e+00 2.197350e+00 1.981903e+00 1.940996e+00 2.147442e+00 1.818402e+00 1.664355e+00 1.332453e+00 9.986800e-01 
1.344192e-14 8.325875e-01 1.408104e+00 1.783620e+00 1.881209e+00 2.179206e+00 1.834771e+00 1.978048e+00 2.158457e+00 1.103187e+00 3.417343e-01 2.160174e-01 4.550850e-01 4.001176e-01 3.939848e-01 2.221870e-01 4.706981e-15 2.221870e-01 3.939848e-01 4.001176e-01 4.550850e-01 2.160174e-01 3.417343e-01 1.103187e+00 2.158457e+00 1.978048e+00 1.834771e+00 2.179206e+00 1.881209e+00 1.783620e+00 1.408104e+00 8.325875e-01 
8.325875e-01 9.986800e-01 1.332453e+00 1.664355e+00 1.818402e+00 2.147442e+00 1.940996e+00 1.981903e+00 2.197350e+00 1.616835e+00 7.821168e-01 4.915675e-01 6.665540e-01 5.551195e-01 5.001988e-01 3.398049e-01 2.221870e-01 3.398049e-01 5.001988e-01 5.551195e-01 6.665540e-01 4.915675e-01 7.821168e-01 1.616835e+00 2.197350e+00 1.981903e+00 1.940996e+00 2.147442e+00 1.818402e+00 1.664355e+00 1.332453e+00 9.986800e-01 
1.416577e+00 1.318819e+00 1.253834e+00 1.331589e+00 1.559461e+00 1.881290e+00 2.032212e+00 1.713146e+00 1.989101e+00 2.276006e+00 1.455997e+00 1.003870e+00 9.995301e-01 8.403575e-01 6.983795e-01 6.117205e-01 5.537558e-01 6.117205e-01 6.983795e-01 8.403575e-01 9.995301e-01 1.003870e+00 1.455997e+00 2.276006e+00 1.989101e+00 1.713146e+00 2.032212e+00 1.881290e+00 1.559461e+00 1.331589e+00 1.253834e+00 1.318819e+00 
1.704296e+00 1.545819e+00 1.312137e+00 1.094211e+00 1.310533e+00 1.364667e+00 2.006745e+00 1.617650e+00 1.596888e+00 2.593681e+00 2.138964e+00 1.451313e+00 1.220746e+00 1.138621e+00 9.456295e-01 9.468765e-01 9.485975e-01 9.468765e-01 9.456295e-01 1.138621e+00 1.220746e+00 1.451313e+00 2.138964e+00 2.593681e+00 1.596888e+00 1.617650e+00 2.006745e+00 1.364667e+00 1.310533e+00 1.094211e+00 1.312137e+00 1.545819e+00 
1.785913e+00 1.654757e+00 1.403160e+00 1.147951e+00 1.194385e+00 1.242417e+00 1.362094e+00 1.708063e+00 1.285807e+00 2.095245e+00 2.517781e+00 1.776471e+00 1.230843e+00 1.211057e+00 1.146755e+00 1.320046e+00 1.435736e+00 1.320046e+00 1.146755e+00 1.211057e+00 1.230843e+00 1.776471e+00 2.517781e+00 2.095245e+00 1.285807e+00 1.708063e+00 1.362094e+00 1.242417e+00 1.194385e+00 1.147951e+00 1.403160e+00 1.654757e+00 
1.714180e+00 1.621479e+00 1.421250e+00 1.240099e+00 1.199289e+00 1.442821e+00 9.361514e-01 1.207720e+00 1.329121e+00 1.478454e+00 2.112563e+00 1.831795e+00 1.228245e+00 1.162513e+00 1.329314e+00 1.565144e+00 1.722549e+00 1.565144e+00 1.329314e+00 1.162513e+00 1.228245e+00 1.831795e+00 2.112563e+00 1.478454e+00 1.329121e+00 1.207720e+00 9.361514e-01 1.442821e+00 1.199289e+00 1.240099e+00 1.421250e+00 1.621479e+00 
1.577943e+00 1.518685e+00 1.388174e+00 1.276515e+00 1.261657e+00 1.469483e+00 1.570803e+00 8.062241e-01 6.545643e-01 1.105736e+00 1.605272e+00 1.767601e+00 1.266579e+00 1.048348e+00 1.390141e+00 1.823394e+00 2.002269e+00 1.823394e+00 1.390141e+00 1.048348e+00 1.266579e+00 1.767601e+00 1.605272e+00 1.105736e+00 6.545643e-01 8.062241e-01 1.570803e+00 1.469483e+00 1.261657e+00 1.276515e+00 1.388174e+00 1.518685e+00 
1.385815e+00 1.354263e+00 1.279946e+00 1.228958e+00 1.232721e+00 1.378906e+00 1.648011e+00 1.645231e+00 8.892235e-01 4.472294e-01 8.529205e-01 1.595547e+00 1.928674e+00 1.479632e+00 1.318848e+00 1.643614e+00 1.666521e+00 1.643614e+00 1.318848e+00 1.479632e+00 1.928674e+00 1.595547e+00 8.529205e-01 4.472294e-01 8.892235e-01 1.645231e+00 1.648011e+00 1.378906e+00 1.232721e+00 1.228958e+00 1.279946e+00 1.354263e+00 
1.195200e+00 1.181226e+00 1.149621e+00 1.136677e+00 1.157623e+00 1.253343e+00 1.436008e+00 1.711784e+00 1.682241e+00 1.353865e+00 1.281660e+00 1.129426e+00 1.438263e+00 1.854020e+00 1.918224e+00 1.850092e+00 1.627205e+00 1.850092e+00 1.918224e+00 1.854020e+00 1.438263e+00 1.129426e+00 1.281660e+00 1.353865e+00 1.682241e+00 1.711784e+00 1.436008e+00 1.253343e+00 1.157623e+00 1.136677e+00 1.149621e+00 1.181226e+00 
9.981379e-01 9.970858e-01 9.931144e-01 1.009095e+00 1.045156e+00 1.123702e+00 1.243609e+00 1.436518e+00 1.666319e+00 1.675436e+00 1.781897e+00 2.010245e+00 2.281635e+00 1.936012e+00 1.957058e+00 2.049215e+00 2.086916e+00 2.049215e+00 1.957058e+00 1.936012e+00 2.281635e+00 2.010245e+00 1.781897e+00 1.675436e+00 1.666319e+00 1.436518e+00 1.243609e+00 1.123702e+00 1.045156e+00 1.009095e+00 9.931144e-01 9.970858e-01 
8.228406e-01 8.282065e-01 8.415909e-01 8.727137e-01 9.202166e-01 9.894796e-01 1.086117e+00 1.200114e+00 1.394133e+00 1.520282e+00 1.606116e+00 1.927946e+00 2.209613e+00 2.462488e+00 2.449456e+00 1.551691e+00 1.268818e+00 1.551691e+00 2.449456e+00 2.462488e+00 2.209613e+00 1.927946e+00 1.606116e+00 1.520282e+00 1.394133e+00 1.200114e+00 1.086117e+00 9.894796e-01 9.202166e-01 8.727137e-01 8.415909e-01 8.282065e-01 
6.547463e-01 6.651041e-01 6.911623e-01 7.355627e-01 7.939970e-01 8.637010e-01 9.525014e-01 1.039859e+00 1.176814e+00 1.296816e+00 1.474682e+00 1.554342e+00 1.578054e+00 1.712861e+00 1.572453e+00 1.400642e+00 6.307851e-01 1.400642e+00 1.572453e+00 1.712861e+00 1.578054e+00 1.554342e+00 1.474682e+00 1.296816e+00 1.176814e+00 1.039859e+00 9.525014e-01 8.637010e-01 7.939970e-01 7.355627e-01 6.911623e-01 6.651041e-01 
5.061149e-01 5.198872e-01 5.556167e-01 6.093390e-01 6.744411e-01 7.432673e-01 8.202156e-01 8.915332e-01 9.770251e-01 1.075608e+00 1.185113e+00 1.328136e+00 1.338523e+00 1.184275e+00 6.093699e-01 7.632129e-01 1.419554e+00 7.632129e-01 6.093699e-01 1.184275e+00 1.338523e+00 1.328136e+00 1.185113e+00 1.075608e+00 9.770251e-01 8.915332e-01 8.202156e-01 7.432673e-01 6.744411e-01 6.093390e-01 5.556167e-01 5.198872e-01 
3.659623e-01 3.849072e-01 4.338042e-01 5.005249e-01 5.752495e-01 6.462520e-01 7.154229e-01 7.695066e-01 8.183296e-01 8.638147e-01 8.999400e-01 9.348933e-01 8.695375e-01 6.902541e-01 3.278457e-01 6.849762e-01 1.217678e+00 6.849762e-01 3.278457e-01 6.902541e-01 8.695375e-01 9.348933e-01 8.999400e-01 8.638147e-01 8.183296e-01 7.695066e-01 7.154229e-01 6.462520e-01 5.752495e-01 5.005249e-01 4.338042e-01 3.849072e-01 
2.386928e-01 2.661316e-01 3.321427e-01 4.132303e-01 4.957394e-01 5.687895e-01 6.282718e-01 6.673174e-01 6.794281e-01 6.783776e-01 6.442837e-01 6.147541e-01 5.251897e-01 3.961346e-01 3.612094e-01 6.454844e-01 8.974736e-01 6.454844e-01 3.612094e-01 3.961346e-01 5.251897e-01 6.147541e-01 6.442837e-01 6.783776e-01 6.794281e-01 6.673174e-01 6.282718e-01 5.687895e-01 4.957394e-01 4.132303e-01 3.321427e-01 2.661316e-01 
1.170552e-01 1.659219e-01 2.594316e-01 3.570141e-01 4.477679e-01 5.226408e-01 5.757584e-01 5.990872e-01 5.785282e-01 5.181994e-01 3.978021e-01 2.866874e-01 2.926428e-01 4.105892e-01 5.195530e-01 5.292016e-01 4.515492e-01 5.292016e-01 5.195530e-01 4.105892e-01 2.926428e-01 2.866874e-01 3.978021e-01 5.181994e-01 5.785282e-01 5.990872e-01 5.757584e-01 5.226408e-01 4.477679e-01 3.570141e-01 2.594316e-01 1.659219e-01 
