# vtk DataFile Version 2.0
Comment goes here
ASCII

DATASET STRUCTURED_POINTS
FIELD FieldData 1
TIME 1 1 double
1.12000000
DIMENSIONS    32   32   1

ORIGIN    0.000   0.000   0.000
SPACING   0.03125 0.03125   1.000

POINT_DATA   1024
SCALARS uMag double
LOOKUP_TABLE default

6.854866e-14 2.670865e-02 3.995274e-02 1.676859e-02 3.698019e-02 1.453489e-01 2.819926e-01 4.652862e-01 6.498795e-01 8.470554e-01 1.001498e+00 1.126490e+00 1.157049e+00 1.107252e+00 8.899370e-01 5.128037e-01 2.564897e-13 5.128037e-01 8.899370e-01 1.107252e+00 1.157049e+00 1.126490e+00 1.001498e+00 8.470554e-01 6.498795e-01 4.652862e-01 2.819926e-01 1.453489e-01 3.698019e-02 1.676859e-02 3.995274e-02 2.670865e-02 
2.670865e-02 4.066214e-02 5.771350e-02 5.849013e-02 8.107095e-02 1.539657e-01 2.671166e-01 4.214016e-01 5.773752e-01 7.466036e-01 8.772217e-01 9.896380e-01 1.020997e+00 9.986654e-01 8.664060e-01 6.473668e-01 5.128037e-01 6.473668e-01 8.664060e-01 9.986654e-01 1.020997e+00 9.896380e-01 8.772217e-01 7.466036e-01 5.773752e-01 4.214016e-01 2.671166e-01 1.539657e-01 8.107095e-02 5.849013e-02 5.771350e-02 4.066214e-02 
7.083372e-02 8.020430e-02 9.876538e-02 1.188161e-01 1.612647e-01 2.158103e-01 2.958013e-01 3.911645e-01 4.847850e-01 5.808714e-01 6.498077e-01 7.073568e-01 7.171254e-01 7.423179e-01 7.768240e-01 8.794788e-01 9.403973e-01 8.794788e-01 7.768240e-01 7.423179e-01 7.171254e-01 7.073568e-01 6.498077e-01 5.808714e-01 4.847850e-01 3.911645e-01 2.958013e-01 2.158103e-01 1.612647e-01 1.188161e-01 9.876538e-02 8.020430e-02 
1.385403e-01 1.475676e-01 1.679975e-01 2.064181e-01 2.736246e-01 3.364879e-01 4.070061e-01 4.509463e-01 4.666592e-01 4.434066e-01 3.811782e-01 3.024271e-01 2.446318e-01 4.123118e-01 7.451063e-01 1.040188e+00 1.179634e+00 1.040188e+00 7.451063e-01 4.123118e-01 2.446318e-01 3.024271e-01 3.811782e-01 4.434066e-01 4.666592e-01 4.509463e-01 4.070061e-01 3.364879e-01 2.736246e-01 2.064181e-01 1.679975e-01 1.475676e-01 
2.470890e-01 2.528122e-01 2.636797e-01 3.038881e-01 3.829749e-01 4.552457e-01 5.357106e-01 5.724643e-01 5.789715e-01 5.246497e-01 4.377470e-01 2.955271e-01 1.752278e-01 1.485697e-01 6.403136e-01 1.127058e+00 1.322074e+00 1.127058e+00 6.403136e-01 1.485697e-01 1.752278e-01 2.955271e-01 4.377470e-01 5.246497e-01 5.789715e-01 5.724643e-01 5.357106e-01 4.552457e-01 3.829749e-01 3.038881e-01 2.636797e-01 2.528122e-01 
3.888092e-01 3.879036e-01 3.767821e-01 4.080592e-01 4.948400e-01 5.838150e-01 6.878878e-01 7.499437e-01 7.831941e-01 7.794122e-01 7.349469e-01 6.792325e-01 7.281847e-01 5.491104e-01 7.328798e-01 9.741494e-01 1.073714e+00 9.741494e-01 7.328798e-01 5.491104e-01 7.281847e-01 6.792325e-01 7.349469e-01 7.794122e-01 7.831941e-01 7.499437e-01 6.878878e-01 5.838150e-01 4.948400e-01 4.080592e-01 3.767821e-01 3.879036e-01 
5.684817e-01 5.575084e-01 5.133652e-01 5.154254e-01 5.879390e-01 6.720495e-01 7.825606e-01 8.425976e-01 8.940260e-01 9.091163e-01 8.885984e-01 9.606045e-01 9.698083e-01 9.450280e-01 1.279747e+00 1.275331e+00 1.028832e+00 1.275331e+00 1.279747e+00 9.450280e-01 9.698083e-01 9.606045e-01 8.885984e-01 9.091163e-01 8.940260e-01 8.425976e-01 7.825606e-01 6.720495e-01 5.879390e-01 5.154254e-01 5.133652e-01 5.575084e-01 
7.712484e-01 7.449322e-01 6.473669e-01 5.939839e-01 6.303495e-01 7.064835e-01 8.306598e-01 9.065692e-01 9.850915e-01 1.097935e+00 1.039597e+00 1.430454e+00 1.814901e+00 2.489337e+00 2.441037e+00 1.099702e+00 8.309765e-01 1.099702e+00 2.441037e+00 2.489337e+00 1.814901e+00 1.430454e+00 1.039597e+00 1.097935e+00 9.850915e-01 9.065692e-01 8.306598e-01 7.064835e-01 6.303495e-01 5.939839e-01 6.473669e-01 7.449322e-01 
9.767201e-01 9.345930e-01 7.822447e-01 6.653588e-01 6.456594e-01 6.996614e-01 8.242360e-01 8.776581e-01 9.909549e-01 1.039453e+00 1.165285e+00 1.801272e+00 1.905435e+00 1.207794e+00 1.135405e+00 1.590088e+00 1.093308e+00 1.590088e+00 1.135405e+00 1.207794e+00 1.905435e+00 1.801272e+00 1.165285e+00 1.039453e+00 9.909549e-01 8.776581e-01 8.242360e-01 6.996614e-01 6.456594e-01 6.653588e-01 7.822447e-01 9.345930e-01 
1.179700e+00 1.117982e+00 8.991282e-01 6.918010e-01 5.656638e-01 5.650080e-01 6.866303e-01 6.932476e-01 9.055396e-01 9.526866e-01 9.530549e-01 6.733684e-01 7.848282e-01 1.955428e+00 1.569209e+00 2.929333e-01 3.325426e-01 2.929333e-01 1.569209e+00 1.955428e+00 7.848282e-01 6.733684e-01 9.530549e-01 9.526866e-01 9.055396e-01 6.932476e-01 6.866303e-01 5.650080e-01 5.656638e-01 6.918010e-01 8.991282e-01 1.117982e+00 
1.325296e+00 1.248261e+00 9.754022e-01 6.983287e-01 4.641577e-01 4.393573e-01 5.529660e-01 5.561113e-01 8.209791e-01 4.603787e-01 3.436827e-01 6.663426e-01 1.183364e+00 6.028053e-01 3.381190e-01 5.476776e-01 5.297446e-01 5.476776e-01 3.381190e-01 6.028053e-01 1.183364e+00 6.663426e-01 3.436827e-01 4.603787e-01 8.209791e-01 5.561113e-01 5.529660e-01 4.393573e-01 4.641577e-01 6.983287e-01 9.754022e-01 1.248261e+00 
1.436313e+00 1.345792e+00 1.042888e+00 7.046226e-01 3.318939e-01 1.607741e-01 1.613396e-01 6.968728e-02 4.704818e-01 1.515867e+00 5.130101e-01 2.265537e-01 7.094237e-01 5.134943e-01 3.545574e-01 4.078686e-01 5.839726e-01 4.078686e-01 3.545574e-01 5.134943e-01 7.094237e-01 2.265537e-01 5.130101e-01 1.515867e+00 4.704818e-01 6.968728e-02 1.613396e-01 1.607741e-01 3.318939e-01 7.046226e-01 1.042888e+00 1.345792e+00 
1.418289e+00 1.329479e+00 1.031918e+00 6.823005e-01 2.753794e-01 1.054478e-01 4.558313e-01 3.865397e-01 1.232750e+00 1.212700e+00 4.564301e-01 7.130603e-01 8.997380e-01 2.910624e-01 2.786764e-01 3.648805e-01 5.238655e-01 3.648805e-01 2.786764e-01 2.910624e-01 8.997380e-01 7.130603e-01 4.564301e-01 1.212700e+00 1.232750e+00 3.865397e-01 4.558313e-01 1.054478e-01 2.753794e-01 6.823005e-01 1.031918e+00 1.329479e+00 
1.325260e+00 1.255985e+00 1.052047e+00 7.797531e-01 5.485441e-01 3.709587e-01 6.073101e-01 6.500966e-01 1.706993e+00 4.532519e-01 2.777492e-01 1.157353e+00 4.423922e-01 2.963990e-01 2.856190e-01 2.816217e-01 3.569333e-01 2.816217e-01 2.856190e-01 2.963990e-01 4.423922e-01 1.157353e+00 2.777492e-01 4.532519e-01 1.706993e+00 6.500966e-01 6.073101e-01 3.709587e-01 5.485441e-01 7.797531e-01 1.052047e+00 1.255985e+00 
1.041265e+00 1.042590e+00 1.040204e+00 1.010454e+00 1.000257e+00 9.648018e-01 1.054108e+00 1.336168e+00 1.510366e+00 4.730688e-01 6.147768e-01 9.832916e-01 2.947439e-01 3.393464e-01 2.039553e-01 1.996387e-01 1.986071e-01 1.996387e-01 2.039553e-01 3.393464e-01 2.947439e-01 9.832916e-01 6.147768e-01 4.730688e-01 1.510366e+00 1.336168e+00 1.054108e+00 9.648018e-01 1.000257e+00 1.010454e+00 1.040204e+00 1.042590e+00 
6.218757e-01 7.873510e-01 1.103427e+00 1.378951e+00 1.552327e+00 1.612527e+00 1.463991e+00 1.466009e+00 6.244099e-01 4.783481e-01 9.583470e-01 6.055139e-01 2.310018e-01 1.896805e-01 1.415360e-01 1.097006e-01 7.428733e-02 1.097006e-01 1.415360e-01 1.896805e-01 2.310018e-01 6.055139e-01 9.583470e-01 4.783481e-01 6.244099e-01 1.466009e+00 1.463991e+00 1.612527e+00 1.552327e+00 1.378951e+00 1.103427e+00 7.873510e-01 
1.815352e-13 6.218757e-01 1.181293e+00 1.630328e+00 1.895923e+00 1.986848e+00 1.727827e+00 1.502709e+00 3.337224e-01 6.701778e-01 1.096447e+00 9.093715e-02 1.310780e-01 9.870250e-02 9.323139e-02 7.428733e-02 1.200916e-13 7.428733e-02 9.323139e-02 9.870250e-02 1.310780e-01 9.093715e-02 1.096447e+00 6.701778e-01 3.337224e-01 1.502709e+00 1.727827e+00 1.986848e+00 1.895923e+00 1.630328e+00 1.181293e+00 6.218757e-01 
6.218757e-01 7.873510e-01 1.103427e+00 1.378951e+00 1.552327e+00 1.612527e+00 1.463991e+00 1.466009e+00 6.244099e-01 4.783481e-01 9.583470e-01 6.055139e-01 2.310018e-01 1.896805e-01 1.415360e-01 1.097006e-01 7.428733e-02 1.097006e-01 1.415360e-01 1.896805e-01 2.310018e-01 6.055139e-01 9.583470e-01 4.783481e-01 6.244099e-01 1.466009e+00 1.463991e+00 1.612527e+00 1.552327e+00 1.378951e+00 1.103427e+00 7.873510e-01 
1.041265e+00 1.042590e+00 1.040204e+00 1.010454e+00 1.000257e+00 9.648018e-01 1.054108e+00 1.336168e+00 1.510366e+00 4.730688e-01 6.147768e-01 9.832916e-01 2.947439e-01 3.393464e-01 2.039553e-01 1.996387e-01 1.986071e-01 1.996387e-01 2.039553e-01 3.393464e-01 2.947439e-01 9.832916e-01 6.147768e-01 4.730688e-01 1.510366e+00 1.336168e+00 1.054108e+00 9.648018e-01 1.000257e+00 1.010454e+00 1.040204e+00 1.042590e+00 
1.325260e+00 1.255985e+00 1.052047e+00 7.797531e-01 5.485441e-01 3.709587e-01 6.073101e-01 6.500966e-01 1.706993e+00 4.532519e-01 2.777492e-01 1.157353e+00 4.423922e-01 2.963990e-01 2.856190e-01 2.816217e-01 3.569333e-01 2.816217e-01 2.856190e-01 2.963990e-01 4.423922e-01 1.157353e+00 2.777492e-01 4.532519e-01 1.706993e+00 6.500966e-01 6.073101e-01 3.709587e-01 5.485441e-01 7.797531e-01 1.052047e+00 1.255985e+00 
1.418289e+00 1.329479e+00 1.031918e+00 6.823005e-01 2.753794e-01 1.054478e-01 4.558313e-01 3.865397e-01 1.232750e+00 1.212700e+00 4.564301e-01 7.130603e-01 8.997380e-01 2.910624e-01 2.786764e-01 3.648805e-01 5.238655e-01 3.648805e-01 2.786764e-01 2.910624e-01 8.997380e-01 7.130603e-01 4.564301e-01 1.212700e+00 1.232750e+00 3.865397e-01 4.558313e-01 1.054478e-01 2.753794e-01 6.823005e-01 1.031918e+00 1.329479e+00 
1.436313e+00 1.345792e+00 1.042888e+00 7.046226e-01 3.318939e-01 1.607741e-01 1.613396e-01 6.968728e-02 4.704818e-01 1.515867e+00 5.130101e-01 2.265537e-01 7.094237e-01 5.134943e-01 3.545574e-01 4.078686e-01 5.839726e-01 4.078686e-01 3.545574e-01 5.134943e-01 7.094237e-01 2.265537e-01 5.130101e-01 1.515867e+00 4.704818e-01 6.968728e-02 1.613396e-01 1.607741e-01 3.318939e-01 7.046226e-01 1.042888e+00 1.345792e+00 
1.325296e+00 1.248261e+00 9.754022e-01 6.983287e-01 4.641577e-01 4.393573e-01 5.529660e-01 5.561113e-01 8.209791e-01 4.603787e-01 3.436827e-01 6.663426e-01 1.183364e+00 6.028053e-01 3.381190e-01 5.476776e-01 5.297446e-01 5.476776e-01 3.381190e-01 6.028053e-01 1.183364e+00 6.663426e-01 3.436827e-01 4.603787e-01 8.209791e-01 5.561113e-01 5.529660e-01 4.393573e-01 4.641577e-01 6.983287e-01 9.754022e-01 1.248261e+00 
1.179700e+00 1.117982e+00 8.991282e-01 6.918010e-01 5.656638e-01 5.650080e-01 6.866303e-01 6.932476e-01 9.055396e-01 9.526866e-01 9.530549e-01 6.733684e-01 7.848282e-01 1.955428e+00 1.569209e+00 2.929333e-01 3.325426e-01 2.929333e-01 1.569209e+00 1.955428e+00 7.848282e-01 6.733684e-01 9.530549e-01 9.526866e-01 9.055396e-01 6.932476e-01 6.866303e-01 5.650080e-01 5.656638e-01 6.918010e-01 8.991282e-01 1.117982e+00 
9.767201e-01 9.345930e-01 7.822447e-01 6.653588e-01 6.456594e-01 6.996614e-01 8.242360e-01 8.776581e-01 9.909549e-01 1.039453e+00 1.165285e+00 1.801272e+00 1.905435e+00 1.207794e+00 1.135405e+00 1.590088e+00 1.093308e+00 1.590088e+00 1.135405e+00 1.207794e+00 1.905435e+00 1.801272e+00 1.165285e+00 1.039453e+00 9.909549e-01 8.776581e-01 8.242360e-01 6.996614e-01 6.456594e-01 6.653588e-01 7.822447e-01 9.345930e-01 
7.712484e-01 7.449322e-01 6.473669e-01 5.939839e-01 6.303495e-01 7.064835e-01 8.306598e-01 9.065692e-01 9.850915e-01 1.097935e+00 1.039597e+00 1.430454e+00 1.814901e+00 2.489337e+00 2.441037e+00 1.099702e+00 8.309765e-01 1.099702e+00 2.441037e+00 2.489337e+00 1.814901e+00 1.430454e+00 1.039597e+00 1.097935e+00 9.850915e-01 9.065692e-01 8.306598e-01 7.064835e-01 6.303495e-01 5.939839e-01 6.473669e-01 7.449322e-01 
5.684817e-01 5.575084e-01 5.133652e-01 5.154254e-01 5.879390e-01 6.720495e-01 7.825606e-01 8.425976e-01 8.940260e-01 9.091163e-01 8.885984e-01 9.606045e-01 9.698083e-01 9.450280e-01 1.279747e+00 1.275331e+00 1.028832e+00 1.275331e+00 1.279747e+00 9.450280e-01 9.698083e-01 9.606045e-01 8.885984e-01 9.091163e-01 8.940260e-01 8.425976e-01 7.825606e-01 6.720495e-01 5.879390e-01 5.154254e-01 5.133652e-01 5.575084e-01 
3.888092e-01 3.879036e-01 3.767821e-01 4.080592e-01 4.948400e-01 5.838150e-01 6.878878e-01 7.499437e-01 7.831941e-01 7.794122e-01 7.349469e-01 6.792325e-01 7.281847e-01 5.491104e-01 7.328798e-01 9.741494e-01 1.073714e+00 9.741494e-01 7.328798e-01 5.491104e-01 7.281847e-01 6.792325e-01 7.349469e-01 7.794122e-01 7.831941e-01 7.499437e-01 6.878878e-01 5.838150e-01 4.948400e-01 4.080592e-01 3.767821e-01 3.879036e-01 
2.470890e-01 2.528122e-01 2.636797e-01 3.038881e-01 3.829749e-01 4.552457e-01 5.357106e-01 5.724643e-01 5.789715e-01 5.246497e-01 4.377470e-01 2.955271e-01 1.752278e-01 1.485697e-01 6.403136e-01 1.127058e+00 1.322074e+00 1.127058e+00 6.403136e-01 1.485697e-01 1.752278e-01 2.955271e-01 4.377470e-01 5.246497e-01 5.789715e-01 5.724643e-01 5.357106e-01 4.552457e-01 3.829749e-01 3.038881e-01 2.636797e-01 2.528122e-01 
1.385403e-01 1.475676e-01 1.679975e-01 2.064181e-01 2.736246e-01 3.364879e-01 4.070061e-01 4.509463e-01 4.666592e-01 4.434066e-01 3.811782e-01 3.024271e-01 2.446318e-01 4.123118e-01 7.451063e-01 1.040188e+00 1.179634e+00 1.040188e+00 7.451063e-01 4.123118e-01 2.446318e-01 3.024271e-01 3.811782e-01 4.434066e-01 4.666592e-01 4.509463e-01 4.070061e-01 3.364879e-01 2.736246e-01 2.064181e-01 1.679975e-01 1.475676e-01 
7.083372e-02 8.020430e-02 9.876538e-02 1.188161e-01 1.612647e-01 2.158103e-01 2.958013e-01 3.911645e-01 4.847850e-01 5.808714e-01 6.498077e-01 7.073568e-01 7.171254e-01 7.423179e-01 7.768240e-01 8.794788e-01 9.403973e-01 8.794788e-01 7.768240e-01 7.423179e-01 7.171254e-01 7.073568e-01 6.498077e-01 5.808714e-01 4.847850e-01 3.911645e-01 2.958013e-01 2.158103e-01 1.612647e-01 1.188161e-01 9.876538e-02 8.020430e-02 
2.670865e-02 4.066214e-02 5.771350e-02 5.849013e-02 8.107095e-02 1.539657e-01 2.671166e-01 4.214016e-01 5.773752e-01 7.466036e-01 8.772217e-01 9.896380e-01 1.020997e+00 9.986654e-01 8.664060e-01 6.473668e-01 5.128037e-01 6.473668e-01 8.664060e-01 9.986654e-01 1.020997e+00 9.896380e-01 8.772217e-01 7.466036e-01 5.773752e-01 4.214016e-01 2.671166e-01 1.539657e-01 8.107095e-02 5.849013e-02 5.771350e-02 4.066214e-02 
