# vtk DataFile Version 2.0
Comment goes here
ASCII

DATASET STRUCTURED_POINTS
FIELD FieldData 1
TIME 1 1 double
1.22000000
DIMENSIONS    32   32   1

ORIGIN    0.000   0.000   0.000
SPACING   0.03125 0.03125   1.000

POINT_DATA   1024
SCALARS uMag double
LOOKUP_TABLE default

1.408976e-13 1.125583e-02 3.757842e-02 9.916912e-02 1.927083e-01 3.386912e-01 5.068730e-01 7.205401e-01 9.178553e-01 1.131289e+00 1.270366e+00 1.384194e+00 1.362238e+00 1.268993e+00 9.890081e-01 5.744267e-01 5.088341e-13 5.744267e-01 9.890081e-01 1.268993e+00 1.362238e+00 1.384194e+00 1.270366e+00 1.131289e+00 9.178553e-01 7.205401e-01 5.068730e-01 3.386912e-01 1.927083e-01 9.916912e-02 3.757842e-02 1.125583e-02 
1.125583e-02 1.931188e-02 5.011195e-02 1.105702e-01 2.039057e-01 3.405430e-01 4.989404e-01 6.931768e-01 8.725639e-01 1.060056e+00 1.180239e+00 1.274920e+00 1.251511e+00 1.179598e+00 9.726881e-01 7.248892e-01 5.744267e-01 7.248892e-01 9.726881e-01 1.179598e+00 1.251511e+00 1.274920e+00 1.180239e+00 1.060056e+00 8.725639e-01 6.931768e-01 4.989404e-01 3.405430e-01 2.039057e-01 1.105702e-01 5.011195e-02 1.931188e-02 
8.925055e-03 3.029807e-02 7.712518e-02 1.414323e-01 2.357716e-01 3.500808e-01 4.806404e-01 6.250916e-01 7.511188e-01 8.807209e-01 9.494985e-01 1.020863e+00 1.004367e+00 1.016080e+00 9.916011e-01 1.011938e+00 1.060057e+00 1.011938e+00 9.916011e-01 1.016080e+00 1.004367e+00 1.020863e+00 9.494985e-01 8.807209e-01 7.511188e-01 6.250916e-01 4.806404e-01 3.500808e-01 2.357716e-01 1.414323e-01 7.712518e-02 3.029807e-02 
2.556546e-02 4.984254e-02 1.101708e-01 1.907635e-01 2.984820e-01 4.018588e-01 5.129548e-01 5.974540e-01 6.605160e-01 6.915557e-01 6.802417e-01 6.753681e-01 6.374694e-01 7.412288e-01 9.842689e-01 1.287362e+00 1.465499e+00 1.287362e+00 9.842689e-01 7.412288e-01 6.374694e-01 6.753681e-01 6.802417e-01 6.915557e-01 6.605160e-01 5.974540e-01 5.129548e-01 4.018588e-01 2.984820e-01 1.907635e-01 1.101708e-01 4.984254e-02 
9.069796e-02 1.056886e-01 1.620961e-01 2.603406e-01 3.852677e-01 4.942703e-01 5.974565e-01 6.423228e-01 6.466801e-01 5.762780e-01 4.549550e-01 3.489249e-01 3.224107e-01 5.872588e-01 1.000757e+00 1.396824e+00 1.621782e+00 1.396824e+00 1.000757e+00 5.872588e-01 3.224107e-01 3.489249e-01 4.549550e-01 5.762780e-01 6.466801e-01 6.423228e-01 5.974565e-01 4.942703e-01 3.852677e-01 2.603406e-01 1.620961e-01 1.056886e-01 
2.026502e-01 2.009414e-01 2.269666e-01 3.241173e-01 4.646001e-01 5.881011e-01 7.038733e-01 7.359615e-01 7.321114e-01 6.038574e-01 4.404981e-01 1.683459e-01 1.253950e-01 4.262672e-01 1.049758e+00 1.533278e+00 1.747789e+00 1.533278e+00 1.049758e+00 4.262672e-01 1.253950e-01 1.683459e-01 4.404981e-01 6.038574e-01 7.321114e-01 7.359615e-01 7.038733e-01 5.881011e-01 4.646001e-01 3.241173e-01 2.269666e-01 2.009414e-01 
3.404099e-01 3.236623e-01 3.086455e-01 3.901451e-01 5.380393e-01 6.857034e-01 8.142155e-01 8.566283e-01 8.445554e-01 7.029185e-01 4.905392e-01 5.893178e-02 3.670564e-01 5.572211e-01 1.039242e+00 1.310512e+00 1.444091e+00 1.310512e+00 1.039242e+00 5.572211e-01 3.670564e-01 5.893178e-02 4.905392e-01 7.029185e-01 8.445554e-01 8.566283e-01 8.142155e-01 6.857034e-01 5.380393e-01 3.901451e-01 3.086455e-01 3.236623e-01 
5.162274e-01 4.755279e-01 4.045297e-01 4.290008e-01 5.680878e-01 7.333571e-01 8.863989e-01 9.320823e-01 9.436012e-01 7.752336e-01 5.656637e-01 4.105833e-02 3.873710e-01 7.628614e-01 1.423510e+00 1.525398e+00 1.422300e+00 1.525398e+00 1.423510e+00 7.628614e-01 3.873710e-01 4.105833e-02 5.656637e-01 7.752336e-01 9.436012e-01 9.320823e-01 8.863989e-01 7.333571e-01 5.680878e-01 4.290008e-01 4.045297e-01 4.755279e-01 
6.902677e-01 6.289495e-01 4.953562e-01 4.499699e-01 5.673678e-01 7.654830e-01 9.469779e-01 1.031109e+00 1.063368e+00 1.020193e+00 6.671788e-01 7.467891e-01 1.295580e+00 1.704216e+00 1.261676e+00 5.167381e-01 3.076131e-01 5.167381e-01 1.261676e+00 1.704216e+00 1.295580e+00 7.467891e-01 6.671788e-01 1.020193e+00 1.063368e+00 1.031109e+00 9.469779e-01 7.654830e-01 5.673678e-01 4.499699e-01 4.953562e-01 6.289495e-01 
8.742573e-01 7.854645e-01 5.942696e-01 4.395357e-01 5.077642e-01 7.331222e-01 9.561838e-01 1.070277e+00 1.179660e+00 1.040069e+00 2.549903e-01 1.003051e+00 8.453374e-01 4.291851e-01 8.198955e-01 6.704171e-01 8.232441e-01 6.704171e-01 8.198955e-01 4.291851e-01 8.453374e-01 1.003051e+00 2.549903e-01 1.040069e+00 1.179660e+00 1.070277e+00 9.561838e-01 7.331222e-01 5.077642e-01 4.395357e-01 5.942696e-01 7.854645e-01 
1.017691e+00 9.104455e-01 6.621475e-01 4.018162e-01 4.111231e-01 6.788240e-01 9.568147e-01 1.037541e+00 1.233964e+00 1.241510e+00 3.178876e-01 3.891825e-01 1.876304e-02 1.040293e-01 8.491553e-01 1.337229e+00 1.114739e+00 1.337229e+00 8.491553e-01 1.040293e-01 1.876304e-02 3.891825e-01 3.178876e-01 1.241510e+00 1.233964e+00 1.037541e+00 9.568147e-01 6.788240e-01 4.111231e-01 4.018162e-01 6.621475e-01 9.104455e-01 
1.130874e+00 1.004162e+00 7.281694e-01 3.581546e-01 2.515949e-01 5.829859e-01 8.901344e-01 1.081564e+00 1.686909e+00 1.238277e+00 6.326070e-01 6.794828e-01 8.756083e-01 1.148943e+00 1.215114e+00 5.441353e-01 2.019161e-01 5.441353e-01 1.215114e+00 1.148943e+00 8.756083e-01 6.794828e-01 6.326070e-01 1.238277e+00 1.686909e+00 1.081564e+00 8.901344e-01 5.829859e-01 2.515949e-01 3.581546e-01 7.281694e-01 1.004162e+00 
1.160569e+00 1.030911e+00 7.536458e-01 3.267488e-01 7.215699e-02 5.302818e-01 8.953656e-01 1.244312e+00 1.958889e+00 6.877583e-01 1.146677e+00 5.677583e-01 6.815035e-01 3.793938e-01 3.397786e-01 2.747438e-01 1.303517e-01 2.747438e-01 3.397786e-01 3.793938e-01 6.815035e-01 5.677583e-01 1.146677e+00 6.877583e-01 1.958889e+00 1.244312e+00 8.953656e-01 5.302818e-01 7.215699e-02 3.267488e-01 7.536458e-01 1.030911e+00 
1.093757e+00 9.835069e-01 7.797949e-01 4.355168e-01 2.251625e-01 4.189257e-01 5.628679e-01 1.525743e+00 2.335779e+00 6.776319e-01 1.170061e+00 2.897261e-01 5.320692e-01 2.951843e-01 3.634296e-01 1.260548e-01 2.857918e-02 1.260548e-01 3.634296e-01 2.951843e-01 5.320692e-01 2.897261e-01 1.170061e+00 6.776319e-01 2.335779e+00 1.525743e+00 5.628679e-01 4.189257e-01 2.251625e-01 4.355168e-01 7.797949e-01 9.835069e-01 
8.891457e-01 8.467324e-01 8.284102e-01 7.596337e-01 6.999883e-01 6.911765e-01 5.446807e-01 1.782349e+00 1.832259e+00 1.489284e+00 5.612358e-01 4.535014e-01 3.811483e-01 1.972127e-01 2.427445e-01 1.238635e-01 1.227500e-01 1.238635e-01 2.427445e-01 1.972127e-01 3.811483e-01 4.535014e-01 5.612358e-01 1.489284e+00 1.832259e+00 1.782349e+00 5.446807e-01 6.911765e-01 6.999883e-01 7.596337e-01 8.284102e-01 8.467324e-01 
5.008101e-01 6.322353e-01 8.731742e-01 1.106240e+00 1.149021e+00 1.297328e+00 9.333673e-01 1.467250e+00 1.071449e+00 1.115818e+00 1.732737e-01 6.545687e-01 3.339950e-01 3.195483e-01 2.077449e-01 9.604442e-02 7.273397e-02 9.604442e-02 2.077449e-01 3.195483e-01 3.339950e-01 6.545687e-01 1.732737e-01 1.115818e+00 1.071449e+00 1.467250e+00 9.333673e-01 1.297328e+00 1.149021e+00 1.106240e+00 8.731742e-01 6.322353e-01 
3.864992e-13 5.008101e-01 8.990582e-01 1.231218e+00 1.323054e+00 1.455208e+00 9.776592e-01 7.526048e-01 1.267353e+00 5.058940e-01 9.746159e-02 8.523775e-01 3.760853e-01 4.092050e-01 1.477517e-01 7.273397e-02 1.997413e-13 7.273397e-02 1.477517e-01 4.092050e-01 3.760853e-01 8.523775e-01 9.746159e-02 5.058940e-01 1.267353e+00 7.526048e-01 9.776592e-01 1.455208e+00 1.323054e+00 1.231218e+00 8.990582e-01 5.008101e-01 
5.008101e-01 6.322353e-01 8.731742e-01 1.106240e+00 1.149021e+00 1.297328e+00 9.333673e-01 1.467250e+00 1.071449e+00 1.115818e+00 1.732737e-01 6.545687e-01 3.339950e-01 3.195483e-01 2.077449e-01 9.604442e-02 7.273397e-02 9.604442e-02 2.077449e-01 3.195483e-01 3.339950e-01 6.545687e-01 1.732737e-01 1.115818e+00 1.071449e+00 1.467250e+00 9.333673e-01 1.297328e+00 1.149021e+00 1.106240e+00 8.731742e-01 6.322353e-01 
8.891457e-01 8.467324e-01 8.284102e-01 7.596337e-01 6.999883e-01 6.911765e-01 5.446807e-01 1.782349e+00 1.832259e+00 1.489284e+00 5.612358e-01 4.535014e-01 3.811483e-01 1.972127e-01 2.427445e-01 1.238635e-01 1.227500e-01 1.238635e-01 2.427445e-01 1.972127e-01 3.811483e-01 4.535014e-01 5.612358e-01 1.489284e+00 1.832259e+00 1.782349e+00 5.446807e-01 6.911765e-01 6.999883e-01 7.596337e-01 8.284102e-01 8.467324e-01 
1.093757e+00 9.835069e-01 7.797949e-01 4.355168e-01 2.251625e-01 4.189257e-01 5.628679e-01 1.525743e+00 2.335779e+00 6.776319e-01 1.170061e+00 2.897261e-01 5.320692e-01 2.951843e-01 3.634296e-01 1.260548e-01 2.857918e-02 1.260548e-01 3.634296e-01 2.951843e-01 5.320692e-01 2.897261e-01 1.170061e+00 6.776319e-01 2.335779e+00 1.525743e+00 5.628679e-01 4.189257e-01 2.251625e-01 4.355168e-01 7.797949e-01 9.835069e-01 
1.160569e+00 1.030911e+00 7.536458e-01 3.267488e-01 7.215699e-02 5.302818e-01 8.953656e-01 1.244312e+00 1.958889e+00 6.877583e-01 1.146677e+00 5.677583e-01 6.815035e-01 3.793938e-01 3.397786e-01 2.747438e-01 1.303517e-01 2.747438e-01 3.397786e-01 3.793938e-01 6.815035e-01 5.677583e-01 1.146677e+00 6.877583e-01 1.958889e+00 1.244312e+00 8.953656e-01 5.302818e-01 7.215699e-02 3.267488e-01 7.536458e-01 1.030911e+00 
1.130874e+00 1.004162e+00 7.281694e-01 3.581546e-01 2.515949e-01 5.829859e-01 8.901344e-01 1.081564e+00 1.686909e+00 1.238277e+00 6.326070e-01 6.794828e-01 8.756083e-01 1.148943e+00 1.215114e+00 5.441353e-01 2.019161e-01 5.441353e-01 1.215114e+00 1.148943e+00 8.756083e-01 6.794828e-01 6.326070e-01 1.238277e+00 1.686909e+00 1.081564e+00 8.901344e-01 5.829859e-01 2.515949e-01 3.581546e-01 7.281694e-01 1.004162e+00 
1.017691e+00 9.104455e-01 6.621475e-01 4.018162e-01 4.111231e-01 6.788240e-01 9.568147e-01 1.037541e+00 1.233964e+00 1.241510e+00 3.178876e-01 3.891825e-01 1.876304e-02 1.040293e-01 8.491553e-01 1.337229e+00 1.114739e+00 1.337229e+00 8.491553e-01 1.040293e-01 1.876304e-02 3.891825e-01 3.178876e-01 1.241510e+00 1.233964e+00 1.037541e+00 9.568147e-01 6.788240e-01 4.111231e-01 4.018162e-01 6.621475e-01 9.104455e-01 
8.742573e-01 7.854645e-01 5.942696e-01 4.395357e-01 5.077642e-01 7.331222e-01 9.561838e-01 1.070277e+00 1.179660e+00 1.040069e+00 2.549903e-01 1.003051e+00 8.453374e-01 4.291851e-01 8.198955e-01 6.704171e-01 8.232441e-01 6.704171e-01 8.198955e-01 4.291851e-01 8.453374e-01 1.003051e+00 2.549903e-01 1.040069e+00 1.179660e+00 1.070277e+00 9.561838e-01 7.331222e-01 5.077642e-01 4.395357e-01 5.942696e-01 7.854645e-01 
6.902677e-01 6.289495e-01 4.953562e-01 4.499699e-01 5.673678e-01 7.654830e-01 9.469779e-01 1.031109e+00 1.063368e+00 1.020193e+00 6.671788e-01 7.467891e-01 1.295580e+00 1.704216e+00 1.261676e+00 5.167381e-01 3.076131e-01 5.167381e-01 1.261676e+00 1.704216e+00 1.295580e+00 7.467891e-01 6.671788e-01 1.020193e+00 1.063368e+00 1.031109e+00 9.469779e-01 7.654830e-01 5.673678e-01 4.499699e-01 4.953562e-01 6.289495e-01 
5.162274e-01 4.755279e-01 4.045297e-01 4.290008e-01 5.680878e-01 7.333571e-01 8.863989e-01 9.320823e-01 9.436012e-01 7.752336e-01 5.656637e-01 4.105833e-02 3.873710e-01 7.628614e-01 1.423510e+00 1.525398e+00 1.422300e+00 1.525398e+00 1.423510e+00 7.628614e-01 3.873710e-01 4.105833e-02 5.656637e-01 7.752336e-01 9.436012e-01 9.320823e-01 8.863989e-01 7.333571e-01 5.680878e-01 4.290008e-01 4.045297e-01 4.755279e-01 
3.404099e-01 3.236623e-01 3.086455e-01 3.901451e-01 5.380393e-01 6.857034e-01 8.142155e-01 8.566283e-01 8.445554e-01 7.029185e-01 4.905392e-01 5.893178e-02 3.670564e-01 5.572211e-01 1.039242e+00 1.310512e+00 1.444091e+00 1.310512e+00 1.039242e+00 5.572211e-01 3.670564e-01 5.893178e-02 4.905392e-01 7.029185e-01 8.445554e-01 8.566283e-01 8.142155e-01 6.857034e-01 5.380393e-01 3.901451e-01 3.086455e-01 3.236623e-01 
2.026502e-01 2.009414e-01 2.269666e-01 3.241173e-01 4.646001e-01 5.881011e-01 7.038733e-01 7.359615e-01 7.321114e-01 6.038574e-01 4.404981e-01 1.683459e-01 1.253950e-01 4.262672e-01 1.049758e+00 1.533278e+00 1.747789e+00 1.533278e+00 1.049758e+00 4.262672e-01 1.253950e-01 1.683459e-01 4.404981e-01 6.038574e-01 7.321114e-01 7.359615e-01 7.038733e-01 5.881011e-01 4.646001e-01 3.241173e-01 2.269666e-01 2.009414e-01 
9.069796e-02 1.056886e-01 1.620961e-01 2.603406e-01 3.852677e-01 4.942703e-01 5.974565e-01 6.423228e-01 6.466801e-01 5.762780e-01 4.549550e-01 3.489249e-01 3.224107e-01 5.872588e-01 1.000757e+00 1.396824e+00 1.621782e+00 1.396824e+00 1.000757e+00 5.872588e-01 3.224107e-01 3.489249e-01 4.549550e-01 5.762780e-01 6.466801e-01 6.423228e-01 5.974565e-01 4.942703e-01 3.852677e-01 2.603406e-01 1.620961e-01 1.056886e-01 
2.556546e-02 4.984254e-02 1.101708e-01 1.907635e-01 2.984820e-01 4.018588e-01 5.129548e-01 5.974540e-01 6.605160e-01 6.915557e-01 6.802417e-01 6.753681e-01 6.374694e-01 7.412288e-01 9.842689e-01 1.287362e+00 1.465499e+00 1.287362e+00 9.842689e-01 7.412288e-01 6.374694e-01 6.753681e-01 6.802417e-01 6.915557e-01 6.605160e-01 5.974540e-01 5.129548e-01 4.018588e-01 2.984820e-01 1.907635e-01 1.101708e-01 4.984254e-02 
8.925055e-03 3.029807e-02 7.712518e-02 1.414323e-01 2.357716e-01 3.500808e-01 4.806404e-01 6.250916e-01 7.511188e-01 8.807209e-01 9.494985e-01 1.020863e+00 1.004367e+00 1.016080e+00 9.916011e-01 1.011938e+00 1.060057e+00 1.011938e+00 9.916011e-01 1.016080e+00 1.004367e+00 1.020863e+00 9.494985e-01 8.807209e-01 7.511188e-01 6.250916e-01 4.806404e-01 3.500808e-01 2.357716e-01 1.414323e-01 7.712518e-02 3.029807e-02 
1.125583e-02 1.931188e-02 5.011195e-02 1.105702e-01 2.039057e-01 3.405430e-01 4.989404e-01 6.931768e-01 8.725639e-01 1.060056e+00 1.180239e+00 1.274920e+00 1.251511e+00 1.179598e+00 9.726881e-01 7.248892e-01 5.744267e-01 7.248892e-01 9.726881e-01 1.179598e+00 1.251511e+00 1.274920e+00 1.180239e+00 1.060056e+00 8.725639e-01 6.931768e-01 4.989404e-01 3.405430e-01 2.039057e-01 1.105702e-01 5.011195e-02 1.931188e-02 
