# vtk DataFile Version 2.0
Comment goes here
ASCII

DATASET STRUCTURED_POINTS
FIELD FieldData 1
TIME 1 1 double
1.14000000
DIMENSIONS    32   32   1

ORIGIN    0.000   0.000   0.000
SPACING   0.03125 0.03125   1.000

POINT_DATA   1024
SCALARS uMag double
LOOKUP_TABLE default

7.849157e-14 3.810362e-02 6.233989e-02 4.977806e-02 6.575284e-03 9.421455e-02 2.199670e-01 4.027994e-01 5.768860e-01 7.864721e-01 9.343130e-01 1.084986e+00 1.113933e+00 1.087718e+00 8.742356e-01 5.079445e-01 2.909793e-13 5.079445e-01 8.742356e-01 1.087718e+00 1.113933e+00 1.084986e+00 9.343130e-01 7.864721e-01 5.768860e-01 4.027994e-01 2.199670e-01 9.421455e-02 6.575284e-03 4.977806e-02 6.233989e-02 3.810362e-02 
3.810362e-02 5.607883e-02 7.943516e-02 8.140529e-02 8.408570e-02 1.211740e-01 2.182042e-01 3.638678e-01 5.112592e-01 6.859048e-01 8.093144e-01 9.380084e-01 9.608514e-01 9.580413e-01 8.231443e-01 6.310443e-01 5.079445e-01 6.310443e-01 8.231443e-01 9.580413e-01 9.608514e-01 9.380084e-01 8.093144e-01 6.859048e-01 5.112592e-01 3.638678e-01 2.182042e-01 1.211740e-01 8.408570e-02 8.140529e-02 7.943516e-02 5.607883e-02 
9.323669e-02 1.042316e-01 1.245915e-01 1.434539e-01 1.752535e-01 2.086611e-01 2.744516e-01 3.516704e-01 4.372541e-01 5.356677e-01 5.979010e-01 6.812094e-01 6.877812e-01 7.440944e-01 7.808367e-01 8.505801e-01 9.102636e-01 8.505801e-01 7.808367e-01 7.440944e-01 6.877812e-01 6.812094e-01 5.979010e-01 5.356677e-01 4.372541e-01 3.516704e-01 2.744516e-01 2.086611e-01 1.752535e-01 1.434539e-01 1.245915e-01 1.042316e-01 
1.735785e-01 1.819863e-01 1.993235e-01 2.344495e-01 2.926140e-01 3.460177e-01 4.157339e-01 4.477359e-01 4.760467e-01 4.458926e-01 3.962852e-01 3.152790e-01 2.154952e-01 3.600156e-01 7.141594e-01 1.061678e+00 1.228928e+00 1.061678e+00 7.141594e-01 3.600156e-01 2.154952e-01 3.152790e-01 3.962852e-01 4.458926e-01 4.760467e-01 4.477359e-01 4.157339e-01 3.460177e-01 2.926140e-01 2.344495e-01 1.993235e-01 1.819863e-01 
2.929927e-01 2.967352e-01 3.038239e-01 3.413671e-01 4.100582e-01 4.804553e-01 5.624268e-01 5.954938e-01 6.216374e-01 5.577645e-01 4.973208e-01 3.214511e-01 2.064456e-01 1.003548e-01 5.912259e-01 1.071465e+00 1.330364e+00 1.071465e+00 5.912259e-01 1.003548e-01 2.064456e-01 3.214511e-01 4.973208e-01 5.577645e-01 6.216374e-01 5.954938e-01 5.624268e-01 4.804553e-01 4.100582e-01 3.413671e-01 3.038239e-01 2.967352e-01 
4.481692e-01 4.429880e-01 4.268761e-01 4.518894e-01 5.219283e-01 6.105455e-01 7.149535e-01 7.756228e-01 8.360342e-01 8.176033e-01 8.095633e-01 7.060497e-01 7.820609e-01 5.558907e-01 6.843797e-01 1.154089e+00 1.371835e+00 1.154089e+00 6.843797e-01 5.558907e-01 7.820609e-01 7.060497e-01 8.095633e-01 8.176033e-01 8.360342e-01 7.756228e-01 7.149535e-01 6.105455e-01 5.219283e-01 4.518894e-01 4.268761e-01 4.429880e-01 
6.371717e-01 6.195654e-01 5.711921e-01 5.664253e-01 6.168276e-01 7.099137e-01 8.165980e-01 8.935971e-01 9.713501e-01 9.857854e-01 1.011275e+00 9.673448e-01 1.077875e+00 7.321300e-01 7.334259e-01 9.877007e-01 1.030448e+00 9.877007e-01 7.334259e-01 7.321300e-01 1.077875e+00 9.673448e-01 1.011275e+00 9.857854e-01 9.713501e-01 8.935971e-01 8.165980e-01 7.099137e-01 6.168276e-01 5.664253e-01 5.711921e-01 6.195654e-01 
8.511444e-01 8.142120e-01 7.166605e-01 6.519843e-01 6.581034e-01 7.408303e-01 8.520444e-01 9.433728e-01 1.045693e+00 1.127507e+00 1.083418e+00 1.233388e+00 1.655393e+00 2.027773e+00 2.214281e+00 1.322469e+00 4.295267e-02 1.322469e+00 2.214281e+00 2.027773e+00 1.655393e+00 1.233388e+00 1.083418e+00 1.127507e+00 1.045693e+00 9.433728e-01 8.520444e-01 7.408303e-01 6.581034e-01 6.519843e-01 7.166605e-01 8.142120e-01 
1.062013e+00 1.005355e+00 8.559462e-01 7.236737e-01 6.647656e-01 7.316996e-01 8.281269e-01 9.375896e-01 1.059766e+00 1.174642e+00 1.263192e+00 1.897073e+00 2.036581e+00 2.036895e+00 1.295551e+00 1.426768e+00 1.468354e+00 1.426768e+00 1.295551e+00 2.036895e+00 2.036581e+00 1.897073e+00 1.263192e+00 1.174642e+00 1.059766e+00 9.375896e-01 8.281269e-01 7.316996e-01 6.647656e-01 7.236737e-01 8.559462e-01 1.005355e+00 
1.268654e+00 1.186333e+00 9.812450e-01 7.533446e-01 5.935155e-01 5.989815e-01 6.768890e-01 7.629454e-01 1.002976e+00 1.044884e+00 1.175747e+00 1.033310e+00 3.827012e-01 1.420926e+00 1.603871e+00 8.887877e-01 4.770810e-01 8.887877e-01 1.603871e+00 1.420926e+00 3.827012e-01 1.033310e+00 1.175747e+00 1.044884e+00 1.002976e+00 7.629454e-01 6.768890e-01 5.989815e-01 5.935155e-01 7.533446e-01 9.812450e-01 1.186333e+00 
1.413003e+00 1.311605e+00 1.060274e+00 7.550250e-01 4.921885e-01 4.497423e-01 4.750389e-01 6.045854e-01 7.010887e-01 3.094122e-01 3.707417e-01 7.993992e-01 1.303946e+00 1.013922e+00 2.933637e-01 3.755886e-01 4.780839e-01 3.755886e-01 2.933637e-01 1.013922e+00 1.303946e+00 7.993992e-01 3.707417e-01 3.094122e-01 7.010887e-01 6.045854e-01 4.750389e-01 4.497423e-01 4.921885e-01 7.550250e-01 1.060274e+00 1.311605e+00 
1.515571e+00 1.396207e+00 1.126243e+00 7.508244e-01 4.081025e-01 1.908984e-01 2.460952e-02 6.280837e-02 7.428471e-01 1.289878e+00 4.825627e-01 4.545423e-01 6.366086e-01 4.892412e-01 4.486102e-01 7.049504e-01 9.217742e-01 7.049504e-01 4.486102e-01 4.892412e-01 6.366086e-01 4.545423e-01 4.825627e-01 1.289878e+00 7.428471e-01 6.280837e-02 2.460952e-02 1.908984e-01 4.081025e-01 7.508244e-01 1.126243e+00 1.396207e+00 
1.490900e+00 1.372573e+00 1.112740e+00 7.220129e-01 3.955061e-01 1.689921e-01 3.913735e-01 4.426319e-01 1.505646e+00 9.619320e-01 1.931389e-01 9.312216e-01 9.123536e-01 5.486124e-01 4.089918e-01 4.941880e-01 5.584632e-01 4.941880e-01 4.089918e-01 5.486124e-01 9.123536e-01 9.312216e-01 1.931389e-01 9.619320e-01 1.505646e+00 4.426319e-01 3.913735e-01 1.689921e-01 3.955061e-01 7.220129e-01 1.112740e+00 1.372573e+00 
1.382942e+00 1.287114e+00 1.112976e+00 8.163180e-01 6.466931e-01 5.068390e-01 6.541788e-01 8.950639e-01 1.786234e+00 5.161699e-01 1.738508e-01 1.298142e+00 4.807544e-01 3.704273e-01 3.169433e-01 4.267177e-01 4.786673e-01 4.267177e-01 3.169433e-01 3.704273e-01 4.807544e-01 1.298142e+00 1.738508e-01 5.161699e-01 1.786234e+00 8.950639e-01 6.541788e-01 5.068390e-01 6.466931e-01 8.163180e-01 1.112976e+00 1.287114e+00 
1.089159e+00 1.071211e+00 1.082204e+00 1.065186e+00 1.071295e+00 1.134804e+00 1.122766e+00 1.540547e+00 1.306803e+00 7.994432e-01 9.580348e-01 1.156668e+00 4.309954e-01 4.325264e-01 3.091658e-01 2.855976e-01 2.264822e-01 2.855976e-01 3.091658e-01 4.325264e-01 4.309954e-01 1.156668e+00 9.580348e-01 7.994432e-01 1.306803e+00 1.540547e+00 1.122766e+00 1.134804e+00 1.071295e+00 1.065186e+00 1.082204e+00 1.071211e+00 
6.446213e-01 8.082598e-01 1.124929e+00 1.427444e+00 1.556648e+00 1.692487e+00 1.464802e+00 1.643666e+00 6.036065e-01 8.104356e-01 1.377782e+00 6.020948e-01 4.079595e-01 2.271413e-01 2.169450e-01 1.529035e-01 1.052650e-01 1.529035e-01 2.169450e-01 2.271413e-01 4.079595e-01 6.020948e-01 1.377782e+00 8.104356e-01 6.036065e-01 1.643666e+00 1.464802e+00 1.692487e+00 1.556648e+00 1.427444e+00 1.124929e+00 8.082598e-01 
2.055640e-13 6.446213e-01 1.194516e+00 1.653088e+00 1.833724e+00 1.963651e+00 1.643319e+00 1.593161e+00 4.023707e-01 9.911725e-01 1.290118e+00 7.361089e-03 3.230560e-01 1.430275e-01 2.054842e-01 1.052650e-01 1.325924e-13 1.052650e-01 2.054842e-01 1.430275e-01 3.230560e-01 7.361089e-03 1.290118e+00 9.911725e-01 4.023707e-01 1.593161e+00 1.643319e+00 1.963651e+00 1.833724e+00 1.653088e+00 1.194516e+00 6.446213e-01 
6.446213e-01 8.082598e-01 1.124929e+00 1.427444e+00 1.556648e+00 1.692487e+00 1.464802e+00 1.643666e+00 6.036065e-01 8.104356e-01 1.377782e+00 6.020948e-01 4.079595e-01 2.271413e-01 2.169450e-01 1.529035e-01 1.052650e-01 1.529035e-01 2.169450e-01 2.271413e-01 4.079595e-01 6.020948e-01 1.377782e+00 8.104356e-01 6.036065e-01 1.643666e+00 1.464802e+00 1.692487e+00 1.556648e+00 1.427444e+00 1.124929e+00 8.082598e-01 
1.089159e+00 1.071211e+00 1.082204e+00 1.065186e+00 1.071295e+00 1.134804e+00 1.122766e+00 1.540547e+00 1.306803e+00 7.994432e-01 9.580348e-01 1.156668e+00 4.309954e-01 4.325264e-01 3.091658e-01 2.855976e-01 2.264822e-01 2.855976e-01 3.091658e-01 4.325264e-01 4.309954e-01 1.156668e+00 9.580348e-01 7.994432e-01 1.306803e+00 1.540547e+00 1.122766e+00 1.134804e+00 1.071295e+00 1.065186e+00 1.082204e+00 1.071211e+00 
1.382942e+00 1.287114e+00 1.112976e+00 8.163180e-01 6.466931e-01 5.068390e-01 6.541788e-01 8.950639e-01 1.786234e+00 5.161699e-01 1.738508e-01 1.298142e+00 4.807544e-01 3.704273e-01 3.169433e-01 4.267177e-01 4.786673e-01 4.267177e-01 3.169433e-01 3.704273e-01 4.807544e-01 1.298142e+00 1.738508e-01 5.161699e-01 1.786234e+00 8.950639e-01 6.541788e-01 5.068390e-01 6.466931e-01 8.163180e-01 1.112976e+00 1.287114e+00 
1.490900e+00 1.372573e+00 1.112740e+00 7.220129e-01 3.955061e-01 1.689921e-01 3.913735e-01 4.426319e-01 1.505646e+00 9.619320e-01 1.931389e-01 9.312216e-01 9.123536e-01 5.486124e-01 4.089918e-01 4.941880e-01 5.584632e-01 4.941880e-01 4.089918e-01 5.486124e-01 9.123536e-01 9.312216e-01 1.931389e-01 9.619320e-01 1.505646e+00 4.426319e-01 3.913735e-01 1.689921e-01 3.955061e-01 7.220129e-01 1.112740e+00 1.372573e+00 
1.515571e+00 1.396207e+00 1.126243e+00 7.508244e-01 4.081025e-01 1.908984e-01 2.460952e-02 6.280837e-02 7.428471e-01 1.289878e+00 4.825627e-01 4.545423e-01 6.366086e-01 4.892412e-01 4.486102e-01 7.049504e-01 9.217742e-01 7.049504e-01 4.486102e-01 4.892412e-01 6.366086e-01 4.545423e-01 4.825627e-01 1.289878e+00 7.428471e-01 6.280837e-02 2.460952e-02 1.908984e-01 4.081025e-01 7.508244e-01 1.126243e+00 1.396207e+00 
1.413003e+00 1.311605e+00 1.060274e+00 7.550250e-01 4.921885e-01 4.497423e-01 4.750389e-01 6.045854e-01 7.010887e-01 3.094122e-01 3.707417e-01 7.993992e-01 1.303946e+00 1.013922e+00 2.933637e-01 3.755886e-01 4.780839e-01 3.755886e-01 2.933637e-01 1.013922e+00 1.303946e+00 7.993992e-01 3.707417e-01 3.094122e-01 7.010887e-01 6.045854e-01 4.750389e-01 4.497423e-01 4.921885e-01 7.550250e-01 1.060274e+00 1.311605e+00 
1.268654e+00 1.186333e+00 9.812450e-01 7.533446e-01 5.935155e-01 5.989815e-01 6.768890e-01 7.629454e-01 1.002976e+00 1.044884e+00 1.175747e+00 1.033310e+00 3.827012e-01 1.420926e+00 1.603871e+00 8.887877e-01 4.770810e-01 8.887877e-01 1.603871e+00 1.420926e+00 3.827012e-01 1.033310e+00 1.175747e+00 1.044884e+00 1.002976e+00 7.629454e-01 6.768890e-01 5.989815e-01 5.935155e-01 7.533446e-01 9.812450e-01 1.186333e+00 
1.062013e+00 1.005355e+00 8.559462e-01 7.236737e-01 6.647656e-01 7.316996e-01 8.281269e-01 9.375896e-01 1.059766e+00 1.174642e+00 1.263192e+00 1.897073e+00 2.036581e+00 2.036895e+00 1.295551e+00 1.426768e+00 1.468354e+00 1.426768e+00 1.295551e+00 2.036895e+00 2.036581e+00 1.897073e+00 1.263192e+00 1.174642e+00 1.059766e+00 9.375896e-01 8.281269e-01 7.316996e-01 6.647656e-01 7.236737e-01 8.559462e-01 1.005355e+00 
8.511444e-01 8.142120e-01 7.166605e-01 6.519843e-01 6.581034e-01 7.408303e-01 8.520444e-01 9.433728e-01 1.045693e+00 1.127507e+00 1.083418e+00 1.233388e+00 1.655393e+00 2.027773e+00 2.214281e+00 1.322469e+00 4.295267e-02 1.322469e+00 2.214281e+00 2.027773e+00 1.655393e+00 1.233388e+00 1.083418e+00 1.127507e+00 1.045693e+00 9.433728e-01 8.520444e-01 7.408303e-01 6.581034e-01 6.519843e-01 7.166605e-01 8.142120e-01 
6.371717e-01 6.195654e-01 5.711921e-01 5.664253e-01 6.168276e-01 7.099137e-01 8.165980e-01 8.935971e-01 9.713501e-01 9.857854e-01 1.011275e+00 9.673448e-01 1.077875e+00 7.321300e-01 7.334259e-01 9.877007e-01 1.030448e+00 9.877007e-01 7.334259e-01 7.321300e-01 1.077875e+00 9.673448e-01 1.011275e+00 9.857854e-01 9.713501e-01 8.935971e-01 8.165980e-01 7.099137e-01 6.168276e-01 5.664253e-01 5.711921e-01 6.195654e-01 
4.481692e-01 4.429880e-01 4.268761e-01 4.518894e-01 5.219283e-01 6.105455e-01 7.149535e-01 7.756228e-01 8.360342e-01 8.176033e-01 8.095633e-01 7.060497e-01 7.820609e-01 5.558907e-01 6.843797e-01 1.154089e+00 1.371835e+00 1.154089e+00 6.843797e-01 5.558907e-01 7.820609e-01 7.060497e-01 8.095633e-01 8.176033e-01 8.360342e-01 7.756228e-01 7.149535e-01 6.105455e-01 5.219283e-01 4.518894e-01 4.268761e-01 4.429880e-01 
2.929927e-01 2.967352e-01 3.038239e-01 3.413671e-01 4.100582e-01 4.804553e-01 5.624268e-01 5.954938e-01 6.216374e-01 5.577645e-01 4.973208e-01 3.214511e-01 2.064456e-01 1.003548e-01 5.912259e-01 1.071465e+00 1.330364e+00 1.071465e+00 5.912259e-01 1.003548e-01 2.064456e-01 3.214511e-01 4.973208e-01 5.577645e-01 6.216374e-01 5.954938e-01 5.624268e-01 4.804553e-01 4.100582e-01 3.413671e-01 3.038239e-01 2.967352e-01 
1.735785e-01 1.819863e-01 1.993235e-01 2.344495e-01 2.926140e-01 3.460177e-01 4.157339e-01 4.477359e-01 4.760467e-01 4.458926e-01 3.962852e-01 3.152790e-01 2.154952e-01 3.600156e-01 7.141594e-01 1.061678e+00 1.228928e+00 1.061678e+00 7.141594e-01 3.600156e-01 2.154952e-01 3.152790e-01 3.962852e-01 4.458926e-01 4.760467e-01 4.477359e-01 4.157339e-01 3.460177e-01 2.926140e-01 2.344495e-01 1.993235e-01 1.819863e-01 
9.323669e-02 1.042316e-01 1.245915e-01 1.434539e-01 1.752535e-01 2.086611e-01 2.744516e-01 3.516704e-01 4.372541e-01 5.356677e-01 5.979010e-01 6.812094e-01 6.877812e-01 7.440944e-01 7.808367e-01 8.505801e-01 9.102636e-01 8.505801e-01 7.808367e-01 7.440944e-01 6.877812e-01 6.812094e-01 5.979010e-01 5.356677e-01 4.372541e-01 3.516704e-01 2.744516e-01 2.086611e-01 1.752535e-01 1.434539e-01 1.245915e-01 1.042316e-01 
3.810362e-02 5.607883e-02 7.943516e-02 8.140529e-02 8.408570e-02 1.211740e-01 2.182042e-01 3.638678e-01 5.112592e-01 6.859048e-01 8.093144e-01 9.380084e-01 9.608514e-01 9.580413e-01 8.231443e-01 6.310443e-01 5.079445e-01 6.310443e-01 8.231443e-01 9.580413e-01 9.608514e-01 9.380084e-01 8.093144e-01 6.859048e-01 5.112592e-01 3.638678e-01 2.182042e-01 1.211740e-01 8.408570e-02 8.140529e-02 7.943516e-02 5.607883e-02 
