# vtk DataFile Version 2.0
Comment goes here
ASCII

DATASET STRUCTURED_POINTS
FIELD FieldData 1
TIME 1 1 double
1.32000000
DIMENSIONS    32   32   1

ORIGIN    0.000   0.000   0.000
SPACING   0.03125 0.03125   1.000

POINT_DATA   1024
SCALARS uMag double
LOOKUP_TABLE default

2.342065e-13 2.070336e-02 2.390058e-02 1.686278e-03 6.760137e-02 1.721089e-01 3.149841e-01 4.838221e-01 6.629617e-01 8.369039e-01 9.758066e-01 1.069977e+00 1.080249e+00 9.982702e-01 7.899482e-01 4.391238e-01 8.127570e-13 4.391238e-01 7.899482e-01 9.982702e-01 1.080249e+00 1.069977e+00 9.758066e-01 8.369039e-01 6.629617e-01 4.838221e-01 3.149841e-01 1.721089e-01 6.760137e-02 1.686278e-03 2.390058e-02 2.070336e-02 
2.070336e-02 2.897317e-02 3.708794e-02 4.821620e-02 9.616830e-02 1.887977e-01 3.189974e-01 4.721625e-01 6.362744e-01 7.922882e-01 9.199133e-01 1.002860e+00 1.016316e+00 9.517682e-01 7.973365e-01 5.737844e-01 4.391238e-01 5.737844e-01 7.973365e-01 9.517682e-01 1.016316e+00 1.002860e+00 9.199133e-01 7.922882e-01 6.362744e-01 4.721625e-01 3.189974e-01 1.887977e-01 9.616830e-02 4.821620e-02 3.708794e-02 2.897317e-02 
5.278769e-02 6.065241e-02 8.121192e-02 1.155699e-01 1.646225e-01 2.350748e-01 3.246327e-01 4.240841e-01 5.257973e-01 6.187706e-01 6.869089e-01 7.366378e-01 7.482816e-01 7.617905e-01 7.883601e-01 8.187380e-01 8.324038e-01 8.187380e-01 7.883601e-01 7.617905e-01 7.482816e-01 7.366378e-01 6.869089e-01 6.187706e-01 5.257973e-01 4.240841e-01 3.246327e-01 2.350748e-01 1.646225e-01 1.155699e-01 8.121192e-02 6.065241e-02 
1.192635e-01 1.210544e-01 1.394200e-01 1.856372e-01 2.501776e-01 3.243857e-01 3.955238e-01 4.480611e-01 4.839526e-01 4.862969e-01 4.737118e-01 4.532502e-01 4.579930e-01 5.522674e-01 7.714070e-01 1.012315e+00 1.110682e+00 1.012315e+00 7.714070e-01 5.522674e-01 4.579930e-01 4.532502e-01 4.737118e-01 4.862969e-01 4.839526e-01 4.480611e-01 3.955238e-01 3.243857e-01 2.501776e-01 1.856372e-01 1.394200e-01 1.210544e-01 
2.092266e-01 2.071926e-01 2.215690e-01 2.781087e-01 3.607850e-01 4.546865e-01 5.294449e-01 5.703297e-01 5.653826e-01 4.991966e-01 3.800425e-01 2.032378e-01 6.550470e-02 3.430466e-01 7.687757e-01 1.158234e+00 1.311200e+00 1.158234e+00 7.687757e-01 3.430466e-01 6.550470e-02 2.032378e-01 3.800425e-01 4.991966e-01 5.653826e-01 5.703297e-01 5.294449e-01 4.546865e-01 3.607850e-01 2.781087e-01 2.215690e-01 2.071926e-01 
3.476918e-01 3.330959e-01 3.230962e-01 3.599760e-01 4.447872e-01 5.519337e-01 6.396401e-01 6.834255e-01 6.795587e-01 5.947538e-01 4.680091e-01 2.824674e-01 1.856651e-01 2.094188e-01 6.626540e-01 1.164898e+00 1.355581e+00 1.164898e+00 6.626540e-01 2.094188e-01 1.856651e-01 2.824674e-01 4.680091e-01 5.947538e-01 6.795587e-01 6.834255e-01 6.396401e-01 5.519337e-01 4.447872e-01 3.599760e-01 3.230962e-01 3.330959e-01 
5.002323e-01 4.727111e-01 4.300206e-01 4.381101e-01 5.157274e-01 6.420405e-01 7.456498e-01 8.147706e-01 8.224003e-01 7.694178e-01 6.580627e-01 5.322298e-01 6.131101e-01 5.229127e-01 7.424950e-01 1.115281e+00 1.246323e+00 1.115281e+00 7.424950e-01 5.229127e-01 6.131101e-01 5.322298e-01 6.580627e-01 7.694178e-01 8.224003e-01 8.147706e-01 7.456498e-01 6.420405e-01 5.157274e-01 4.381101e-01 4.300206e-01 4.727111e-01 
6.891344e-01 6.408362e-01 5.532790e-01 4.963808e-01 5.373565e-01 6.614532e-01 7.763669e-01 8.499289e-01 8.728152e-01 7.992676e-01 6.480946e-01 5.642803e-01 6.144728e-01 6.292090e-01 9.556109e-01 1.099706e+00 9.636493e-01 1.099706e+00 9.556109e-01 6.292090e-01 6.144728e-01 5.642803e-01 6.480946e-01 7.992676e-01 8.728152e-01 8.499289e-01 7.763669e-01 6.614532e-01 5.373565e-01 4.963808e-01 5.532790e-01 6.408362e-01 
8.632587e-01 7.951851e-01 6.552988e-01 5.245311e-01 5.098057e-01 6.374457e-01 7.630170e-01 8.625839e-01 8.895996e-01 8.753308e-01 5.999695e-01 6.781876e-01 9.545545e-01 1.406701e+00 1.459787e+00 6.498843e-01 1.378674e-01 6.498843e-01 1.459787e+00 1.406701e+00 9.545545e-01 6.781876e-01 5.999695e-01 8.753308e-01 8.895996e-01 8.625839e-01 7.630170e-01 6.374457e-01 5.098057e-01 5.245311e-01 6.552988e-01 7.951851e-01 
1.040424e+00 9.477383e-01 7.601090e-01 5.339830e-01 4.325179e-01 5.447246e-01 6.837296e-01 8.019692e-01 9.016877e-01 8.780522e-01 5.252761e-01 9.523902e-01 1.056244e+00 5.648013e-01 3.650063e-01 4.614152e-01 2.620536e-01 4.614152e-01 3.650063e-01 5.648013e-01 1.056244e+00 9.523902e-01 5.252761e-01 8.780522e-01 9.016877e-01 8.019692e-01 6.837296e-01 5.447246e-01 4.325179e-01 5.339830e-01 7.601090e-01 9.477383e-01 
1.163701e+00 1.052689e+00 8.220679e-01 5.087429e-01 3.006476e-01 4.078028e-01 5.775879e-01 6.821686e-01 8.506496e-01 8.170421e-01 4.456900e-01 3.556986e-01 3.939786e-01 7.733415e-01 3.847089e-01 3.354200e-01 3.276950e-01 3.354200e-01 3.847089e-01 7.733415e-01 3.939786e-01 3.556986e-01 4.456900e-01 8.170421e-01 8.506496e-01 6.821686e-01 5.775879e-01 4.078028e-01 3.006476e-01 5.087429e-01 8.220679e-01 1.052689e+00 
1.245395e+00 1.120269e+00 8.727622e-01 4.903745e-01 1.647506e-01 2.484651e-01 4.291016e-01 6.081650e-01 1.160201e+00 8.321956e-01 1.837664e-01 2.617017e-01 2.063665e-01 4.366869e-01 6.959685e-01 4.445393e-01 4.541537e-01 4.445393e-01 6.959685e-01 4.366869e-01 2.063665e-01 2.617017e-01 1.837664e-01 8.321956e-01 1.160201e+00 6.081650e-01 4.291016e-01 2.484651e-01 1.647506e-01 4.903745e-01 8.727622e-01 1.120269e+00 
1.233367e+00 1.109341e+00 8.771901e-01 4.862981e-01 1.911770e-01 2.397798e-01 4.774728e-01 7.393384e-01 1.680244e+00 8.688058e-01 3.223867e-01 2.110483e-01 3.761138e-01 1.079489e-01 1.041917e-01 2.930309e-01 5.609320e-01 2.930309e-01 1.041917e-01 1.079489e-01 3.761138e-01 2.110483e-01 3.223867e-01 8.688058e-01 1.680244e+00 7.393384e-01 4.774728e-01 2.397798e-01 1.911770e-01 4.862981e-01 8.771901e-01 1.109341e+00 
1.127823e+00 1.030461e+00 8.724792e-01 5.937326e-01 4.523202e-01 4.159359e-01 5.661857e-01 1.367250e+00 2.067922e+00 5.608690e-01 9.988421e-01 2.972207e-01 1.178104e-01 2.447544e-01 2.238144e-01 2.214035e-01 2.627638e-01 2.214035e-01 2.238144e-01 2.447544e-01 1.178104e-01 2.972207e-01 9.988421e-01 5.608690e-01 2.067922e+00 1.367250e+00 5.661857e-01 4.159359e-01 4.523202e-01 5.937326e-01 8.724792e-01 1.030461e+00 
8.856809e-01 8.576156e-01 8.683325e-01 8.491523e-01 8.411870e-01 9.111607e-01 8.414793e-01 1.567955e+00 9.745092e-01 1.514418e+00 1.174050e-01 8.096224e-01 1.971708e-01 7.233910e-02 1.220309e-01 1.713232e-01 1.866532e-01 1.713232e-01 1.220309e-01 7.233910e-02 1.971708e-01 8.096224e-01 1.174050e-01 1.514418e+00 9.745092e-01 1.567955e+00 8.414793e-01 9.111607e-01 8.411870e-01 8.491523e-01 8.683325e-01 8.576156e-01 
4.970741e-01 6.307917e-01 8.768835e-01 1.117911e+00 1.164776e+00 1.288277e+00 9.877808e-01 1.247077e+00 4.912499e-01 6.606971e-01 9.924637e-01 3.924236e-01 2.303083e-01 7.430924e-02 1.654164e-01 9.375407e-02 2.107020e-02 9.375407e-02 1.654164e-01 7.430924e-02 2.303083e-01 3.924236e-01 9.924637e-01 6.606971e-01 4.912499e-01 1.247077e+00 9.877808e-01 1.288277e+00 1.164776e+00 1.117911e+00 8.768835e-01 6.307917e-01 
7.365417e-13 4.970741e-01 8.984221e-01 1.226131e+00 1.286474e+00 1.340208e+00 9.191946e-01 7.529368e-01 6.604942e-01 2.229920e-01 6.605109e-01 5.895057e-01 1.083673e-01 2.035619e-01 1.788514e-02 2.107020e-02 1.655572e-13 2.107020e-02 1.788514e-02 2.035619e-01 1.083673e-01 5.895057e-01 6.605109e-01 2.229920e-01 6.604942e-01 7.529368e-01 9.191946e-01 1.340208e+00 1.286474e+00 1.226131e+00 8.984221e-01 4.970741e-01 
4.970741e-01 6.307917e-01 8.768835e-01 1.117911e+00 1.164776e+00 1.288277e+00 9.877808e-01 1.247077e+00 4.912499e-01 6.606971e-01 9.924637e-01 3.924236e-01 2.303083e-01 7.430924e-02 1.654164e-01 9.375407e-02 2.107020e-02 9.375407e-02 1.654164e-01 7.430924e-02 2.303083e-01 3.924236e-01 9.924637e-01 6.606971e-01 4.912499e-01 1.247077e+00 9.877808e-01 1.288277e+00 1.164776e+00 1.117911e+00 8.768835e-01 6.307917e-01 
8.856809e-01 8.576156e-01 8.683325e-01 8.491523e-01 8.411870e-01 9.111607e-01 8.414793e-01 1.567955e+00 9.745092e-01 1.514418e+00 1.174050e-01 8.096224e-01 1.971708e-01 7.233910e-02 1.220309e-01 1.713232e-01 1.866532e-01 1.713232e-01 1.220309e-01 7.233910e-02 1.971708e-01 8.096224e-01 1.174050e-01 1.514418e+00 9.745092e-01 1.567955e+00 8.414793e-01 9.111607e-01 8.411870e-01 8.491523e-01 8.683325e-01 8.576156e-01 
1.127823e+00 1.030461e+00 8.724792e-01 5.937326e-01 4.523202e-01 4.159359e-01 5.661857e-01 1.367250e+00 2.067922e+00 5.608690e-01 9.988421e-01 2.972207e-01 1.178104e-01 2.447544e-01 2.238144e-01 2.214035e-01 2.627638e-01 2.214035e-01 2.238144e-01 2.447544e-01 1.178104e-01 2.972207e-01 9.988421e-01 5.608690e-01 2.067922e+00 1.367250e+00 5.661857e-01 4.159359e-01 4.523202e-01 5.937326e-01 8.724792e-01 1.030461e+00 
1.233367e+00 1.109341e+00 8.771901e-01 4.862981e-01 1.911770e-01 2.397798e-01 4.774728e-01 7.393384e-01 1.680244e+00 8.688058e-01 3.223867e-01 2.110483e-01 3.761138e-01 1.079489e-01 1.041917e-01 2.930309e-01 5.609320e-01 2.930309e-01 1.041917e-01 1.079489e-01 3.761138e-01 2.110483e-01 3.223867e-01 8.688058e-01 1.680244e+00 7.393384e-01 4.774728e-01 2.397798e-01 1.911770e-01 4.862981e-01 8.771901e-01 1.109341e+00 
1.245395e+00 1.120269e+00 8.727622e-01 4.903745e-01 1.647506e-01 2.484651e-01 4.291016e-01 6.081650e-01 1.160201e+00 8.321956e-01 1.837664e-01 2.617017e-01 2.063665e-01 4.366869e-01 6.959685e-01 4.445393e-01 4.541537e-01 4.445393e-01 6.959685e-01 4.366869e-01 2.063665e-01 2.617017e-01 1.837664e-01 8.321956e-01 1.160201e+00 6.081650e-01 4.291016e-01 2.484651e-01 1.647506e-01 4.903745e-01 8.727622e-01 1.120269e+00 
1.163701e+00 1.052689e+00 8.220679e-01 5.087429e-01 3.006476e-01 4.078028e-01 5.775879e-01 6.821686e-01 8.506496e-01 8.170421e-01 4.456900e-01 3.556986e-01 3.939786e-01 7.733415e-01 3.847089e-01 3.354200e-01 3.276950e-01 3.354200e-01 3.847089e-01 7.733415e-01 3.939786e-01 3.556986e-01 4.456900e-01 8.170421e-01 8.506496e-01 6.821686e-01 5.775879e-01 4.078028e-01 3.006476e-01 5.087429e-01 8.220679e-01 1.052689e+00 
1.040424e+00 9.477383e-01 7.601090e-01 5.339830e-01 4.325179e-01 5.447246e-01 6.837296e-01 8.019692e-01 9.016877e-01 8.780522e-01 5.252761e-01 9.523902e-01 1.056244e+00 5.648013e-01 3.650063e-01 4.614152e-01 2.620536e-01 4.614152e-01 3.650063e-01 5.648013e-01 1.056244e+00 9.523902e-01 5.252761e-01 8.780522e-01 9.016877e-01 8.019692e-01 6.837296e-01 5.447246e-01 4.325179e-01 5.339830e-01 7.601090e-01 9.477383e-01 
8.632587e-01 7.951851e-01 6.552988e-01 5.245311e-01 5.098057e-01 6.374457e-01 7.630170e-01 8.625839e-01 8.895996e-01 8.753308e-01 5.999695e-01 6.781876e-01 9.545545e-01 1.406701e+00 1.459787e+00 6.498843e-01 1.378674e-01 6.498843e-01 1.459787e+00 1.406701e+00 9.545545e-01 6.781876e-01 5.999695e-01 8.753308e-01 8.895996e-01 8.625839e-01 7.630170e-01 6.374457e-01 5.098057e-01 5.245311e-01 6.552988e-01 7.951851e-01 
6.891344e-01 6.408362e-01 5.532790e-01 4.963808e-01 5.373565e-01 6.614532e-01 7.763669e-01 8.499289e-01 8.728152e-01 7.992676e-01 6.480946e-01 5.642803e-01 6.144728e-01 6.292090e-01 9.556109e-01 1.099706e+00 9.636493e-01 1.099706e+00 9.556109e-01 6.292090e-01 6.144728e-01 5.642803e-01 6.480946e-01 7.992676e-01 8.728152e-01 8.499289e-01 7.763669e-01 6.614532e-01 5.373565e-01 4.963808e-01 5.532790e-01 6.408362e-01 
5.002323e-01 4.727111e-01 4.300206e-01 4.381101e-01 5.157274e-01 6.420405e-01 7.456498e-01 8.147706e-01 8.224003e-01 7.694178e-01 6.580627e-01 5.322298e-01 6.131101e-01 5.229127e-01 7.424950e-01 1.115281e+00 1.246323e+00 1.115281e+00 7.424950e-01 5.229127e-01 6.131101e-01 5.322298e-01 6.580627e-01 7.694178e-01 8.224003e-01 8.147706e-01 7.456498e-01 6.420405e-01 5.157274e-01 4.381101e-01 4.300206e-01 4.727111e-01 
3.476918e-01 3.330959e-01 3.230962e-01 3.599760e-01 4.447872e-01 5.519337e-01 6.396401e-01 6.834255e-01 6.795587e-01 5.947538e-01 4.680091e-01 2.824674e-01 1.856651e-01 2.094188e-01 6.626540e-01 1.164898e+00 1.355581e+00 1.164898e+00 6.626540e-01 2.094188e-01 1.856651e-01 2.824674e-01 4.680091e-01 5.947538e-01 6.795587e-01 6.834255e-01 6.396401e-01 5.519337e-01 4.447872e-01 3.599760e-01 3.230962e-01 3.330959e-01 
2.092266e-01 2.071926e-01 2.215690e-01 2.781087e-01 3.607850e-01 4.546865e-01 5.294449e-01 5.703297e-01 5.653826e-01 4.991966e-01 3.800425e-01 2.032378e-01 6.550470e-02 3.430466e-01 7.687757e-01 1.158234e+00 1.311200e+00 1.158234e+00 7.687757e-01 3.430466e-01 6.550470e-02 2.032378e-01 3.800425e-01 4.991966e-01 5.653826e-01 5.703297e-01 5.294449e-01 4.546865e-01 3.607850e-01 2.781087e-01 2.215690e-01 2.071926e-01 
1.192635e-01 1.210544e-01 1.394200e-01 1.856372e-01 2.501776e-01 3.243857e-01 3.955238e-01 4.480611e-01 4.839526e-01 4.862969e-01 4.737118e-01 4.532502e-01 4.579930e-01 5.522674e-01 7.714070e-01 1.012315e+00 1.110682e+00 1.012315e+00 7.714070e-01 5.522674e-01 4.579930e-01 4.532502e-01 4.737118e-01 4.862969e-01 4.839526e-01 4.480611e-01 3.955238e-01 3.243857e-01 2.501776e-01 1.856372e-01 1.394200e-01 1.210544e-01 
5.278769e-02 6.065241e-02 8.121192e-02 1.155699e-01 1.646225e-01 2.350748e-01 3.246327e-01 4.240841e-01 5.257973e-01 6.187706e-01 6.869089e-01 7.366378e-01 7.482816e-01 7.617905e-01 7.883601e-01 8.187380e-01 8.324038e-01 8.187380e-01 7.883601e-01 7.617905e-01 7.482816e-01 7.366378e-01 6.869089e-01 6.187706e-01 5.257973e-01 4.240841e-01 3.246327e-01 2.350748e-01 1.646225e-01 1.155699e-01 8.121192e-02 6.065241e-02 
2.070336e-02 2.897317e-02 3.708794e-02 4.821620e-02 9.616830e-02 1.887977e-01 3.189974e-01 4.721625e-01 6.362744e-01 7.922882e-01 9.199133e-01 1.002860e+00 1.016316e+00 9.517682e-01 7.973365e-01 5.737844e-01 4.391238e-01 5.737844e-01 7.973365e-01 9.517682e-01 1.016316e+00 1.002860e+00 9.199133e-01 7.922882e-01 6.362744e-01 4.721625e-01 3.189974e-01 1.887977e-01 9.616830e-02 4.821620e-02 3.708794e-02 2.897317e-02 
