# vtk DataFile Version 2.0
Comment goes here
ASCII

DATASET STRUCTURED_POINTS
FIELD FieldData 1
TIME 1 1 double
0.10000000
DIMENSIONS    32   32   1

ORIGIN    0.000   0.000   0.000
SPACING   0.03125 0.03125   1.000

POINT_DATA   1024
SCALARS uMag double
LOOKUP_TABLE default

1.317765e-15 9.164498e-02 1.821386e-01 2.633000e-01 3.387666e-01 3.966892e-01 4.411579e-01 4.631745e-01 4.667307e-01 4.536812e-01 4.240517e-01 3.893881e-01 3.415154e-01 2.925153e-01 2.331336e-01 1.798947e-01 6.525425e-15 1.798947e-01 2.331336e-01 2.925153e-01 3.415154e-01 3.893881e-01 4.240517e-01 4.536812e-01 4.667307e-01 4.631745e-01 4.411579e-01 3.966892e-01 3.387666e-01 2.633000e-01 1.821386e-01 9.164498e-02 
9.164498e-02 1.313897e-01 2.073978e-01 2.845331e-01 3.600602e-01 4.194420e-01 4.673608e-01 4.927833e-01 4.999774e-01 4.898798e-01 4.594304e-01 4.216846e-01 3.709775e-01 3.245178e-01 2.846830e-01 2.515993e-01 1.798947e-01 2.515993e-01 2.846830e-01 3.245178e-01 3.709775e-01 4.216846e-01 4.594304e-01 4.898798e-01 4.999774e-01 4.927833e-01 4.673608e-01 4.194420e-01 3.600602e-01 2.845331e-01 2.073978e-01 1.313897e-01 
1.894163e-01 2.124252e-01 2.643767e-01 3.268015e-01 3.924321e-01 4.440081e-01 4.848564e-01 5.019092e-01 5.005726e-01 4.820860e-01 4.465287e-01 4.107041e-01 3.673101e-01 3.394904e-01 3.497788e-01 3.757095e-01 4.459344e-01 3.757095e-01 3.497788e-01 3.394904e-01 3.673101e-01 4.107041e-01 4.465287e-01 4.820860e-01 5.005726e-01 5.019092e-01 4.848564e-01 4.440081e-01 3.924321e-01 3.268015e-01 2.643767e-01 2.124252e-01 
2.863448e-01 3.044846e-01 3.438544e-01 3.968548e-01 4.588959e-01 5.087258e-01 5.528901e-01 5.731247e-01 5.761372e-01 5.592697e-01 5.121574e-01 4.549865e-01 3.866752e-01 3.316384e-01 3.193833e-01 4.751422e-01 6.830213e-01 4.751422e-01 3.193833e-01 3.316384e-01 3.866752e-01 4.549865e-01 5.121574e-01 5.592697e-01 5.761372e-01 5.731247e-01 5.528901e-01 5.087258e-01 4.588959e-01 3.968548e-01 3.438544e-01 3.044846e-01 
3.995550e-01 4.165896e-01 4.468470e-01 4.923592e-01 5.487778e-01 5.920020e-01 6.287428e-01 6.386261e-01 6.217498e-01 5.782027e-01 5.184223e-01 4.686930e-01 4.100690e-01 3.472579e-01 3.329930e-01 5.700207e-01 7.349857e-01 5.700207e-01 3.329930e-01 3.472579e-01 4.100690e-01 4.686930e-01 5.184223e-01 5.782027e-01 6.217498e-01 6.386261e-01 6.287428e-01 5.920020e-01 5.487778e-01 4.923592e-01 4.468470e-01 4.165896e-01 
5.119635e-01 5.306158e-01 5.562774e-01 5.992827e-01 6.595384e-01 7.042147e-01 7.530767e-01 7.810660e-01 7.880977e-01 7.758252e-01 7.161171e-01 6.576889e-01 5.846497e-01 4.950149e-01 4.642305e-01 6.392433e-01 7.218155e-01 6.392433e-01 4.642305e-01 4.950149e-01 5.846497e-01 6.576889e-01 7.161171e-01 7.758252e-01 7.880977e-01 7.810660e-01 7.530767e-01 7.042147e-01 6.595384e-01 5.992827e-01 5.562774e-01 5.306158e-01 
6.425908e-01 6.673266e-01 6.942118e-01 7.460138e-01 8.211646e-01 8.794848e-01 9.507028e-01 1.000204e+00 1.006612e+00 9.834808e-01 9.667386e-01 1.018013e+00 1.023412e+00 9.184452e-01 8.302310e-01 8.113664e-01 7.956599e-01 8.113664e-01 8.302310e-01 9.184452e-01 1.023412e+00 1.018013e+00 9.667386e-01 9.834808e-01 1.006612e+00 1.000204e+00 9.507028e-01 8.794848e-01 8.211646e-01 7.460138e-01 6.942118e-01 6.673266e-01 
7.702741e-01 8.049919e-01 8.342101e-01 8.997485e-01 1.004958e+00 1.091966e+00 1.228364e+00 1.356174e+00 1.582114e+00 1.825911e+00 1.860340e+00 1.755264e+00 1.453009e+00 1.184718e+00 1.107533e+00 1.164283e+00 1.229108e+00 1.164283e+00 1.107533e+00 1.184718e+00 1.453009e+00 1.755264e+00 1.860340e+00 1.825911e+00 1.582114e+00 1.356174e+00 1.228364e+00 1.091966e+00 1.004958e+00 8.997485e-01 8.342101e-01 8.049919e-01 
8.975600e-01 9.498545e-01 9.940080e-01 1.104332e+00 1.288012e+00 1.493041e+00 1.829693e+00 2.184623e+00 2.383220e+00 2.159595e+00 1.668210e+00 1.369821e+00 1.264567e+00 1.299610e+00 1.298521e+00 1.379089e+00 1.474013e+00 1.379089e+00 1.298521e+00 1.299610e+00 1.264567e+00 1.369821e+00 1.668210e+00 2.159595e+00 2.383220e+00 2.184623e+00 1.829693e+00 1.493041e+00 1.288012e+00 1.104332e+00 9.940080e-01 9.498545e-01 
1.002224e+00 1.085668e+00 1.149087e+00 1.341584e+00 1.692555e+00 2.109982e+00 2.537243e+00 2.425521e+00 1.865318e+00 1.377347e+00 1.328879e+00 1.588698e+00 1.891859e+00 1.772739e+00 1.495064e+00 1.161623e+00 8.587877e-01 1.161623e+00 1.495064e+00 1.772739e+00 1.891859e+00 1.588698e+00 1.328879e+00 1.377347e+00 1.865318e+00 2.425521e+00 2.537243e+00 2.109982e+00 1.692555e+00 1.341584e+00 1.149087e+00 1.085668e+00 
1.045917e+00 1.170665e+00 1.284287e+00 1.664416e+00 2.294546e+00 2.769047e+00 2.482579e+00 1.132207e+00 9.904299e-01 2.357967e+00 2.623562e+00 2.388964e+00 2.160268e+00 1.641247e+00 1.154185e+00 6.341406e-01 1.576352e-01 6.341406e-01 1.154185e+00 1.641247e+00 2.160268e+00 2.388964e+00 2.623562e+00 2.357967e+00 9.904299e-01 1.132207e+00 2.482579e+00 2.769047e+00 2.294546e+00 1.664416e+00 1.284287e+00 1.170665e+00 
9.970234e-01 1.203625e+00 1.393697e+00 2.081134e+00 2.999769e+00 2.936939e+00 8.794783e-01 1.632812e+00 3.256297e+00 3.447048e+00 2.500847e+00 1.843436e+00 1.496892e+00 9.409669e-01 5.018390e-01 1.243924e-01 9.082777e-02 1.243924e-01 5.018390e-01 9.409669e-01 1.496892e+00 1.843436e+00 2.500847e+00 3.447048e+00 3.256297e+00 1.632812e+00 8.794783e-01 2.936939e+00 2.999769e+00 2.081134e+00 1.393697e+00 1.203625e+00 
7.787580e-01 1.060789e+00 1.397282e+00 2.597653e+00 3.855227e+00 1.866346e+00 1.935055e+00 3.253504e+00 3.265897e+00 1.969369e+00 1.002170e+00 1.002202e+00 8.831038e-01 3.911113e-01 2.357216e-01 1.688608e-01 3.530522e-02 1.688608e-01 2.357216e-01 3.911113e-01 8.831038e-01 1.002202e+00 1.002170e+00 1.969369e+00 3.265897e+00 3.253504e+00 1.935055e+00 1.866346e+00 3.855227e+00 2.597653e+00 1.397282e+00 1.060789e+00 
4.215447e-01 8.299959e-01 1.460895e+00 3.619310e+00 3.874560e+00 1.821373e+00 3.564468e+00 3.043594e+00 1.906183e+00 5.472692e-01 4.825393e-01 1.100925e+00 1.118633e+00 6.358239e-01 3.993662e-01 2.580810e-01 1.632443e-01 2.580810e-01 3.993662e-01 6.358239e-01 1.118633e+00 1.100925e+00 4.825393e-01 5.472692e-01 1.906183e+00 3.043594e+00 3.564468e+00 1.821373e+00 3.874560e+00 3.619310e+00 1.460895e+00 8.299959e-01 
1.633283e-01 3.973549e-01 1.634472e+00 4.297879e+00 2.857081e+00 4.610274e+00 3.574444e+00 2.418173e+00 1.480687e+00 1.104413e+00 1.015825e+00 1.105215e+00 9.314069e-01 5.574511e-01 3.358025e-01 2.189947e-01 1.667907e-01 2.189947e-01 3.358025e-01 5.574511e-01 9.314069e-01 1.105215e+00 1.015825e+00 1.104413e+00 1.480687e+00 2.418173e+00 3.574444e+00 4.610274e+00 2.857081e+00 4.297879e+00 1.634472e+00 3.973549e-01 
3.919380e-02 2.334339e-01 1.088801e+00 3.126232e+00 4.624516e+00 3.970434e+00 2.401296e+00 2.025838e+00 1.660228e+00 1.648680e+00 1.618254e+00 1.360593e+00 9.250086e-01 5.641478e-01 3.374069e-01 1.911419e-01 1.376403e-01 1.911419e-01 3.374069e-01 5.641478e-01 9.250086e-01 1.360593e+00 1.618254e+00 1.648680e+00 1.660228e+00 2.025838e+00 2.401296e+00 3.970434e+00 4.624516e+00 3.126232e+00 1.088801e+00 2.334339e-01 
1.018376e-14 3.919380e-02 4.373665e-01 2.102341e+00 5.170434e+00 2.412295e+00 1.864918e+00 2.046683e+00 1.662346e+00 1.820762e+00 1.957153e+00 1.711731e+00 1.118755e+00 6.516389e-01 3.439793e-01 1.376403e-01 9.596608e-15 1.376403e-01 3.439793e-01 6.516389e-01 1.118755e+00 1.711731e+00 1.957153e+00 1.820762e+00 1.662346e+00 2.046683e+00 1.864918e+00 2.412295e+00 5.170434e+00 2.102341e+00 4.373665e-01 3.919380e-02 
3.919380e-02 2.334339e-01 1.088801e+00 3.126232e+00 4.624516e+00 3.970434e+00 2.401296e+00 2.025838e+00 1.660228e+00 1.648680e+00 1.618254e+00 1.360593e+00 9.250086e-01 5.641478e-01 3.374069e-01 1.911419e-01 1.376403e-01 1.911419e-01 3.374069e-01 5.641478e-01 9.250086e-01 1.360593e+00 1.618254e+00 1.648680e+00 1.660228e+00 2.025838e+00 2.401296e+00 3.970434e+00 4.624516e+00 3.126232e+00 1.088801e+00 2.334339e-01 
1.633283e-01 3.973549e-01 1.634472e+00 4.297879e+00 2.857081e+00 4.610274e+00 3.574444e+00 2.418173e+00 1.480687e+00 1.104413e+00 1.015825e+00 1.105215e+00 9.314069e-01 5.574511e-01 3.358025e-01 2.189947e-01 1.667907e-01 2.189947e-01 3.358025e-01 5.574511e-01 9.314069e-01 1.105215e+00 1.015825e+00 1.104413e+00 1.480687e+00 2.418173e+00 3.574444e+00 4.610274e+00 2.857081e+00 4.297879e+00 1.634472e+00 3.973549e-01 
4.215447e-01 8.299959e-01 1.460895e+00 3.619310e+00 3.874560e+00 1.821373e+00 3.564468e+00 3.043594e+00 1.906183e+00 5.472692e-01 4.825393e-01 1.100925e+00 1.118633e+00 6.358239e-01 3.993662e-01 2.580810e-01 1.632443e-01 2.580810e-01 3.993662e-01 6.358239e-01 1.118633e+00 1.100925e+00 4.825393e-01 5.472692e-01 1.906183e+00 3.043594e+00 3.564468e+00 1.821373e+00 3.874560e+00 3.619310e+00 1.460895e+00 8.299959e-01 
7.787580e-01 1.060789e+00 1.397282e+00 2.597653e+00 3.855227e+00 1.866346e+00 1.935055e+00 3.253504e+00 3.265897e+00 1.969369e+00 1.002170e+00 1.002202e+00 8.831038e-01 3.911113e-01 2.357216e-01 1.688608e-01 3.530522e-02 1.688608e-01 2.357216e-01 3.911113e-01 8.831038e-01 1.002202e+00 1.002170e+00 1.969369e+00 3.265897e+00 3.253504e+00 1.935055e+00 1.866346e+00 3.855227e+00 2.597653e+00 1.397282e+00 1.060789e+00 
9.970234e-01 1.203625e+00 1.393697e+00 2.081134e+00 2.999769e+00 2.936939e+00 8.794783e-01 1.632812e+00 3.256297e+00 3.447048e+00 2.500847e+00 1.843436e+00 1.496892e+00 9.409669e-01 5.018390e-01 1.243924e-01 9.082777e-02 1.243924e-01 5.018390e-01 9.409669e-01 1.496892e+00 1.843436e+00 2.500847e+00 3.447048e+00 3.256297e+00 1.632812e+00 8.794783e-01 2.936939e+00 2.999769e+00 2.081134e+00 1.393697e+00 1.203625e+00 
1.045917e+00 1.170665e+00 1.284287e+00 1.664416e+00 2.294546e+00 2.769047e+00 2.482579e+00 1.132207e+00 9.904299e-01 2.357967e+00 2.623562e+00 2.388964e+00 2.160268e+00 1.641247e+00 1.154185e+00 6.341406e-01 1.576352e-01 6.341406e-01 1.154185e+00 1.641247e+00 2.160268e+00 2.388964e+00 2.623562e+00 2.357967e+00 9.904299e-01 1.132207e+00 2.482579e+00 2.769047e+00 2.294546e+00 1.664416e+00 1.284287e+00 1.170665e+00 
1.002224e+00 1.085668e+00 1.149087e+00 1.341584e+00 1.692555e+00 2.109982e+00 2.537243e+00 2.425521e+00 1.865318e+00 1.377347e+00 1.328879e+00 1.588698e+00 1.891859e+00 1.772739e+00 1.495064e+00 1.161623e+00 8.587877e-01 1.161623e+00 1.495064e+00 1.772739e+00 1.891859e+00 1.588698e+00 1.328879e+00 1.377347e+00 1.865318e+00 2.425521e+00 2.537243e+00 2.109982e+00 1.692555e+00 1.341584e+00 1.149087e+00 1.085668e+00 
8.975600e-01 9.498545e-01 9.940080e-01 1.104332e+00 1.288012e+00 1.493041e+00 1.829693e+00 2.184623e+00 2.383220e+00 2.159595e+00 1.668210e+00 1.369821e+00 1.264567e+00 1.299610e+00 1.298521e+00 1.379089e+00 1.474013e+00 1.379089e+00 1.298521e+00 1.299610e+00 1.264567e+00 1.369821e+00 1.668210e+00 2.159595e+00 2.383220e+00 2.184623e+00 1.829693e+00 1.493041e+00 1.288012e+00 1.104332e+00 9.940080e-01 9.498545e-01 
7.702741e-01 8.049919e-01 8.342101e-01 8.997485e-01 1.004958e+00 1.091966e+00 1.228364e+00 1.356174e+00 1.582114e+00 1.825911e+00 1.860340e+00 1.755264e+00 1.453009e+00 1.184718e+00 1.107533e+00 1.164283e+00 1.229108e+00 1.164283e+00 1.107533e+00 1.184718e+00 1.453009e+00 1.755264e+00 1.860340e+00 1.825911e+00 1.582114e+00 1.356174e+00 1.228364e+00 1.091966e+00 1.004958e+00 8.997485e-01 8.342101e-01 8.049919e-01 
6.425908e-01 6.673266e-01 6.942118e-01 7.460138e-01 8.211646e-01 8.794848e-01 9.507028e-01 1.000204e+00 1.006612e+00 9.834808e-01 9.667386e-01 1.018013e+00 1.023412e+00 9.184452e-01 8.302310e-01 8.113664e-01 7.956599e-01 8.113664e-01 8.302310e-01 9.184452e-01 1.023412e+00 1.018013e+00 9.667386e-01 9.834808e-01 1.006612e+00 1.000204e+00 9.507028e-01 8.794848e-01 8.211646e-01 7.460138e-01 6.942118e-01 6.673266e-01 
5.119635e-01 5.306158e-01 5.562774e-01 5.992827e-01 6.595384e-01 7.042147e-01 7.530767e-01 7.810660e-01 7.880977e-01 7.758252e-01 7.161171e-01 6.576889e-01 5.846497e-01 4.950149e-01 4.642305e-01 6.392433e-01 7.218155e-01 6.392433e-01 4.642305e-01 4.950149e-01 5.846497e-01 6.576889e-01 7.161171e-01 7.758252e-01 7.880977e-01 7.810660e-01 7.530767e-01 7.042147e-01 6.595384e-01 5.992827e-01 5.562774e-01 5.306158e-01 
3.995550e-01 4.165896e-01 4.468470e-01 4.923592e-01 5.487778e-01 5.920020e-01 6.287428e-01 6.386261e-01 6.217498e-01 5.782027e-01 5.184223e-01 4.686930e-01 4.100690e-01 3.472579e-01 3.329930e-01 5.700207e-01 7.349857e-01 5.700207e-01 3.329930e-01 3.472579e-01 4.100690e-01 4.686930e-01 5.184223e-01 5.782027e-01 6.217498e-01 6.386261e-01 6.287428e-01 5.920020e-01 5.487778e-01 4.923592e-01 4.468470e-01 4.165896e-01 
2.863448e-01 3.044846e-01 3.438544e-01 3.968548e-01 4.588959e-01 5.087258e-01 5.528901e-01 5.731247e-01 5.761372e-01 5.592697e-01 5.121574e-01 4.549865e-01 3.866752e-01 3.316384e-01 3.193833e-01 4.751422e-01 6.830213e-01 4.751422e-01 3.193833e-01 3.316384e-01 3.866752e-01 4.549865e-01 5.121574e-01 5.592697e-01 5.761372e-01 5.731247e-01 5.528901e-01 5.087258e-01 4.588959e-01 3.968548e-01 3.438544e-01 3.044846e-01 
1.894163e-01 2.124252e-01 2.643767e-01 3.268015e-01 3.924321e-01 4.440081e-01 4.848564e-01 5.019092e-01 5.005726e-01 4.820860e-01 4.465287e-01 4.107041e-01 3.673101e-01 3.394904e-01 3.497788e-01 3.757095e-01 4.459344e-01 3.757095e-01 3.497788e-01 3.394904e-01 3.673101e-01 4.107041e-01 4.465287e-01 4.820860e-01 5.005726e-01 5.019092e-01 4.848564e-01 4.440081e-01 3.924321e-01 3.268015e-01 2.643767e-01 2.124252e-01 
9.164498e-02 1.313897e-01 2.073978e-01 2.845331e-01 3.600602e-01 4.194420e-01 4.673608e-01 4.927833e-01 4.999774e-01 4.898798e-01 4.594304e-01 4.216846e-01 3.709775e-01 3.245178e-01 2.846830e-01 2.515993e-01 1.798947e-01 2.515993e-01 2.846830e-01 3.245178e-01 3.709775e-01 4.216846e-01 4.594304e-01 4.898798e-01 4.999774e-01 4.927833e-01 4.673608e-01 4.194420e-01 3.600602e-01 2.845331e-01 2.073978e-01 1.313897e-01 
