# vtk DataFile Version 2.0
Comment goes here
ASCII

DATASET STRUCTURED_POINTS
FIELD FieldData 1
TIME 1 1 double
0.50000000
DIMENSIONS    32   32   1

ORIGIN    0.000   0.000   0.000
SPACING   0.03125 0.03125   1.000

POINT_DATA   1024
SCALARS uMag double
LOOKUP_TABLE default

6.530531e-15 5.031875e-02 9.481842e-02 1.322745e-01 1.529573e-01 1.553863e-01 1.288697e-01 6.206777e-02 4.340457e-02 2.119818e-01 3.917215e-01 6.203621e-01 7.538925e-01 8.420067e-01 6.971467e-01 4.132062e-01 1.338205e-14 4.132062e-01 6.971467e-01 8.420067e-01 7.538925e-01 6.203621e-01 3.917215e-01 2.119818e-01 4.340457e-02 6.206777e-02 1.288697e-01 1.553863e-01 1.529573e-01 1.322745e-01 9.481842e-02 5.031875e-02 
5.031875e-02 7.207158e-02 1.109844e-01 1.484047e-01 1.733897e-01 1.849150e-01 1.778607e-01 1.507807e-01 1.438423e-01 1.977225e-01 3.166424e-01 4.811236e-01 5.871707e-01 6.974445e-01 6.803772e-01 5.370447e-01 4.132062e-01 5.370447e-01 6.803772e-01 6.974445e-01 5.871707e-01 4.811236e-01 3.166424e-01 1.977225e-01 1.438423e-01 1.507807e-01 1.778607e-01 1.849150e-01 1.733897e-01 1.484047e-01 1.109844e-01 7.207158e-02 
1.085666e-01 1.187999e-01 1.442783e-01 1.744136e-01 1.965745e-01 2.162239e-01 2.269358e-01 2.384417e-01 2.693066e-01 2.962608e-01 3.523454e-01 3.733832e-01 3.515055e-01 3.555730e-01 3.890569e-01 6.615422e-01 8.171012e-01 6.615422e-01 3.890569e-01 3.555730e-01 3.515055e-01 3.733832e-01 3.523454e-01 2.962608e-01 2.693066e-01 2.384417e-01 2.269358e-01 2.162239e-01 1.965745e-01 1.744136e-01 1.442783e-01 1.187999e-01 
1.682180e-01 1.738184e-01 1.944359e-01 2.221425e-01 2.490327e-01 2.854424e-01 3.242331e-01 3.804119e-01 4.569480e-01 5.204646e-01 6.008974e-01 5.366868e-01 4.583681e-01 1.581596e-01 4.246473e-01 6.238474e-01 7.009038e-01 6.238474e-01 4.246473e-01 1.581596e-01 4.583681e-01 5.366868e-01 6.008974e-01 5.204646e-01 4.569480e-01 3.804119e-01 3.242331e-01 2.854424e-01 2.490327e-01 2.221425e-01 1.944359e-01 1.738184e-01 
2.482520e-01 2.498915e-01 2.641457e-01 2.855790e-01 3.081891e-01 3.497464e-01 3.935892e-01 4.733641e-01 5.660895e-01 6.854759e-01 8.053770e-01 7.753374e-01 8.763973e-01 9.310992e-01 1.079880e+00 1.150729e+00 1.080393e+00 1.150729e+00 1.079880e+00 9.310992e-01 8.763973e-01 7.753374e-01 8.053770e-01 6.854759e-01 5.660895e-01 4.733641e-01 3.935892e-01 3.497464e-01 3.081891e-01 2.855790e-01 2.641457e-01 2.498915e-01 
3.317535e-01 3.280175e-01 3.368711e-01 3.501297e-01 3.696291e-01 4.154096e-01 4.699879e-01 5.776675e-01 7.056923e-01 9.317133e-01 1.168793e+00 1.423950e+00 2.161742e+00 2.896189e+00 2.803771e+00 1.543225e+00 1.106168e+00 1.543225e+00 2.803771e+00 2.896189e+00 2.161742e+00 1.423950e+00 1.168793e+00 9.317133e-01 7.056923e-01 5.776675e-01 4.699879e-01 4.154096e-01 3.696291e-01 3.501297e-01 3.368711e-01 3.280175e-01 
4.416314e-01 4.318791e-01 4.318373e-01 4.333073e-01 4.432627e-01 4.852539e-01 5.398830e-01 6.606395e-01 8.207425e-01 1.198789e+00 1.497446e+00 2.259488e+00 2.666161e+00 1.685008e+00 1.413160e+00 2.116854e+00 1.859381e+00 2.116854e+00 1.413160e+00 1.685008e+00 2.666161e+00 2.259488e+00 1.497446e+00 1.198789e+00 8.207425e-01 6.606395e-01 5.398830e-01 4.852539e-01 4.432627e-01 4.333073e-01 4.318373e-01 4.318791e-01 
5.613506e-01 5.394360e-01 5.218391e-01 4.973161e-01 4.855414e-01 5.098857e-01 5.555874e-01 6.659520e-01 9.366703e-01 1.304832e+00 1.467538e+00 1.369081e+00 6.505683e-01 2.387510e+00 2.176993e+00 8.004720e-01 1.939081e-02 8.004720e-01 2.176993e+00 2.387510e+00 6.505683e-01 1.369081e+00 1.467538e+00 1.304832e+00 9.366703e-01 6.659520e-01 5.555874e-01 5.098857e-01 4.855414e-01 4.973161e-01 5.218391e-01 5.394360e-01 
7.063057e-01 6.694305e-01 6.261071e-01 5.688284e-01 5.275545e-01 5.310826e-01 5.622910e-01 6.866401e-01 1.094810e+00 9.155643e-01 4.289327e-01 6.605658e-01 1.690996e+00 1.369908e+00 6.990459e-01 8.457889e-01 7.738973e-01 8.457889e-01 6.990459e-01 1.369908e+00 1.690996e+00 6.605658e-01 4.289327e-01 9.155643e-01 1.094810e+00 6.866401e-01 5.622910e-01 5.310826e-01 5.275545e-01 5.688284e-01 6.261071e-01 6.694305e-01 
8.671263e-01 8.057285e-01 7.209486e-01 6.047042e-01 5.065725e-01 4.762328e-01 4.380034e-01 7.178221e-01 7.627353e-01 2.894656e-01 2.886593e-01 7.456120e-01 1.163989e+00 9.180208e-01 7.950053e-01 9.020754e-01 9.330258e-01 9.020754e-01 7.950053e-01 9.180208e-01 1.163989e+00 7.456120e-01 2.886593e-01 2.894656e-01 7.627353e-01 7.178221e-01 4.380034e-01 4.762328e-01 5.065725e-01 6.047042e-01 7.209486e-01 8.057285e-01 
1.030263e+00 9.431696e-01 8.095228e-01 6.228795e-01 4.679225e-01 4.175185e-01 3.564821e-01 7.555778e-01 2.838307e-01 5.271591e-01 1.000841e-01 1.182623e+00 1.056025e+00 3.740996e-01 6.083197e-01 1.025005e+00 1.244634e+00 1.025005e+00 6.083197e-01 3.740996e-01 1.056025e+00 1.182623e+00 1.000841e-01 5.271591e-01 2.838307e-01 7.555778e-01 3.564821e-01 4.175185e-01 4.679225e-01 6.228795e-01 8.095228e-01 9.431696e-01 
1.187793e+00 1.072058e+00 8.911228e-01 5.974517e-01 3.960181e-01 2.395998e-01 3.535007e-01 3.152463e-01 1.073643e+00 5.654180e-01 5.293722e-01 1.623687e+00 7.604533e-01 6.588271e-01 7.034694e-01 9.230596e-01 1.059761e+00 9.230596e-01 7.034694e-01 6.588271e-01 7.604533e-01 1.623687e+00 5.293722e-01 5.654180e-01 1.073643e+00 3.152463e-01 3.535007e-01 2.395998e-01 3.960181e-01 5.974517e-01 8.911228e-01 1.072058e+00 
1.279146e+00 1.150486e+00 9.295033e-01 5.278941e-01 2.571719e-01 4.795608e-02 2.394578e-01 4.829210e-01 1.071277e+00 7.101462e-01 1.049175e+00 1.627393e+00 6.796271e-01 7.744492e-01 5.778908e-01 6.828867e-01 7.105806e-01 6.828867e-01 5.778908e-01 7.744492e-01 6.796271e-01 1.627393e+00 1.049175e+00 7.101462e-01 1.071277e+00 4.829210e-01 2.394578e-01 4.795608e-02 2.571719e-01 5.278941e-01 9.295033e-01 1.150486e+00 
1.294825e+00 1.174228e+00 9.523059e-01 5.304149e-01 2.462851e-01 2.998071e-01 4.374143e-01 1.037807e+00 6.932475e-01 7.366431e-01 1.482704e+00 1.270429e+00 5.865546e-01 5.885823e-01 4.492366e-01 4.708089e-01 4.178038e-01 4.708089e-01 4.492366e-01 5.885823e-01 5.865546e-01 1.270429e+00 1.482704e+00 7.366431e-01 6.932475e-01 1.037807e+00 4.374143e-01 2.998071e-01 2.462851e-01 5.304149e-01 9.523059e-01 1.174228e+00 
1.134092e+00 1.076660e+00 9.750060e-01 8.115818e-01 7.389339e-01 9.793070e-01 1.088821e+00 1.324159e+00 6.445659e-01 9.774946e-01 1.513520e+00 8.059601e-01 4.993119e-01 3.662925e-01 3.254951e-01 2.545650e-01 1.774173e-01 2.545650e-01 3.254951e-01 3.662925e-01 4.993119e-01 8.059601e-01 1.513520e+00 9.774946e-01 6.445659e-01 1.324159e+00 1.088821e+00 9.793070e-01 7.389339e-01 8.115818e-01 9.750060e-01 1.076660e+00 
7.620385e-01 9.021735e-01 1.180672e+00 1.442994e+00 1.516939e+00 1.572004e+00 1.244313e+00 1.070301e+00 6.979443e-01 1.108629e+00 1.094524e+00 3.407409e-01 2.655987e-01 9.969889e-02 1.809940e-01 1.086224e-01 5.617029e-02 1.086224e-01 1.809940e-01 9.969889e-02 2.655987e-01 3.407409e-01 1.094524e+00 1.108629e+00 6.979443e-01 1.070301e+00 1.244313e+00 1.572004e+00 1.516939e+00 1.442994e+00 1.180672e+00 9.021735e-01 
8.935132e-15 7.620385e-01 1.403390e+00 1.867941e+00 1.903848e+00 1.746711e+00 1.163964e+00 9.674614e-01 7.916219e-01 1.130874e+00 8.187357e-01 1.773387e-02 1.680847e-01 5.173621e-03 1.253730e-01 5.617029e-02 1.327441e-14 5.617029e-02 1.253730e-01 5.173621e-03 1.680847e-01 1.773387e-02 8.187357e-01 1.130874e+00 7.916219e-01 9.674614e-01 1.163964e+00 1.746711e+00 1.903848e+00 1.867941e+00 1.403390e+00 7.620385e-01 
7.620385e-01 9.021735e-01 1.180672e+00 1.442994e+00 1.516939e+00 1.572004e+00 1.244313e+00 1.070301e+00 6.979443e-01 1.108629e+00 1.094524e+00 3.407409e-01 2.655987e-01 9.969889e-02 1.809940e-01 1.086224e-01 5.617029e-02 1.086224e-01 1.809940e-01 9.969889e-02 2.655987e-01 3.407409e-01 1.094524e+00 1.108629e+00 6.979443e-01 1.070301e+00 1.244313e+00 1.572004e+00 1.516939e+00 1.442994e+00 1.180672e+00 9.021735e-01 
1.134092e+00 1.076660e+00 9.750060e-01 8.115818e-01 7.389339e-01 9.793070e-01 1.088821e+00 1.324159e+00 6.445659e-01 9.774946e-01 1.513520e+00 8.059601e-01 4.993119e-01 3.662925e-01 3.254951e-01 2.545650e-01 1.774173e-01 2.545650e-01 3.254951e-01 3.662925e-01 4.993119e-01 8.059601e-01 1.513520e+00 9.774946e-01 6.445659e-01 1.324159e+00 1.088821e+00 9.793070e-01 7.389339e-01 8.115818e-01 9.750060e-01 1.076660e+00 
1.294825e+00 1.174228e+00 9.523059e-01 5.304149e-01 2.462851e-01 2.998071e-01 4.374143e-01 1.037807e+00 6.932475e-01 7.366431e-01 1.482704e+00 1.270429e+00 5.865546e-01 5.885823e-01 4.492366e-01 4.708089e-01 4.178038e-01 4.708089e-01 4.492366e-01 5.885823e-01 5.865546e-01 1.270429e+00 1.482704e+00 7.366431e-01 6.932475e-01 1.037807e+00 4.374143e-01 2.998071e-01 2.462851e-01 5.304149e-01 9.523059e-01 1.174228e+00 
1.279146e+00 1.150486e+00 9.295033e-01 5.278941e-01 2.571719e-01 4.795608e-02 2.394578e-01 4.829210e-01 1.071277e+00 7.101462e-01 1.049175e+00 1.627393e+00 6.796271e-01 7.744492e-01 5.778908e-01 6.828867e-01 7.105806e-01 6.828867e-01 5.778908e-01 7.744492e-01 6.796271e-01 1.627393e+00 1.049175e+00 7.101462e-01 1.071277e+00 4.829210e-01 2.394578e-01 4.795608e-02 2.571719e-01 5.278941e-01 9.295033e-01 1.150486e+00 
1.187793e+00 1.072058e+00 8.911228e-01 5.974517e-01 3.960181e-01 2.395998e-01 3.535007e-01 3.152463e-01 1.073643e+00 5.654180e-01 5.293722e-01 1.623687e+00 7.604533e-01 6.588271e-01 7.034694e-01 9.230596e-01 1.059761e+00 9.230596e-01 7.034694e-01 6.588271e-01 7.604533e-01 1.623687e+00 5.293722e-01 5.654180e-01 1.073643e+00 3.152463e-01 3.535007e-01 2.395998e-01 3.960181e-01 5.974517e-01 8.911228e-01 1.072058e+00 
1.030263e+00 9.431696e-01 8.095228e-01 6.228795e-01 4.679225e-01 4.175185e-01 3.564821e-01 7.555778e-01 2.838307e-01 5.271591e-01 1.000841e-01 1.182623e+00 1.056025e+00 3.740996e-01 6.083197e-01 1.025005e+00 1.244634e+00 1.025005e+00 6.083197e-01 3.740996e-01 1.056025e+00 1.182623e+00 1.000841e-01 5.271591e-01 2.838307e-01 7.555778e-01 3.564821e-01 4.175185e-01 4.679225e-01 6.228795e-01 8.095228e-01 9.431696e-01 
8.671263e-01 8.057285e-01 7.209486e-01 6.047042e-01 5.065725e-01 4.762328e-01 4.380034e-01 7.178221e-01 7.627353e-01 2.894656e-01 2.886593e-01 7.456120e-01 1.163989e+00 9.180208e-01 7.950053e-01 9.020754e-01 9.330258e-01 9.020754e-01 7.950053e-01 9.180208e-01 1.163989e+00 7.456120e-01 2.886593e-01 2.894656e-01 7.627353e-01 7.178221e-01 4.380034e-01 4.762328e-01 5.065725e-01 6.047042e-01 7.209486e-01 8.057285e-01 
7.063057e-01 6.694305e-01 6.261071e-01 5.688284e-01 5.275545e-01 5.310826e-01 5.622910e-01 6.866401e-01 1.094810e+00 9.155643e-01 4.289327e-01 6.605658e-01 1.690996e+00 1.369908e+00 6.990459e-01 8.457889e-01 7.738973e-01 8.457889e-01 6.990459e-01 1.369908e+00 1.690996e+00 6.605658e-01 4.289327e-01 9.155643e-01 1.094810e+00 6.866401e-01 5.622910e-01 5.310826e-01 5.275545e-01 5.688284e-01 6.261071e-01 6.694305e-01 
5.613506e-01 5.394360e-01 5.218391e-01 4.973161e-01 4.855414e-01 5.098857e-01 5.555874e-01 6.659520e-01 9.366703e-01 1.304832e+00 1.467538e+00 1.369081e+00 6.505683e-01 2.387510e+00 2.176993e+00 8.004720e-01 1.939081e-02 8.004720e-01 2.176993e+00 2.387510e+00 6.505683e-01 1.369081e+00 1.467538e+00 1.304832e+00 9.366703e-01 6.659520e-01 5.555874e-01 5.098857e-01 4.855414e-01 4.973161e-01 5.218391e-01 5.394360e-01 
4.416314e-01 4.318791e-01 4.318373e-01 4.333073e-01 4.432627e-01 4.852539e-01 5.398830e-01 6.606395e-01 8.207425e-01 1.198789e+00 1.497446e+00 2.259488e+00 2.666161e+00 1.685008e+00 1.413160e+00 2.116854e+00 1.859381e+00 2.116854e+00 1.413160e+00 1.685008e+00 2.666161e+00 2.259488e+00 1.497446e+00 1.198789e+00 8.207425e-01 6.606395e-01 5.398830e-01 4.852539e-01 4.432627e-01 4.333073e-01 4.318373e-01 4.318791e-01 
3.317535e-01 3.280175e-01 3.368711e-01 3.501297e-01 3.696291e-01 4.154096e-01 4.699879e-01 5.776675e-01 7.056923e-01 9.317133e-01 1.168793e+00 1.423950e+00 2.161742e+00 2.896189e+00 2.803771e+00 1.543225e+00 1.106168e+00 1.543225e+00 2.803771e+00 2.896189e+00 2.161742e+00 1.423950e+00 1.168793e+00 9.317133e-01 7.056923e-01 5.776675e-01 4.699879e-01 4.154096e-01 3.696291e-01 3.501297e-01 3.368711e-01 3.280175e-01 
2.482520e-01 2.498915e-01 2.641457e-01 2.855790e-01 3.081891e-01 3.497464e-01 3.935892e-01 4.733641e-01 5.660895e-01 6.854759e-01 8.053770e-01 7.753374e-01 8.763973e-01 9.310992e-01 1.079880e+00 1.150729e+00 1.080393e+00 1.150729e+00 1.079880e+00 9.310992e-01 8.763973e-01 7.753374e-01 8.053770e-01 6.854759e-01 5.660895e-01 4.733641e-01 3.935892e-01 3.497464e-01 3.081891e-01 2.855790e-01 2.641457e-01 2.498915e-01 
1.682180e-01 1.738184e-01 1.944359e-01 2.221425e-01 2.490327e-01 2.854424e-01 3.242331e-01 3.804119e-01 4.569480e-01 5.204646e-01 6.008974e-01 5.366868e-01 4.583681e-01 1.581596e-01 4.246473e-01 6.238474e-01 7.009038e-01 6.238474e-01 4.246473e-01 1.581596e-01 4.583681e-01 5.366868e-01 6.008974e-01 5.204646e-01 4.569480e-01 3.804119e-01 3.242331e-01 2.854424e-01 2.490327e-01 2.221425e-01 1.944359e-01 1.738184e-01 
1.085666e-01 1.187999e-01 1.442783e-01 1.744136e-01 1.965745e-01 2.162239e-01 2.269358e-01 2.384417e-01 2.693066e-01 2.962608e-01 3.523454e-01 3.733832e-01 3.515055e-01 3.555730e-01 3.890569e-01 6.615422e-01 8.171012e-01 6.615422e-01 3.890569e-01 3.555730e-01 3.515055e-01 3.733832e-01 3.523454e-01 2.962608e-01 2.693066e-01 2.384417e-01 2.269358e-01 2.162239e-01 1.965745e-01 1.744136e-01 1.442783e-01 1.187999e-01 
5.031875e-02 7.207158e-02 1.109844e-01 1.484047e-01 1.733897e-01 1.849150e-01 1.778607e-01 1.507807e-01 1.438423e-01 1.977225e-01 3.166424e-01 4.811236e-01 5.871707e-01 6.974445e-01 6.803772e-01 5.370447e-01 4.132062e-01 5.370447e-01 6.803772e-01 6.974445e-01 5.871707e-01 4.811236e-01 3.166424e-01 1.977225e-01 1.438423e-01 1.507807e-01 1.778607e-01 1.849150e-01 1.733897e-01 1.484047e-01 1.109844e-01 7.207158e-02 
