# vtk DataFile Version 2.0
Comment goes here
ASCII

DATASET STRUCTURED_POINTS
FIELD FieldData 1
TIME 1 1 double
0.26000000
DIMENSIONS    32   32   1

ORIGIN    0.000   0.000   0.000
SPACING   0.03125 0.03125   1.000

POINT_DATA   1024
SCALARS uMag double
LOOKUP_TABLE default

3.560405e-15 5.873333e-02 1.137005e-01 1.762815e-01 2.272058e-01 2.880113e-01 3.303743e-01 3.806255e-01 4.108671e-01 4.527953e-01 4.828778e-01 5.475521e-01 6.127187e-01 7.204631e-01 7.473981e-01 6.422825e-01 9.586832e-15 6.422825e-01 7.473981e-01 7.204631e-01 6.127187e-01 5.475521e-01 4.828778e-01 4.527953e-01 4.108671e-01 3.806255e-01 3.303743e-01 2.880113e-01 2.272058e-01 1.762815e-01 1.137005e-01 5.873333e-02 
5.873333e-02 8.246297e-02 1.292469e-01 1.889391e-01 2.383973e-01 3.009654e-01 3.426608e-01 3.954170e-01 4.233719e-01 4.636846e-01 4.842971e-01 5.363289e-01 5.913682e-01 6.837337e-01 7.174596e-01 7.109670e-01 6.422825e-01 7.109670e-01 7.174596e-01 6.837337e-01 5.913682e-01 5.363289e-01 4.842971e-01 4.636846e-01 4.233719e-01 3.954170e-01 3.426608e-01 3.009654e-01 2.383973e-01 1.889391e-01 1.292469e-01 8.246297e-02 
1.194687e-01 1.291857e-01 1.656929e-01 2.138379e-01 2.601830e-01 3.173755e-01 3.571055e-01 4.027067e-01 4.244516e-01 4.480289e-01 4.537569e-01 4.857894e-01 5.287873e-01 5.942251e-01 6.241268e-01 8.538890e-01 1.209666e+00 8.538890e-01 6.241268e-01 5.942251e-01 5.287873e-01 4.857894e-01 4.537569e-01 4.480289e-01 4.244516e-01 4.027067e-01 3.571055e-01 3.173755e-01 2.601830e-01 2.138379e-01 1.656929e-01 1.291857e-01 
1.760117e-01 1.804106e-01 2.123395e-01 2.551134e-01 2.990374e-01 3.585808e-01 3.980985e-01 4.472788e-01 4.630881e-01 4.752514e-01 4.418200e-01 4.125526e-01 3.843687e-01 3.556612e-01 3.696327e-01 1.005829e+00 1.571597e+00 1.005829e+00 3.696327e-01 3.556612e-01 3.843687e-01 4.125526e-01 4.418200e-01 4.752514e-01 4.630881e-01 4.472788e-01 3.980985e-01 3.585808e-01 2.990374e-01 2.551134e-01 2.123395e-01 1.804106e-01 
2.368402e-01 2.354173e-01 2.699261e-01 3.077780e-01 3.555000e-01 4.168630e-01 4.602869e-01 5.055504e-01 5.052110e-01 4.779474e-01 4.029953e-01 3.151801e-01 1.673442e-01 1.501245e-01 2.275559e-01 1.061343e+00 1.527027e+00 1.061343e+00 2.275559e-01 1.501245e-01 1.673442e-01 3.151801e-01 4.029953e-01 4.779474e-01 5.052110e-01 5.055504e-01 4.602869e-01 4.168630e-01 3.555000e-01 3.077780e-01 2.699261e-01 2.354173e-01 
2.870519e-01 2.845438e-01 3.255875e-01 3.695199e-01 4.253264e-01 5.030890e-01 5.573092e-01 6.178047e-01 6.275983e-01 6.305796e-01 5.357136e-01 4.130655e-01 1.538045e-01 6.478051e-02 4.449634e-01 1.099409e+00 1.297229e+00 1.099409e+00 4.449634e-01 6.478051e-02 1.538045e-01 4.130655e-01 5.357136e-01 6.305796e-01 6.275983e-01 6.178047e-01 5.573092e-01 5.030890e-01 4.253264e-01 3.695199e-01 3.255875e-01 2.845438e-01 
3.369222e-01 3.314231e-01 3.934264e-01 4.490379e-01 5.313486e-01 6.388929e-01 7.216038e-01 8.012897e-01 8.133161e-01 7.814633e-01 7.706605e-01 7.616640e-01 5.089960e-01 2.929908e-01 6.584711e-01 8.392277e-01 7.730858e-01 8.392277e-01 6.584711e-01 2.929908e-01 5.089960e-01 7.616640e-01 7.706605e-01 7.814633e-01 8.133161e-01 8.012897e-01 7.216038e-01 6.388929e-01 5.313486e-01 4.490379e-01 3.934264e-01 3.314231e-01 
3.610800e-01 3.619274e-01 4.566578e-01 5.426993e-01 6.599358e-01 8.120936e-01 9.139694e-01 1.019195e+00 1.220209e+00 1.446286e+00 1.389330e+00 1.130699e+00 8.274081e-01 6.631272e-01 7.521800e-01 7.363990e-01 7.268450e-01 7.363990e-01 7.521800e-01 6.631272e-01 8.274081e-01 1.130699e+00 1.389330e+00 1.446286e+00 1.220209e+00 1.019195e+00 9.139694e-01 8.120936e-01 6.599358e-01 5.426993e-01 4.566578e-01 3.619274e-01 
3.649089e-01 3.742184e-01 5.319680e-01 6.533273e-01 8.341555e-01 1.061904e+00 1.279537e+00 1.669032e+00 1.869060e+00 1.459679e+00 1.310442e+00 1.486489e+00 1.322499e+00 1.051401e+00 8.923189e-01 8.176227e-01 8.773251e-01 8.176227e-01 8.923189e-01 1.051401e+00 1.322499e+00 1.486489e+00 1.310442e+00 1.459679e+00 1.869060e+00 1.669032e+00 1.279537e+00 1.061904e+00 8.341555e-01 6.533273e-01 5.319680e-01 3.742184e-01 
3.103783e-01 3.507333e-01 5.966730e-01 7.875637e-01 1.079654e+00 1.494310e+00 1.826468e+00 1.816835e+00 1.087110e+00 9.156190e-01 9.502633e-01 1.029303e+00 1.070179e+00 1.081030e+00 1.188920e+00 1.130207e+00 1.178834e+00 1.130207e+00 1.188920e+00 1.081030e+00 1.070179e+00 1.029303e+00 9.502633e-01 9.156190e-01 1.087110e+00 1.816835e+00 1.826468e+00 1.494310e+00 1.079654e+00 7.875637e-01 5.966730e-01 3.507333e-01 
2.099568e-01 2.998506e-01 6.657267e-01 9.196148e-01 1.413397e+00 1.900304e+00 1.866668e+00 9.824944e-01 1.502999e-01 4.350927e-01 7.156582e-01 1.218011e+00 1.348941e+00 1.585194e+00 1.576787e+00 1.184632e+00 9.349098e-01 1.184632e+00 1.576787e+00 1.585194e+00 1.348941e+00 1.218011e+00 7.156582e-01 4.350927e-01 1.502999e-01 9.824944e-01 1.866668e+00 1.900304e+00 1.413397e+00 9.196148e-01 6.657267e-01 2.998506e-01 
3.282668e-02 2.223229e-01 6.503223e-01 9.849727e-01 1.737519e+00 2.483749e+00 1.675965e+00 3.687494e-01 8.817222e-01 1.391409e+00 1.936944e+00 2.238389e+00 1.975051e+00 1.645550e+00 1.116136e+00 4.998464e-01 8.453307e-02 4.998464e-01 1.116136e+00 1.645550e+00 1.975051e+00 2.238389e+00 1.936944e+00 1.391409e+00 8.817222e-01 3.687494e-01 1.675965e+00 2.483749e+00 1.737519e+00 9.849727e-01 6.503223e-01 2.223229e-01 
1.637763e-01 1.881341e-01 5.522041e-01 9.703562e-01 2.296447e+00 2.946241e+00 1.019064e+00 1.735052e+00 1.791157e+00 1.755136e+00 1.468447e+00 1.236230e+00 9.166893e-01 7.175770e-01 4.803579e-01 1.769053e-01 6.320175e-02 1.769053e-01 4.803579e-01 7.175770e-01 9.166893e-01 1.236230e+00 1.468447e+00 1.755136e+00 1.791157e+00 1.735052e+00 1.019064e+00 2.946241e+00 2.296447e+00 9.703562e-01 5.522041e-01 1.881341e-01 
3.375497e-01 2.129016e-01 2.773884e-01 1.109494e+00 3.137335e+00 2.047940e+00 2.556883e+00 2.095031e+00 1.536107e+00 7.267813e-01 7.976312e-01 1.071363e+00 9.607664e-01 7.370138e-01 4.405397e-01 1.299813e-01 4.638116e-03 1.299813e-01 4.405397e-01 7.370138e-01 9.607664e-01 1.071363e+00 7.976312e-01 7.267813e-01 1.536107e+00 2.095031e+00 2.556883e+00 2.047940e+00 3.137335e+00 1.109494e+00 2.773884e-01 2.129016e-01 
4.341113e-01 1.075163e-01 1.195092e-01 1.304731e+00 3.164030e+00 1.988497e+00 2.961846e+00 1.501009e+00 1.311665e+00 1.069539e+00 1.186689e+00 1.029755e+00 7.907226e-01 5.546813e-01 3.528207e-01 1.633821e-01 8.470675e-02 1.633821e-01 3.528207e-01 5.546813e-01 7.907226e-01 1.029755e+00 1.186689e+00 1.069539e+00 1.311665e+00 1.501009e+00 2.961846e+00 1.988497e+00 3.164030e+00 1.304731e+00 1.195092e-01 1.075163e-01 
3.276674e-01 2.260846e-01 2.274249e-01 1.019026e+00 1.949815e+00 2.966462e+00 1.354024e+00 1.538320e+00 1.614214e+00 1.706862e+00 1.480791e+00 1.163305e+00 8.098825e-01 5.209728e-01 2.795980e-01 1.258947e-01 7.436945e-02 1.258947e-01 2.795980e-01 5.209728e-01 8.098825e-01 1.163305e+00 1.480791e+00 1.706862e+00 1.614214e+00 1.538320e+00 1.354024e+00 2.966462e+00 1.949815e+00 1.019026e+00 2.274249e-01 2.260846e-01 
9.943022e-15 3.276674e-01 1.265087e-01 7.286000e-01 1.832771e+00 2.473985e+00 3.888829e-01 1.459572e+00 1.709705e+00 2.036942e+00 1.798585e+00 1.395531e+00 9.164808e-01 5.334858e-01 2.371131e-01 7.436945e-02 1.334677e-14 7.436945e-02 2.371131e-01 5.334858e-01 9.164808e-01 1.395531e+00 1.798585e+00 2.036942e+00 1.709705e+00 1.459572e+00 3.888829e-01 2.473985e+00 1.832771e+00 7.286000e-01 1.265087e-01 3.276674e-01 
3.276674e-01 2.260846e-01 2.274249e-01 1.019026e+00 1.949815e+00 2.966462e+00 1.354024e+00 1.538320e+00 1.614214e+00 1.706862e+00 1.480791e+00 1.163305e+00 8.098825e-01 5.209728e-01 2.795980e-01 1.258947e-01 7.436945e-02 1.258947e-01 2.795980e-01 5.209728e-01 8.098825e-01 1.163305e+00 1.480791e+00 1.706862e+00 1.614214e+00 1.538320e+00 1.354024e+00 2.966462e+00 1.949815e+00 1.019026e+00 2.274249e-01 2.260846e-01 
4.341113e-01 1.075163e-01 1.195092e-01 1.304731e+00 3.164030e+00 1.988497e+00 2.961846e+00 1.501009e+00 1.311665e+00 1.069539e+00 1.186689e+00 1.029755e+00 7.907226e-01 5.546813e-01 3.528207e-01 1.633821e-01 8.470675e-02 1.633821e-01 3.528207e-01 5.546813e-01 7.907226e-01 1.029755e+00 1.186689e+00 1.069539e+00 1.311665e+00 1.501009e+00 2.961846e+00 1.988497e+00 3.164030e+00 1.304731e+00 1.195092e-01 1.075163e-01 
3.375497e-01 2.129016e-01 2.773884e-01 1.109494e+00 3.137335e+00 2.047940e+00 2.556883e+00 2.095031e+00 1.536107e+00 7.267813e-01 7.976312e-01 1.071363e+00 9.607664e-01 7.370138e-01 4.405397e-01 1.299813e-01 4.638116e-03 1.299813e-01 4.405397e-01 7.370138e-01 9.607664e-01 1.071363e+00 7.976312e-01 7.267813e-01 1.536107e+00 2.095031e+00 2.556883e+00 2.047940e+00 3.137335e+00 1.109494e+00 2.773884e-01 2.129016e-01 
1.637763e-01 1.881341e-01 5.522041e-01 9.703562e-01 2.296447e+00 2.946241e+00 1.019064e+00 1.735052e+00 1.791157e+00 1.755136e+00 1.468447e+00 1.236230e+00 9.166893e-01 7.175770e-01 4.803579e-01 1.769053e-01 6.320175e-02 1.769053e-01 4.803579e-01 7.175770e-01 9.166893e-01 1.236230e+00 1.468447e+00 1.755136e+00 1.791157e+00 1.735052e+00 1.019064e+00 2.946241e+00 2.296447e+00 9.703562e-01 5.522041e-01 1.881341e-01 
3.282668e-02 2.223229e-01 6.503223e-01 9.849727e-01 1.737519e+00 2.483749e+00 1.675965e+00 3.687494e-01 8.817222e-01 1.391409e+00 1.936944e+00 2.238389e+00 1.975051e+00 1.645550e+00 1.116136e+00 4.998464e-01 8.453307e-02 4.998464e-01 1.116136e+00 1.645550e+00 1.975051e+00 2.238389e+00 1.936944e+00 1.391409e+00 8.817222e-01 3.687494e-01 1.675965e+00 2.483749e+00 1.737519e+00 9.849727e-01 6.503223e-01 2.223229e-01 
2.099568e-01 2.998506e-01 6.657267e-01 9.196148e-01 1.413397e+00 1.900304e+00 1.866668e+00 9.824944e-01 1.502999e-01 4.350927e-01 7.156582e-01 1.218011e+00 1.348941e+00 1.585194e+00 1.576787e+00 1.184632e+00 9.349098e-01 1.184632e+00 1.576787e+00 1.585194e+00 1.348941e+00 1.218011e+00 7.156582e-01 4.350927e-01 1.502999e-01 9.824944e-01 1.866668e+00 1.900304e+00 1.413397e+00 9.196148e-01 6.657267e-01 2.998506e-01 
3.103783e-01 3.507333e-01 5.966730e-01 7.875637e-01 1.079654e+00 1.494310e+00 1.826468e+00 1.816835e+00 1.087110e+00 9.156190e-01 9.502633e-01 1.029303e+00 1.070179e+00 1.081030e+00 1.188920e+00 1.130207e+00 1.178834e+00 1.130207e+00 1.188920e+00 1.081030e+00 1.070179e+00 1.029303e+00 9.502633e-01 9.156190e-01 1.087110e+00 1.816835e+00 1.826468e+00 1.494310e+00 1.079654e+00 7.875637e-01 5.966730e-01 3.507333e-01 
3.649089e-01 3.742184e-01 5.319680e-01 6.533273e-01 8.341555e-01 1.061904e+00 1.279537e+00 1.669032e+00 1.869060e+00 1.459679e+00 1.310442e+00 1.486489e+00 1.322499e+00 1.051401e+00 8.923189e-01 8.176227e-01 8.773251e-01 8.176227e-01 8.923189e-01 1.051401e+00 1.322499e+00 1.486489e+00 1.310442e+00 1.459679e+00 1.869060e+00 1.669032e+00 1.279537e+00 1.061904e+00 8.341555e-01 6.533273e-01 5.319680e-01 3.742184e-01 
3.610800e-01 3.619274e-01 4.566578e-01 5.426993e-01 6.599358e-01 8.120936e-01 9.139694e-01 1.019195e+00 1.220209e+00 1.446286e+00 1.389330e+00 1.130699e+00 8.274081e-01 6.631272e-01 7.521800e-01 7.363990e-01 7.268450e-01 7.363990e-01 7.521800e-01 6.631272e-01 8.274081e-01 1.130699e+00 1.389330e+00 1.446286e+00 1.220209e+00 1.019195e+00 9.139694e-01 8.120936e-01 6.599358e-01 5.426993e-01 4.566578e-01 3.619274e-01 
3.369222e-01 3.314231e-01 3.934264e-01 4.490379e-01 5.313486e-01 6.388929e-01 7.216038e-01 8.012897e-01 8.133161e-01 7.814633e-01 7.706605e-01 7.616640e-01 5.089960e-01 2.929908e-01 6.584711e-01 8.392277e-01 7.730858e-01 8.392277e-01 6.584711e-01 2.929908e-01 5.089960e-01 7.616640e-01 7.706605e-01 7.814633e-01 8.133161e-01 8.012897e-01 7.216038e-01 6.388929e-01 5.313486e-01 4.490379e-01 3.934264e-01 3.314231e-01 
2.870519e-01 2.845438e-01 3.255875e-01 3.695199e-01 4.253264e-01 5.030890e-01 5.573092e-01 6.178047e-01 6.275983e-01 6.305796e-01 5.357136e-01 4.130655e-01 1.538045e-01 6.478051e-02 4.449634e-01 1.099409e+00 1.297229e+00 1.099409e+00 4.449634e-01 6.478051e-02 1.538045e-01 4.130655e-01 5.357136e-01 6.305796e-01 6.275983e-01 6.178047e-01 5.573092e-01 5.030890e-01 4.253264e-01 3.695199e-01 3.255875e-01 2.845438e-01 
2.368402e-01 2.354173e-01 2.699261e-01 3.077780e-01 3.555000e-01 4.168630e-01 4.602869e-01 5.055504e-01 5.052110e-01 4.779474e-01 4.029953e-01 3.151801e-01 1.673442e-01 1.501245e-01 2.275559e-01 1.061343e+00 1.527027e+00 1.061343e+00 2.275559e-01 1.501245e-01 1.673442e-01 3.151801e-01 4.029953e-01 4.779474e-01 5.052110e-01 5.055504e-01 4.602869e-01 4.168630e-01 3.555000e-01 3.077780e-01 2.699261e-01 2.354173e-01 
1.760117e-01 1.804106e-01 2.123395e-01 2.551134e-01 2.990374e-01 3.585808e-01 3.980985e-01 4.472788e-01 4.630881e-01 4.752514e-01 4.418200e-01 4.125526e-01 3.843687e-01 3.556612e-01 3.696327e-01 1.005829e+00 1.571597e+00 1.005829e+00 3.696327e-01 3.556612e-01 3.843687e-01 4.125526e-01 4.418200e-01 4.752514e-01 4.630881e-01 4.472788e-01 3.980985e-01 3.585808e-01 2.990374e-01 2.551134e-01 2.123395e-01 1.804106e-01 
1.194687e-01 1.291857e-01 1.656929e-01 2.138379e-01 2.601830e-01 3.173755e-01 3.571055e-01 4.027067e-01 4.244516e-01 4.480289e-01 4.537569e-01 4.857894e-01 5.287873e-01 5.942251e-01 6.241268e-01 8.538890e-01 1.209666e+00 8.538890e-01 6.241268e-01 5.942251e-01 5.287873e-01 4.857894e-01 4.537569e-01 4.480289e-01 4.244516e-01 4.027067e-01 3.571055e-01 3.173755e-01 2.601830e-01 2.138379e-01 1.656929e-01 1.291857e-01 
5.873333e-02 8.246297e-02 1.292469e-01 1.889391e-01 2.383973e-01 3.009654e-01 3.426608e-01 3.954170e-01 4.233719e-01 4.636846e-01 4.842971e-01 5.363289e-01 5.913682e-01 6.837337e-01 7.174596e-01 7.109670e-01 6.422825e-01 7.109670e-01 7.174596e-01 6.837337e-01 5.913682e-01 5.363289e-01 4.842971e-01 4.636846e-01 4.233719e-01 3.954170e-01 3.426608e-01 3.009654e-01 2.383973e-01 1.889391e-01 1.292469e-01 8.246297e-02 
