# vtk DataFile Version 2.0
Comment goes here
ASCII

DATASET STRUCTURED_POINTS
FIELD FieldData 1
TIME 1 1 double
0.44000000
DIMENSIONS    32   32   1

ORIGIN    0.000   0.000   0.000
SPACING   0.03125 0.03125   1.000

POINT_DATA   1024
SCALARS uMag double
LOOKUP_TABLE default

2.234770e-15 8.701162e-02 1.789448e-01 2.759512e-01 3.840382e-01 5.000283e-01 6.273132e-01 7.646160e-01 9.108651e-01 1.068591e+00 1.222539e+00 1.365859e+00 1.443598e+00 1.431112e+00 1.234151e+00 7.868046e-01 6.705206e-15 7.868046e-01 1.234151e+00 1.431112e+00 1.443598e+00 1.365859e+00 1.222539e+00 1.068591e+00 9.108651e-01 7.646160e-01 6.273132e-01 5.000283e-01 3.840382e-01 2.759512e-01 1.789448e-01 8.701162e-02 
8.701162e-02 1.231634e-01 1.987527e-01 2.883000e-01 3.926288e-01 5.040660e-01 6.274357e-01 7.570787e-01 8.927845e-01 1.032785e+00 1.164695e+00 1.282132e+00 1.345247e+00 1.335837e+00 1.191434e+00 9.473174e-01 7.868046e-01 9.473174e-01 1.191434e+00 1.335837e+00 1.345247e+00 1.282132e+00 1.164695e+00 1.032785e+00 8.927845e-01 7.570787e-01 6.274357e-01 5.040660e-01 3.926288e-01 2.883000e-01 1.987527e-01 1.231634e-01 
1.692797e-01 1.923230e-01 2.490488e-01 3.290598e-01 4.281934e-01 5.376759e-01 6.593052e-01 7.841279e-01 9.083208e-01 1.023153e+00 1.114616e+00 1.176773e+00 1.173213e+00 1.135056e+00 1.109287e+00 1.263827e+00 1.437537e+00 1.263827e+00 1.109287e+00 1.135056e+00 1.173213e+00 1.176773e+00 1.114616e+00 1.023153e+00 9.083208e-01 7.841279e-01 6.593052e-01 5.376759e-01 4.281934e-01 3.290598e-01 2.490488e-01 1.923230e-01 
2.471370e-01 2.659412e-01 3.134572e-01 3.861059e-01 4.820909e-01 5.871778e-01 7.055281e-01 8.186239e-01 9.202838e-01 9.895021e-01 1.008666e+00 9.702333e-01 8.866440e-01 8.658879e-01 1.079877e+00 1.563487e+00 1.847983e+00 1.563487e+00 1.079877e+00 8.658879e-01 8.866440e-01 9.702333e-01 1.008666e+00 9.895021e-01 9.202838e-01 8.186239e-01 7.055281e-01 5.871778e-01 4.820909e-01 3.861059e-01 3.134572e-01 2.659412e-01 
3.103136e-01 3.307583e-01 3.753602e-01 4.494264e-01 5.466959e-01 6.543247e-01 7.756064e-01 8.865755e-01 9.804634e-01 1.026273e+00 1.017864e+00 9.400334e-01 7.738923e-01 7.619434e-01 1.171955e+00 1.729798e+00 1.958559e+00 1.729798e+00 1.171955e+00 7.619434e-01 7.738923e-01 9.400334e-01 1.017864e+00 1.026273e+00 9.804634e-01 8.865755e-01 7.756064e-01 6.543247e-01 5.466959e-01 4.494264e-01 3.753602e-01 3.307583e-01 
3.587153e-01 3.843366e-01 4.383677e-01 5.251793e-01 6.383118e-01 7.578545e-01 8.948494e-01 1.017013e+00 1.115868e+00 1.156242e+00 1.099994e+00 9.407146e-01 8.063883e-01 9.845487e-01 1.459758e+00 1.798955e+00 1.896571e+00 1.798955e+00 1.459758e+00 9.845487e-01 8.063883e-01 9.407146e-01 1.099994e+00 1.156242e+00 1.115868e+00 1.017013e+00 8.948494e-01 7.578545e-01 6.383118e-01 5.251793e-01 4.383677e-01 3.843366e-01 
3.791870e-01 4.183292e-01 4.883356e-01 6.014830e-01 7.352330e-01 8.746105e-01 1.033919e+00 1.176327e+00 1.301156e+00 1.376934e+00 1.452081e+00 1.365272e+00 1.072803e+00 1.228129e+00 1.668140e+00 1.794401e+00 1.860767e+00 1.794401e+00 1.668140e+00 1.228129e+00 1.072803e+00 1.365272e+00 1.452081e+00 1.376934e+00 1.301156e+00 1.176327e+00 1.033919e+00 8.746105e-01 7.352330e-01 6.014830e-01 4.883356e-01 4.183292e-01 
3.614870e-01 4.218717e-01 5.295201e-01 6.886421e-01 8.689456e-01 1.043748e+00 1.254834e+00 1.476285e+00 1.743929e+00 1.913859e+00 1.545840e+00 9.520335e-01 1.304508e+00 1.823981e+00 1.930350e+00 1.758178e+00 1.835520e+00 1.758178e+00 1.930350e+00 1.823981e+00 1.304508e+00 9.520335e-01 1.545840e+00 1.913859e+00 1.743929e+00 1.476285e+00 1.254834e+00 1.043748e+00 8.689456e-01 6.886421e-01 5.295201e-01 4.218717e-01 
2.986094e-01 3.997575e-01 5.584132e-01 7.885799e-01 1.017539e+00 1.244329e+00 1.550128e+00 1.912968e+00 2.058944e+00 1.249210e+00 7.724524e-01 1.626181e+00 1.625460e+00 1.605980e+00 1.559940e+00 1.511851e+00 1.690082e+00 1.511851e+00 1.559940e+00 1.605980e+00 1.625460e+00 1.626181e+00 7.724524e-01 1.249210e+00 2.058944e+00 1.912968e+00 1.550128e+00 1.244329e+00 1.017539e+00 7.885799e-01 5.584132e-01 3.997575e-01 
1.663018e-01 3.288252e-01 5.605057e-01 8.821264e-01 1.200697e+00 1.499445e+00 1.929908e+00 2.157868e+00 1.385897e+00 3.529824e-01 1.323799e+00 1.450003e+00 1.379768e+00 1.612158e+00 1.752514e+00 1.714336e+00 1.751566e+00 1.714336e+00 1.752514e+00 1.612158e+00 1.379768e+00 1.450003e+00 1.323799e+00 3.529824e-01 1.385897e+00 2.157868e+00 1.929908e+00 1.499445e+00 1.200697e+00 8.821264e-01 5.605057e-01 3.288252e-01 
9.907318e-03 2.628453e-01 5.514801e-01 9.959183e-01 1.379139e+00 1.778443e+00 2.238350e+00 2.120910e+00 5.239797e-01 1.406881e+00 1.746856e+00 2.194992e+00 2.436032e+00 2.387951e+00 1.884680e+00 1.196277e+00 7.859509e-01 1.196277e+00 1.884680e+00 2.387951e+00 2.436032e+00 2.194992e+00 1.746856e+00 1.406881e+00 5.239797e-01 2.120910e+00 2.238350e+00 1.778443e+00 1.379139e+00 9.959183e-01 5.514801e-01 2.628453e-01 
2.570515e-01 2.363678e-01 4.808751e-01 1.005573e+00 1.450566e+00 1.901228e+00 2.834319e+00 1.929281e+00 1.574152e+00 2.186388e+00 2.399734e+00 2.362096e+00 1.795526e+00 1.272249e+00 7.566595e-01 3.368837e-01 1.466781e-01 3.368837e-01 7.566595e-01 1.272249e+00 1.795526e+00 2.362096e+00 2.399734e+00 2.186388e+00 1.574152e+00 1.929281e+00 2.834319e+00 1.901228e+00 1.450566e+00 1.005573e+00 4.808751e-01 2.363678e-01 
4.706715e-01 3.221946e-01 3.798194e-01 9.725568e-01 1.363149e+00 2.379305e+00 3.270107e+00 1.320796e+00 2.741681e+00 2.028680e+00 1.544946e+00 9.609500e-01 8.947087e-01 8.946236e-01 7.214767e-01 4.349639e-01 3.213433e-01 4.349639e-01 7.214767e-01 8.946236e-01 8.947087e-01 9.609500e-01 1.544946e+00 2.028680e+00 2.741681e+00 1.320796e+00 3.270107e+00 2.379305e+00 1.363149e+00 9.725568e-01 3.798194e-01 3.221946e-01 
6.592708e-01 4.375661e-01 3.320394e-01 6.743542e-01 1.157204e+00 2.855643e+00 3.115083e+00 2.469312e+00 2.323897e+00 1.188384e+00 9.206655e-01 9.354848e-01 1.035356e+00 8.278631e-01 5.663213e-01 2.870504e-01 1.948828e-01 2.870504e-01 5.663213e-01 8.278631e-01 1.035356e+00 9.354848e-01 9.206655e-01 1.188384e+00 2.323897e+00 2.469312e+00 3.115083e+00 2.855643e+00 1.157204e+00 6.743542e-01 3.320394e-01 4.375661e-01 
6.386542e-01 5.116134e-01 3.317220e-01 5.681144e-02 8.968693e-01 2.894853e+00 2.363585e+00 2.624262e+00 1.351269e+00 1.171700e+00 1.081669e+00 9.597665e-01 8.405022e-01 6.646444e-01 4.960244e-01 3.223610e-01 2.650613e-01 3.223610e-01 4.960244e-01 6.646444e-01 8.405022e-01 9.597665e-01 1.081669e+00 1.171700e+00 1.351269e+00 2.624262e+00 2.363585e+00 2.894853e+00 8.968693e-01 5.681144e-02 3.317220e-01 5.116134e-01 
4.402351e-01 5.136855e-01 5.789071e-01 6.791828e-01 7.921100e-01 1.914309e+00 2.555176e+00 1.924053e+00 1.342024e+00 1.557372e+00 1.379032e+00 1.295632e+00 9.991188e-01 7.132298e-01 4.236352e-01 2.178838e-01 1.399647e-01 2.178838e-01 4.236352e-01 7.132298e-01 9.991188e-01 1.295632e+00 1.379032e+00 1.557372e+00 1.342024e+00 1.924053e+00 2.555176e+00 1.914309e+00 7.921100e-01 6.791828e-01 5.789071e-01 5.136855e-01 
1.917774e-14 4.402351e-01 8.047434e-01 1.024630e+00 1.199014e+00 2.685116e-01 2.628687e+00 1.804550e+00 1.623762e+00 1.849190e+00 1.649207e+00 1.512376e+00 1.066335e+00 6.924290e-01 3.458842e-01 1.399647e-01 7.016050e-15 1.399647e-01 3.458842e-01 6.924290e-01 1.066335e+00 1.512376e+00 1.649207e+00 1.849190e+00 1.623762e+00 1.804550e+00 2.628687e+00 2.685116e-01 1.199014e+00 1.024630e+00 8.047434e-01 4.402351e-01 
4.402351e-01 5.136855e-01 5.789071e-01 6.791828e-01 7.921100e-01 1.914309e+00 2.555176e+00 1.924053e+00 1.342024e+00 1.557372e+00 1.379032e+00 1.295632e+00 9.991188e-01 7.132298e-01 4.236352e-01 2.178838e-01 1.399647e-01 2.178838e-01 4.236352e-01 7.132298e-01 9.991188e-01 1.295632e+00 1.379032e+00 1.557372e+00 1.342024e+00 1.924053e+00 2.555176e+00 1.914309e+00 7.921100e-01 6.791828e-01 5.789071e-01 5.136855e-01 
6.386542e-01 5.116134e-01 3.317220e-01 5.681144e-02 8.968693e-01 2.894853e+00 2.363585e+00 2.624262e+00 1.351269e+00 1.171700e+00 1.081669e+00 9.597665e-01 8.405022e-01 6.646444e-01 4.960244e-01 3.223610e-01 2.650613e-01 3.223610e-01 4.960244e-01 6.646444e-01 8.405022e-01 9.597665e-01 1.081669e+00 1.171700e+00 1.351269e+00 2.624262e+00 2.363585e+00 2.894853e+00 8.968693e-01 5.681144e-02 3.317220e-01 5.116134e-01 
6.592708e-01 4.375661e-01 3.320394e-01 6.743542e-01 1.157204e+00 2.855643e+00 3.115083e+00 2.469312e+00 2.323897e+00 1.188384e+00 9.206655e-01 9.354848e-01 1.035356e+00 8.278631e-01 5.663213e-01 2.870504e-01 1.948828e-01 2.870504e-01 5.663213e-01 8.278631e-01 1.035356e+00 9.354848e-01 9.206655e-01 1.188384e+00 2.323897e+00 2.469312e+00 3.115083e+00 2.855643e+00 1.157204e+00 6.743542e-01 3.320394e-01 4.375661e-01 
4.706715e-01 3.221946e-01 3.798194e-01 9.725568e-01 1.363149e+00 2.379305e+00 3.270107e+00 1.320796e+00 2.741681e+00 2.028680e+00 1.544946e+00 9.609500e-01 8.947087e-01 8.946236e-01 7.214767e-01 4.349639e-01 3.213433e-01 4.349639e-01 7.214767e-01 8.946236e-01 8.947087e-01 9.609500e-01 1.544946e+00 2.028680e+00 2.741681e+00 1.320796e+00 3.270107e+00 2.379305e+00 1.363149e+00 9.725568e-01 3.798194e-01 3.221946e-01 
2.570515e-01 2.363678e-01 4.808751e-01 1.005573e+00 1.450566e+00 1.901228e+00 2.834319e+00 1.929281e+00 1.574152e+00 2.186388e+00 2.399734e+00 2.362096e+00 1.795526e+00 1.272249e+00 7.566595e-01 3.368837e-01 1.466781e-01 3.368837e-01 7.566595e-01 1.272249e+00 1.795526e+00 2.362096e+00 2.399734e+00 2.186388e+00 1.574152e+00 1.929281e+00 2.834319e+00 1.901228e+00 1.450566e+00 1.005573e+00 4.808751e-01 2.363678e-01 
9.907318e-03 2.628453e-01 5.514801e-01 9.959183e-01 1.379139e+00 1.778443e+00 2.238350e+00 2.120910e+00 5.239797e-01 1.406881e+00 1.746856e+00 2.194992e+00 2.436032e+00 2.387951e+00 1.884680e+00 1.196277e+00 7.859509e-01 1.196277e+00 1.884680e+00 2.387951e+00 2.436032e+00 2.194992e+00 1.746856e+00 1.406881e+00 5.239797e-01 2.120910e+00 2.238350e+00 1.778443e+00 1.379139e+00 9.959183e-01 5.514801e-01 2.628453e-01 
1.663018e-01 3.288252e-01 5.605057e-01 8.821264e-01 1.200697e+00 1.499445e+00 1.929908e+00 2.157868e+00 1.385897e+00 3.529824e-01 1.323799e+00 1.450003e+00 1.379768e+00 1.612158e+00 1.752514e+00 1.714336e+00 1.751566e+00 1.714336e+00 1.752514e+00 1.612158e+00 1.379768e+00 1.450003e+00 1.323799e+00 3.529824e-01 1.385897e+00 2.157868e+00 1.929908e+00 1.499445e+00 1.200697e+00 8.821264e-01 5.605057e-01 3.288252e-01 
2.986094e-01 3.997575e-01 5.584132e-01 7.885799e-01 1.017539e+00 1.244329e+00 1.550128e+00 1.912968e+00 2.058944e+00 1.249210e+00 7.724524e-01 1.626181e+00 1.625460e+00 1.605980e+00 1.559940e+00 1.511851e+00 1.690082e+00 1.511851e+00 1.559940e+00 1.605980e+00 1.625460e+00 1.626181e+00 7.724524e-01 1.249210e+00 2.058944e+00 1.912968e+00 1.550128e+00 1.244329e+00 1.017539e+00 7.885799e-01 5.584132e-01 3.997575e-01 
3.614870e-01 4.218717e-01 5.295201e-01 6.886421e-01 8.689456e-01 1.043748e+00 1.254834e+00 1.476285e+00 1.743929e+00 1.913859e+00 1.545840e+00 9.520335e-01 1.304508e+00 1.823981e+00 1.930350e+00 1.758178e+00 1.835520e+00 1.758178e+00 1.930350e+00 1.823981e+00 1.304508e+00 9.520335e-01 1.545840e+00 1.913859e+00 1.743929e+00 1.476285e+00 1.254834e+00 1.043748e+00 8.689456e-01 6.886421e-01 5.295201e-01 4.218717e-01 
3.791870e-01 4.183292e-01 4.883356e-01 6.014830e-01 7.352330e-01 8.746105e-01 1.033919e+00 1.176327e+00 1.301156e+00 1.376934e+00 1.452081e+00 1.365272e+00 1.072803e+00 1.228129e+00 1.668140e+00 1.794401e+00 1.860767e+00 1.794401e+00 1.668140e+00 1.228129e+00 1.072803e+00 1.365272e+00 1.452081e+00 1.376934e+00 1.301156e+00 1.176327e+00 1.033919e+00 8.746105e-01 7.352330e-01 6.014830e-01 4.883356e-01 4.183292e-01 
3.587153e-01 3.843366e-01 4.383677e-01 5.251793e-01 6.383118e-01 7.578545e-01 8.948494e-01 1.017013e+00 1.115868e+00 1.156242e+00 1.099994e+00 9.407146e-01 8.063883e-01 9.845487e-01 1.459758e+00 1.798955e+00 1.896571e+00 1.798955e+00 1.459758e+00 9.845487e-01 8.063883e-01 9.407146e-01 1.099994e+00 1.156242e+00 1.115868e+00 1.017013e+00 8.948494e-01 7.578545e-01 6.383118e-01 5.251793e-01 4.383677e-01 3.843366e-01 
3.103136e-01 3.307583e-01 3.753602e-01 4.494264e-01 5.466959e-01 6.543247e-01 7.756064e-01 8.865755e-01 9.804634e-01 1.026273e+00 1.017864e+00 9.400334e-01 7.738923e-01 7.619434e-01 1.171955e+00 1.729798e+00 1.958559e+00 1.729798e+00 1.171955e+00 7.619434e-01 7.738923e-01 9.400334e-01 1.017864e+00 1.026273e+00 9.804634e-01 8.865755e-01 7.756064e-01 6.543247e-01 5.466959e-01 4.494264e-01 3.753602e-01 3.307583e-01 
2.471370e-01 2.659412e-01 3.134572e-01 3.861059e-01 4.820909e-01 5.871778e-01 7.055281e-01 8.186239e-01 9.202838e-01 9.895021e-01 1.008666e+00 9.702333e-01 8.866440e-01 8.658879e-01 1.079877e+00 1.563487e+00 1.847983e+00 1.563487e+00 1.079877e+00 8.658879e-01 8.866440e-01 9.702333e-01 1.008666e+00 9.895021e-01 9.202838e-01 8.186239e-01 7.055281e-01 5.871778e-01 4.820909e-01 3.861059e-01 3.134572e-01 2.659412e-01 
1.692797e-01 1.923230e-01 2.490488e-01 3.290598e-01 4.281934e-01 5.376759e-01 6.593052e-01 7.841279e-01 9.083208e-01 1.023153e+00 1.114616e+00 1.176773e+00 1.173213e+00 1.135056e+00 1.109287e+00 1.263827e+00 1.437537e+00 1.263827e+00 1.109287e+00 1.135056e+00 1.173213e+00 1.176773e+00 1.114616e+00 1.023153e+00 9.083208e-01 7.841279e-01 6.593052e-01 5.376759e-01 4.281934e-01 3.290598e-01 2.490488e-01 1.923230e-01 
8.701162e-02 1.231634e-01 1.987527e-01 2.883000e-01 3.926288e-01 5.040660e-01 6.274357e-01 7.570787e-01 8.927845e-01 1.032785e+00 1.164695e+00 1.282132e+00 1.345247e+00 1.335837e+00 1.191434e+00 9.473174e-01 7.868046e-01 9.473174e-01 1.191434e+00 1.335837e+00 1.345247e+00 1.282132e+00 1.164695e+00 1.032785e+00 8.927845e-01 7.570787e-01 6.274357e-01 5.040660e-01 3.926288e-01 2.883000e-01 1.987527e-01 1.231634e-01 
