# vtk DataFile Version 2.0
Comment goes here
ASCII

DATASET STRUCTURED_POINTS
FIELD FieldData 1
TIME 1 1 double
0.68000000
DIMENSIONS    32   32   1

ORIGIN    0.000   0.000   0.000
SPACING   0.03125 0.03125   1.000

POINT_DATA   1024
SCALARS uMag double
LOOKUP_TABLE default

2.060679e-15 7.739027e-02 1.432595e-01 1.975711e-01 2.195245e-01 2.193104e-01 1.661432e-01 8.116808e-02 7.136433e-02 2.443645e-01 4.701274e-01 6.603547e-01 8.356683e-01 8.714160e-01 7.775846e-01 4.729170e-01 4.190198e-14 4.729170e-01 7.775846e-01 8.714160e-01 8.356683e-01 6.603547e-01 4.701274e-01 2.443645e-01 7.136433e-02 8.116808e-02 1.661432e-01 2.193104e-01 2.195245e-01 1.975711e-01 1.432595e-01 7.739027e-02 
7.739027e-02 1.067611e-01 1.584273e-01 2.068887e-01 2.282957e-01 2.357196e-01 2.011333e-01 1.680686e-01 1.638822e-01 2.621514e-01 4.357991e-01 5.891063e-01 7.451562e-01 7.903530e-01 7.233208e-01 5.763482e-01 4.729170e-01 5.763482e-01 7.233208e-01 7.903530e-01 7.451562e-01 5.891063e-01 4.357991e-01 2.621514e-01 1.638822e-01 1.680686e-01 2.011333e-01 2.357196e-01 2.282957e-01 2.068887e-01 1.584273e-01 1.067611e-01 
1.583303e-01 1.737512e-01 2.143478e-01 2.589661e-01 2.901090e-01 3.197541e-01 3.280380e-01 3.496488e-01 3.543916e-01 3.826254e-01 3.905772e-01 3.853040e-01 3.910942e-01 4.121319e-01 5.913894e-01 7.712414e-01 8.509238e-01 7.712414e-01 5.913894e-01 4.121319e-01 3.910942e-01 3.853040e-01 3.905772e-01 3.826254e-01 3.543916e-01 3.496488e-01 3.280380e-01 3.197541e-01 2.901090e-01 2.589661e-01 2.143478e-01 1.737512e-01 
2.639501e-01 2.696583e-01 2.962316e-01 3.296854e-01 3.620409e-01 4.061816e-01 4.440439e-01 5.072741e-01 5.497193e-01 6.087134e-01 5.874926e-01 5.420411e-01 3.694091e-01 1.504240e-01 3.211804e-01 8.677317e-01 1.140212e+00 8.677317e-01 3.211804e-01 1.504240e-01 3.694091e-01 5.420411e-01 5.874926e-01 6.087134e-01 5.497193e-01 5.072741e-01 4.440439e-01 4.061816e-01 3.620409e-01 3.296854e-01 2.962316e-01 2.696583e-01 
3.777021e-01 3.781174e-01 3.995624e-01 4.284306e-01 4.662535e-01 5.236945e-01 5.889326e-01 6.881209e-01 7.876005e-01 9.199555e-01 9.885546e-01 1.045203e+00 9.350657e-01 5.933887e-01 3.288760e-01 8.615903e-01 1.151602e+00 8.615903e-01 3.288760e-01 5.933887e-01 9.350657e-01 1.045203e+00 9.885546e-01 9.199555e-01 7.876005e-01 6.881209e-01 5.889326e-01 5.236945e-01 4.662535e-01 4.284306e-01 3.995624e-01 3.781174e-01 
5.358080e-01 5.272234e-01 5.331788e-01 5.439481e-01 5.725604e-01 6.290256e-01 7.084482e-01 8.279154e-01 9.761630e-01 1.166894e+00 1.288016e+00 1.406125e+00 1.178642e+00 1.173265e+00 1.150460e+00 1.246653e+00 1.233088e+00 1.246653e+00 1.150460e+00 1.173265e+00 1.178642e+00 1.406125e+00 1.288016e+00 1.166894e+00 9.761630e-01 8.279154e-01 7.084482e-01 6.290256e-01 5.725604e-01 5.439481e-01 5.331788e-01 5.272234e-01 
7.002724e-01 6.819158e-01 6.717848e-01 6.651801e-01 6.824923e-01 7.367153e-01 8.188391e-01 9.448283e-01 1.133334e+00 1.353846e+00 1.587843e+00 1.912775e+00 2.323950e+00 2.945337e+00 2.890599e+00 1.750409e+00 8.696492e-01 1.750409e+00 2.890599e+00 2.945337e+00 2.323950e+00 1.912775e+00 1.587843e+00 1.353846e+00 1.133334e+00 9.448283e-01 8.188391e-01 7.367153e-01 6.824923e-01 6.651801e-01 6.717848e-01 6.819158e-01 
9.182162e-01 8.816033e-01 8.368180e-01 7.859759e-01 7.703916e-01 8.056974e-01 8.881674e-01 1.028828e+00 1.330598e+00 1.566964e+00 2.047691e+00 2.515430e+00 2.874228e+00 2.252286e+00 1.826557e+00 2.137364e+00 2.234708e+00 2.137364e+00 1.826557e+00 2.252286e+00 2.874228e+00 2.515430e+00 2.047691e+00 1.566964e+00 1.330598e+00 1.028828e+00 8.881674e-01 8.056974e-01 7.703916e-01 7.859759e-01 8.368180e-01 8.816033e-01 
1.119552e+00 1.063001e+00 9.772330e-01 8.785101e-01 8.247976e-01 8.522887e-01 9.168187e-01 1.113456e+00 1.431257e+00 1.377940e+00 1.469603e+00 1.053364e+00 1.218695e+00 2.208492e+00 2.031657e+00 1.286094e+00 1.124593e+00 1.286094e+00 2.031657e+00 2.208492e+00 1.218695e+00 1.053364e+00 1.469603e+00 1.377940e+00 1.431257e+00 1.113456e+00 9.168187e-01 8.522887e-01 8.247976e-01 8.785101e-01 9.772330e-01 1.063001e+00 
1.357673e+00 1.273248e+00 1.130530e+00 9.434432e-01 8.193894e-01 7.969605e-01 8.123416e-01 1.095062e+00 1.024565e+00 3.313893e-01 3.054819e-01 1.481206e+00 1.936726e+00 1.281820e+00 8.831476e-01 1.077635e+00 1.370865e+00 1.077635e+00 8.831476e-01 1.281820e+00 1.936726e+00 1.481206e+00 3.054819e-01 3.313893e-01 1.024565e+00 1.095062e+00 8.123416e-01 7.969605e-01 8.193894e-01 9.434432e-01 1.130530e+00 1.273248e+00 
1.518014e+00 1.410330e+00 1.211543e+00 9.361133e-01 7.525337e-01 7.006849e-01 7.355421e-01 1.055197e+00 6.792426e-02 6.910479e-01 7.423708e-01 1.498233e+00 1.205059e+00 8.215181e-01 9.947565e-01 1.168279e+00 1.414286e+00 1.168279e+00 9.947565e-01 8.215181e-01 1.205059e+00 1.498233e+00 7.423708e-01 6.910479e-01 6.792426e-02 1.055197e+00 7.355421e-01 7.006849e-01 7.525337e-01 9.361133e-01 1.211543e+00 1.410330e+00 
1.674134e+00 1.547614e+00 1.303946e+00 9.304664e-01 7.086477e-01 5.366013e-01 7.679517e-01 3.730893e-01 1.528541e+00 9.628292e-01 1.034879e+00 2.000984e+00 1.113395e+00 8.793854e-01 8.155739e-01 1.016554e+00 1.213987e+00 1.016554e+00 8.155739e-01 8.793854e-01 1.113395e+00 2.000984e+00 1.034879e+00 9.628292e-01 1.528541e+00 3.730893e-01 7.679517e-01 5.366013e-01 7.086477e-01 9.304664e-01 1.303946e+00 1.547614e+00 
1.672831e+00 1.542162e+00 1.265591e+00 8.407341e-01 5.765974e-01 4.701130e-01 6.291321e-01 1.180765e+00 1.640133e+00 5.593673e-01 1.537858e+00 1.780775e+00 6.950357e-01 8.149219e-01 7.002761e-01 8.633781e-01 9.447939e-01 8.633781e-01 7.002761e-01 8.149219e-01 6.950357e-01 1.780775e+00 1.537858e+00 5.593673e-01 1.640133e+00 1.180765e+00 6.291321e-01 4.701130e-01 5.765974e-01 8.407341e-01 1.265591e+00 1.542162e+00 
1.605778e+00 1.501545e+00 1.253854e+00 9.360096e-01 7.503212e-01 8.865755e-01 9.654242e-01 1.723330e+00 1.194894e+00 7.892756e-01 2.041797e+00 1.372390e+00 7.688414e-01 7.841346e-01 5.985411e-01 6.315858e-01 6.111946e-01 6.315858e-01 5.985411e-01 7.841346e-01 7.688414e-01 1.372390e+00 2.041797e+00 7.892756e-01 1.194894e+00 1.723330e+00 9.654242e-01 8.865755e-01 7.503212e-01 9.360096e-01 1.253854e+00 1.501545e+00 
1.298100e+00 1.269306e+00 1.213976e+00 1.204711e+00 1.274461e+00 1.485489e+00 1.610527e+00 1.830339e+00 1.127295e+00 1.422133e+00 1.882107e+00 8.550491e-01 6.949552e-01 5.444065e-01 4.414162e-01 3.946539e-01 3.333878e-01 3.946539e-01 4.414162e-01 5.444065e-01 6.949552e-01 8.550491e-01 1.882107e+00 1.422133e+00 1.127295e+00 1.830339e+00 1.610527e+00 1.485489e+00 1.274461e+00 1.204711e+00 1.213976e+00 1.269306e+00 
7.978282e-01 9.792656e-01 1.322665e+00 1.623794e+00 1.771915e+00 1.788461e+00 1.705612e+00 1.446620e+00 1.061065e+00 1.595911e+00 1.273304e+00 4.061128e-01 4.862823e-01 3.278781e-01 3.222056e-01 2.168321e-01 1.406710e-01 2.168321e-01 3.222056e-01 3.278781e-01 4.862823e-01 4.061128e-01 1.273304e+00 1.595911e+00 1.061065e+00 1.446620e+00 1.705612e+00 1.788461e+00 1.771915e+00 1.623794e+00 1.322665e+00 9.792656e-01 
4.634673e-14 7.978282e-01 1.466554e+00 1.896008e+00 2.037875e+00 1.949979e+00 1.826826e+00 1.545034e+00 1.393457e+00 1.835152e+00 9.664482e-01 2.807222e-01 4.217422e-01 2.575106e-01 2.773397e-01 1.406710e-01 2.102488e-14 1.406710e-01 2.773397e-01 2.575106e-01 4.217422e-01 2.807222e-01 9.664482e-01 1.835152e+00 1.393457e+00 1.545034e+00 1.826826e+00 1.949979e+00 2.037875e+00 1.896008e+00 1.466554e+00 7.978282e-01 
7.978282e-01 9.792656e-01 1.322665e+00 1.623794e+00 1.771915e+00 1.788461e+00 1.705612e+00 1.446620e+00 1.061065e+00 1.595911e+00 1.273304e+00 4.061128e-01 4.862823e-01 3.278781e-01 3.222056e-01 2.168321e-01 1.406710e-01 2.168321e-01 3.222056e-01 3.278781e-01 4.862823e-01 4.061128e-01 1.273304e+00 1.595911e+00 1.061065e+00 1.446620e+00 1.705612e+00 1.788461e+00 1.771915e+00 1.623794e+00 1.322665e+00 9.792656e-01 
1.298100e+00 1.269306e+00 1.213976e+00 1.204711e+00 1.274461e+00 1.485489e+00 1.610527e+00 1.830339e+00 1.127295e+00 1.422133e+00 1.882107e+00 8.550491e-01 6.949552e-01 5.444065e-01 4.414162e-01 3.946539e-01 3.333878e-01 3.946539e-01 4.414162e-01 5.444065e-01 6.949552e-01 8.550491e-01 1.882107e+00 1.422133e+00 1.127295e+00 1.830339e+00 1.610527e+00 1.485489e+00 1.274461e+00 1.204711e+00 1.213976e+00 1.269306e+00 
1.605778e+00 1.501545e+00 1.253854e+00 9.360096e-01 7.503212e-01 8.865755e-01 9.654242e-01 1.723330e+00 1.194894e+00 7.892756e-01 2.041797e+00 1.372390e+00 7.688414e-01 7.841346e-01 5.985411e-01 6.315858e-01 6.111946e-01 6.315858e-01 5.985411e-01 7.841346e-01 7.688414e-01 1.372390e+00 2.041797e+00 7.892756e-01 1.194894e+00 1.723330e+00 9.654242e-01 8.865755e-01 7.503212e-01 9.360096e-01 1.253854e+00 1.501545e+00 
1.672831e+00 1.542162e+00 1.265591e+00 8.407341e-01 5.765974e-01 4.701130e-01 6.291321e-01 1.180765e+00 1.640133e+00 5.593673e-01 1.537858e+00 1.780775e+00 6.950357e-01 8.149219e-01 7.002761e-01 8.633781e-01 9.447939e-01 8.633781e-01 7.002761e-01 8.149219e-01 6.950357e-01 1.780775e+00 1.537858e+00 5.593673e-01 1.640133e+00 1.180765e+00 6.291321e-01 4.701130e-01 5.765974e-01 8.407341e-01 1.265591e+00 1.542162e+00 
1.674134e+00 1.547614e+00 1.303946e+00 9.304664e-01 7.086477e-01 5.366013e-01 7.679517e-01 3.730893e-01 1.528541e+00 9.628292e-01 1.034879e+00 2.000984e+00 1.113395e+00 8.793854e-01 8.155739e-01 1.016554e+00 1.213987e+00 1.016554e+00 8.155739e-01 8.793854e-01 1.113395e+00 2.000984e+00 1.034879e+00 9.628292e-01 1.528541e+00 3.730893e-01 7.679517e-01 5.366013e-01 7.086477e-01 9.304664e-01 1.303946e+00 1.547614e+00 
1.518014e+00 1.410330e+00 1.211543e+00 9.361133e-01 7.525337e-01 7.006849e-01 7.355421e-01 1.055197e+00 6.792426e-02 6.910479e-01 7.423708e-01 1.498233e+00 1.205059e+00 8.215181e-01 9.947565e-01 1.168279e+00 1.414286e+00 1.168279e+00 9.947565e-01 8.215181e-01 1.205059e+00 1.498233e+00 7.423708e-01 6.910479e-01 6.792426e-02 1.055197e+00 7.355421e-01 7.006849e-01 7.525337e-01 9.361133e-01 1.211543e+00 1.410330e+00 
1.357673e+00 1.273248e+00 1.130530e+00 9.434432e-01 8.193894e-01 7.969605e-01 8.123416e-01 1.095062e+00 1.024565e+00 3.313893e-01 3.054819e-01 1.481206e+00 1.936726e+00 1.281820e+00 8.831476e-01 1.077635e+00 1.370865e+00 1.077635e+00 8.831476e-01 1.281820e+00 1.936726e+00 1.481206e+00 3.054819e-01 3.313893e-01 1.024565e+00 1.095062e+00 8.123416e-01 7.969605e-01 8.193894e-01 9.434432e-01 1.130530e+00 1.273248e+00 
1.119552e+00 1.063001e+00 9.772330e-01 8.785101e-01 8.247976e-01 8.522887e-01 9.168187e-01 1.113456e+00 1.431257e+00 1.377940e+00 1.469603e+00 1.053364e+00 1.218695e+00 2.208492e+00 2.031657e+00 1.286094e+00 1.124593e+00 1.286094e+00 2.031657e+00 2.208492e+00 1.218695e+00 1.053364e+00 1.469603e+00 1.377940e+00 1.431257e+00 1.113456e+00 9.168187e-01 8.522887e-01 8.247976e-01 8.785101e-01 9.772330e-01 1.063001e+00 
9.182162e-01 8.816033e-01 8.368180e-01 7.859759e-01 7.703916e-01 8.056974e-01 8.881674e-01 1.028828e+00 1.330598e+00 1.566964e+00 2.047691e+00 2.515430e+00 2.874228e+00 2.252286e+00 1.826557e+00 2.137364e+00 2.234708e+00 2.137364e+00 1.826557e+00 2.252286e+00 2.874228e+00 2.515430e+00 2.047691e+00 1.566964e+00 1.330598e+00 1.028828e+00 8.881674e-01 8.056974e-01 7.703916e-01 7.859759e-01 8.368180e-01 8.816033e-01 
7.002724e-01 6.819158e-01 6.717848e-01 6.651801e-01 6.824923e-01 7.367153e-01 8.188391e-01 9.448283e-01 1.133334e+00 1.353846e+00 1.587843e+00 1.912775e+00 2.323950e+00 2.945337e+00 2.890599e+00 1.750409e+00 8.696492e-01 1.750409e+00 2.890599e+00 2.945337e+00 2.323950e+00 1.912775e+00 1.587843e+00 1.353846e+00 1.133334e+00 9.448283e-01 8.188391e-01 7.367153e-01 6.824923e-01 6.651801e-01 6.717848e-01 6.819158e-01 
5.358080e-01 5.272234e-01 5.331788e-01 5.439481e-01 5.725604e-01 6.290256e-01 7.084482e-01 8.279154e-01 9.761630e-01 1.166894e+00 1.288016e+00 1.406125e+00 1.178642e+00 1.173265e+00 1.150460e+00 1.246653e+00 1.233088e+00 1.246653e+00 1.150460e+00 1.173265e+00 1.178642e+00 1.406125e+00 1.288016e+00 1.166894e+00 9.761630e-01 8.279154e-01 7.084482e-01 6.290256e-01 5.725604e-01 5.439481e-01 5.331788e-01 5.272234e-01 
3.777021e-01 3.781174e-01 3.995624e-01 4.284306e-01 4.662535e-01 5.236945e-01 5.889326e-01 6.881209e-01 7.876005e-01 9.199555e-01 9.885546e-01 1.045203e+00 9.350657e-01 5.933887e-01 3.288760e-01 8.615903e-01 1.151602e+00 8.615903e-01 3.288760e-01 5.933887e-01 9.350657e-01 1.045203e+00 9.885546e-01 9.199555e-01 7.876005e-01 6.881209e-01 5.889326e-01 5.236945e-01 4.662535e-01 4.284306e-01 3.995624e-01 3.781174e-01 
2.639501e-01 2.696583e-01 2.962316e-01 3.296854e-01 3.620409e-01 4.061816e-01 4.440439e-01 5.072741e-01 5.497193e-01 6.087134e-01 5.874926e-01 5.420411e-01 3.694091e-01 1.504240e-01 3.211804e-01 8.677317e-01 1.140212e+00 8.677317e-01 3.211804e-01 1.504240e-01 3.694091e-01 5.420411e-01 5.874926e-01 6.087134e-01 5.497193e-01 5.072741e-01 4.440439e-01 4.061816e-01 3.620409e-01 3.296854e-01 2.962316e-01 2.696583e-01 
1.583303e-01 1.737512e-01 2.143478e-01 2.589661e-01 2.901090e-01 3.197541e-01 3.280380e-01 3.496488e-01 3.543916e-01 3.826254e-01 3.905772e-01 3.853040e-01 3.910942e-01 4.121319e-01 5.913894e-01 7.712414e-01 8.509238e-01 7.712414e-01 5.913894e-01 4.121319e-01 3.910942e-01 3.853040e-01 3.905772e-01 3.826254e-01 3.543916e-01 3.496488e-01 3.280380e-01 3.197541e-01 2.901090e-01 2.589661e-01 2.143478e-01 1.737512e-01 
7.739027e-02 1.067611e-01 1.584273e-01 2.068887e-01 2.282957e-01 2.357196e-01 2.011333e-01 1.680686e-01 1.638822e-01 2.621514e-01 4.357991e-01 5.891063e-01 7.451562e-01 7.903530e-01 7.233208e-01 5.763482e-01 4.729170e-01 5.763482e-01 7.233208e-01 7.903530e-01 7.451562e-01 5.891063e-01 4.357991e-01 2.621514e-01 1.638822e-01 1.680686e-01 2.011333e-01 2.357196e-01 2.282957e-01 2.068887e-01 1.584273e-01 1.067611e-01 
