# vtk DataFile Version 2.0
Comment goes here
ASCII

DATASET STRUCTURED_POINTS
FIELD FieldData 1
TIME 1 1 double
0.46000000
DIMENSIONS    32   32   1

ORIGIN    0.000   0.000   0.000
SPACING   0.03125 0.03125   1.000

POINT_DATA   1024
SCALARS uMag double
LOOKUP_TABLE default

2.183613e-15 8.065342e-02 1.654386e-01 2.618484e-01 3.692155e-01 4.968795e-01 6.408334e-01 8.111811e-01 9.995638e-01 1.208823e+00 1.410092e+00 1.581504e+00 1.661775e+00 1.611369e+00 1.338090e+00 7.905414e-01 4.337960e-15 7.905414e-01 1.338090e+00 1.611369e+00 1.661775e+00 1.581504e+00 1.410092e+00 1.208823e+00 9.995638e-01 8.111811e-01 6.408334e-01 4.968795e-01 3.692155e-01 2.618484e-01 1.654386e-01 8.065342e-02 
8.065342e-02 1.144279e-01 1.860269e-01 2.769194e-01 3.822060e-01 5.078848e-01 6.499924e-01 8.158700e-01 9.962064e-01 1.191156e+00 1.370860e+00 1.514583e+00 1.566647e+00 1.496799e+00 1.276191e+00 9.614245e-01 7.905414e-01 9.614245e-01 1.276191e+00 1.496799e+00 1.566647e+00 1.514583e+00 1.370860e+00 1.191156e+00 9.962064e-01 8.158700e-01 6.499924e-01 5.078848e-01 3.822060e-01 2.769194e-01 1.860269e-01 1.144279e-01 
1.581298e-01 1.774208e-01 2.314814e-01 3.107639e-01 4.095994e-01 5.306607e-01 6.673455e-01 8.228564e-01 9.833634e-01 1.140822e+00 1.264388e+00 1.335605e+00 1.325552e+00 1.275854e+00 1.233247e+00 1.303688e+00 1.380892e+00 1.303688e+00 1.233247e+00 1.275854e+00 1.325552e+00 1.335605e+00 1.264388e+00 1.140822e+00 9.833634e-01 8.228564e-01 6.673455e-01 5.306607e-01 4.095994e-01 3.107639e-01 2.314814e-01 1.774208e-01 
2.232019e-01 2.379368e-01 2.857978e-01 3.589679e-01 4.554930e-01 5.737350e-01 7.069607e-01 8.520391e-01 9.918278e-01 1.110329e+00 1.171299e+00 1.165622e+00 1.080865e+00 1.045342e+00 1.279918e+00 1.627216e+00 1.769071e+00 1.627216e+00 1.279918e+00 1.045342e+00 1.080865e+00 1.165622e+00 1.171299e+00 1.110329e+00 9.918278e-01 8.520391e-01 7.069607e-01 5.737350e-01 4.554930e-01 3.589679e-01 2.857978e-01 2.379368e-01 
2.785929e-01 2.921908e-01 3.395358e-01 4.118881e-01 5.088848e-01 6.284381e-01 7.614940e-01 9.030708e-01 1.033919e+00 1.126806e+00 1.147304e+00 1.064751e+00 9.716412e-01 1.142613e+00 1.507829e+00 1.785481e+00 1.857573e+00 1.785481e+00 1.507829e+00 1.142613e+00 9.716412e-01 1.064751e+00 1.147304e+00 1.126806e+00 1.033919e+00 9.030708e-01 7.614940e-01 6.284381e-01 5.088848e-01 4.118881e-01 3.395358e-01 2.921908e-01 
3.060953e-01 3.224210e-01 3.806821e-01 4.636272e-01 5.734191e-01 7.033691e-01 8.464334e-01 9.954847e-01 1.135251e+00 1.239633e+00 1.271023e+00 1.218052e+00 1.030716e+00 1.168270e+00 1.740408e+00 2.023826e+00 2.073296e+00 2.023826e+00 1.740408e+00 1.168270e+00 1.030716e+00 1.218052e+00 1.271023e+00 1.239633e+00 1.135251e+00 9.954847e-01 8.464334e-01 7.033691e-01 5.734191e-01 4.636272e-01 3.806821e-01 3.224210e-01 
3.152294e-01 3.391292e-01 4.178861e-01 5.203925e-01 6.471007e-01 7.944425e-01 9.515185e-01 1.127277e+00 1.318237e+00 1.497943e+00 1.472905e+00 8.727621e-01 1.020772e+00 1.790745e+00 2.017439e+00 1.839229e+00 1.697469e+00 1.839229e+00 2.017439e+00 1.790745e+00 1.020772e+00 8.727621e-01 1.472905e+00 1.497943e+00 1.318237e+00 1.127277e+00 9.515185e-01 7.944425e-01 6.471007e-01 5.203925e-01 4.178861e-01 3.391292e-01 
2.727532e-01 3.128149e-01 4.313157e-01 5.684558e-01 7.311288e-01 9.074365e-01 1.098794e+00 1.332578e+00 1.604723e+00 1.593853e+00 7.437473e-01 9.871967e-01 1.554395e+00 1.439747e+00 1.632241e+00 1.834139e+00 1.788539e+00 1.834139e+00 1.632241e+00 1.439747e+00 1.554395e+00 9.871967e-01 7.437473e-01 1.593853e+00 1.604723e+00 1.332578e+00 1.098794e+00 9.074365e-01 7.311288e-01 5.684558e-01 4.313157e-01 3.128149e-01 
2.012097e-01 2.740500e-01 4.524282e-01 6.362205e-01 8.367130e-01 1.050450e+00 1.268882e+00 1.549062e+00 1.631145e+00 9.481650e-01 3.989061e-01 9.701092e-01 9.609262e-01 1.197495e+00 1.746057e+00 2.152602e+00 2.213361e+00 2.152602e+00 1.746057e+00 1.197495e+00 9.609262e-01 9.701092e-01 3.989061e-01 9.481650e-01 1.631145e+00 1.549062e+00 1.268882e+00 1.050450e+00 8.367130e-01 6.362205e-01 4.524282e-01 2.740500e-01 
5.100189e-02 2.001204e-01 4.436826e-01 6.775763e-01 9.398785e-01 1.185308e+00 1.440998e+00 1.642262e+00 1.449651e+00 5.830977e-01 6.482639e-01 8.340306e-01 1.600915e+00 2.351522e+00 2.313272e+00 1.789020e+00 1.382965e+00 1.789020e+00 2.313272e+00 2.351522e+00 1.600915e+00 8.340306e-01 6.482639e-01 5.830977e-01 1.449651e+00 1.642262e+00 1.440998e+00 1.185308e+00 9.398785e-01 6.775763e-01 4.436826e-01 2.001204e-01 
1.199873e-01 2.091341e-01 4.567621e-01 7.465115e-01 1.086318e+00 1.384506e+00 1.516441e+00 1.778384e+00 1.336479e+00 6.461759e-01 1.140429e+00 1.795641e+00 2.500347e+00 2.192575e+00 1.541670e+00 8.785210e-01 4.646927e-01 8.785210e-01 1.541670e+00 2.192575e+00 2.500347e+00 1.795641e+00 1.140429e+00 6.461759e-01 1.336479e+00 1.778384e+00 1.516441e+00 1.384506e+00 1.086318e+00 7.465115e-01 4.567621e-01 2.091341e-01 
3.608848e-01 3.407054e-01 4.324898e-01 7.245119e-01 1.154560e+00 1.405234e+00 1.709594e+00 2.096563e+00 1.329333e+00 1.260063e+00 1.483391e+00 1.705008e+00 1.645381e+00 1.294767e+00 9.362399e-01 5.190533e-01 3.211961e-01 5.190533e-01 9.362399e-01 1.294767e+00 1.645381e+00 1.705008e+00 1.483391e+00 1.260063e+00 1.329333e+00 2.096563e+00 1.709594e+00 1.405234e+00 1.154560e+00 7.245119e-01 4.324898e-01 3.407054e-01 
5.518423e-01 4.968989e-01 3.906902e-01 6.385961e-01 1.187673e+00 1.381138e+00 2.096733e+00 2.340817e+00 1.210502e+00 1.707434e+00 1.057298e+00 1.123071e+00 1.135932e+00 1.112195e+00 9.064511e-01 6.163010e-01 4.475327e-01 6.163010e-01 9.064511e-01 1.112195e+00 1.135932e+00 1.123071e+00 1.057298e+00 1.707434e+00 1.210502e+00 2.340817e+00 2.096733e+00 1.381138e+00 1.187673e+00 6.385961e-01 3.906902e-01 4.968989e-01 
7.187208e-01 6.442183e-01 3.790685e-01 4.391635e-01 9.198876e-01 1.431113e+00 2.392022e+00 2.095828e+00 1.736042e+00 1.416629e+00 9.449584e-01 1.123296e+00 1.075104e+00 1.012379e+00 7.585171e-01 5.282275e-01 4.038053e-01 5.282275e-01 7.585171e-01 1.012379e+00 1.075104e+00 1.123296e+00 9.449584e-01 1.416629e+00 1.736042e+00 2.095828e+00 2.392022e+00 1.431113e+00 9.198876e-01 4.391635e-01 3.790685e-01 6.442183e-01 
7.032443e-01 6.608269e-01 4.817450e-01 2.052518e-01 3.231512e-01 1.350337e+00 2.437201e+00 1.732257e+00 1.769240e+00 1.254963e+00 1.299824e+00 1.191821e+00 1.011515e+00 8.580495e-01 6.366523e-01 4.680140e-01 3.756099e-01 4.680140e-01 6.366523e-01 8.580495e-01 1.011515e+00 1.191821e+00 1.299824e+00 1.254963e+00 1.769240e+00 1.732257e+00 2.437201e+00 1.350337e+00 3.231512e-01 2.052518e-01 4.817450e-01 6.608269e-01 
5.253182e-01 6.228539e-01 7.883395e-01 8.603939e-01 8.862650e-01 1.336224e+00 1.502624e+00 1.892239e+00 1.565303e+00 1.341908e+00 1.621601e+00 1.386046e+00 1.194856e+00 8.620862e-01 5.635446e-01 3.213241e-01 2.148833e-01 3.213241e-01 5.635446e-01 8.620862e-01 1.194856e+00 1.386046e+00 1.621601e+00 1.341908e+00 1.565303e+00 1.892239e+00 1.502624e+00 1.336224e+00 8.862650e-01 8.603939e-01 7.883395e-01 6.228539e-01 
1.556734e-14 5.253182e-01 1.028220e+00 1.406541e+00 1.569659e+00 9.651135e-01 8.522872e-01 1.917711e+00 1.418289e+00 1.382687e+00 1.800038e+00 1.524228e+00 1.312113e+00 8.705305e-01 5.214537e-01 2.148833e-01 7.596316e-15 2.148833e-01 5.214537e-01 8.705305e-01 1.312113e+00 1.524228e+00 1.800038e+00 1.382687e+00 1.418289e+00 1.917711e+00 8.522872e-01 9.651135e-01 1.569659e+00 1.406541e+00 1.028220e+00 5.253182e-01 
5.253182e-01 6.228539e-01 7.883395e-01 8.603939e-01 8.862650e-01 1.336224e+00 1.502624e+00 1.892239e+00 1.565303e+00 1.341908e+00 1.621601e+00 1.386046e+00 1.194856e+00 8.620862e-01 5.635446e-01 3.213241e-01 2.148833e-01 3.213241e-01 5.635446e-01 8.620862e-01 1.194856e+00 1.386046e+00 1.621601e+00 1.341908e+00 1.565303e+00 1.892239e+00 1.502624e+00 1.336224e+00 8.862650e-01 8.603939e-01 7.883395e-01 6.228539e-01 
7.032443e-01 6.608269e-01 4.817450e-01 2.052518e-01 3.231512e-01 1.350337e+00 2.437201e+00 1.732257e+00 1.769240e+00 1.254963e+00 1.299824e+00 1.191821e+00 1.011515e+00 8.580495e-01 6.366523e-01 4.680140e-01 3.756099e-01 4.680140e-01 6.366523e-01 8.580495e-01 1.011515e+00 1.191821e+00 1.299824e+00 1.254963e+00 1.769240e+00 1.732257e+00 2.437201e+00 1.350337e+00 3.231512e-01 2.052518e-01 4.817450e-01 6.608269e-01 
7.187208e-01 6.442183e-01 3.790685e-01 4.391635e-01 9.198876e-01 1.431113e+00 2.392022e+00 2.095828e+00 1.736042e+00 1.416629e+00 9.449584e-01 1.123296e+00 1.075104e+00 1.012379e+00 7.585171e-01 5.282275e-01 4.038053e-01 5.282275e-01 7.585171e-01 1.012379e+00 1.075104e+00 1.123296e+00 9.449584e-01 1.416629e+00 1.736042e+00 2.095828e+00 2.392022e+00 1.431113e+00 9.198876e-01 4.391635e-01 3.790685e-01 6.442183e-01 
5.518423e-01 4.968989e-01 3.906902e-01 6.385961e-01 1.187673e+00 1.381138e+00 2.096733e+00 2.340817e+00 1.210502e+00 1.707434e+00 1.057298e+00 1.123071e+00 1.135932e+00 1.112195e+00 9.064511e-01 6.163010e-01 4.475327e-01 6.163010e-01 9.064511e-01 1.112195e+00 1.135932e+00 1.123071e+00 1.057298e+00 1.707434e+00 1.210502e+00 2.340817e+00 2.096733e+00 1.381138e+00 1.187673e+00 6.385961e-01 3.906902e-01 4.968989e-01 
3.608848e-01 3.407054e-01 4.324898e-01 7.245119e-01 1.154560e+00 1.405234e+00 1.709594e+00 2.096563e+00 1.329333e+00 1.260063e+00 1.483391e+00 1.705008e+00 1.645381e+00 1.294767e+00 9.362399e-01 5.190533e-01 3.211961e-01 5.190533e-01 9.362399e-01 1.294767e+00 1.645381e+00 1.705008e+00 1.483391e+00 1.260063e+00 1.329333e+00 2.096563e+00 1.709594e+00 1.405234e+00 1.154560e+00 7.245119e-01 4.324898e-01 3.407054e-01 
1.199873e-01 2.091341e-01 4.567621e-01 7.465115e-01 1.086318e+00 1.384506e+00 1.516441e+00 1.778384e+00 1.336479e+00 6.461759e-01 1.140429e+00 1.795641e+00 2.500347e+00 2.192575e+00 1.541670e+00 8.785210e-01 4.646927e-01 8.785210e-01 1.541670e+00 2.192575e+00 2.500347e+00 1.795641e+00 1.140429e+00 6.461759e-01 1.336479e+00 1.778384e+00 1.516441e+00 1.384506e+00 1.086318e+00 7.465115e-01 4.567621e-01 2.091341e-01 
5.100189e-02 2.001204e-01 4.436826e-01 6.775763e-01 9.398785e-01 1.185308e+00 1.440998e+00 1.642262e+00 1.449651e+00 5.830977e-01 6.482639e-01 8.340306e-01 1.600915e+00 2.351522e+00 2.313272e+00 1.789020e+00 1.382965e+00 1.789020e+00 2.313272e+00 2.351522e+00 1.600915e+00 8.340306e-01 6.482639e-01 5.830977e-01 1.449651e+00 1.642262e+00 1.440998e+00 1.185308e+00 9.398785e-01 6.775763e-01 4.436826e-01 2.001204e-01 
2.012097e-01 2.740500e-01 4.524282e-01 6.362205e-01 8.367130e-01 1.050450e+00 1.268882e+00 1.549062e+00 1.631145e+00 9.481650e-01 3.989061e-01 9.701092e-01 9.609262e-01 1.197495e+00 1.746057e+00 2.152602e+00 2.213361e+00 2.152602e+00 1.746057e+00 1.197495e+00 9.609262e-01 9.701092e-01 3.989061e-01 9.481650e-01 1.631145e+00 1.549062e+00 1.268882e+00 1.050450e+00 8.367130e-01 6.362205e-01 4.524282e-01 2.740500e-01 
2.727532e-01 3.128149e-01 4.313157e-01 5.684558e-01 7.311288e-01 9.074365e-01 1.098794e+00 1.332578e+00 1.604723e+00 1.593853e+00 7.437473e-01 9.871967e-01 1.554395e+00 1.439747e+00 1.632241e+00 1.834139e+00 1.788539e+00 1.834139e+00 1.632241e+00 1.439747e+00 1.554395e+00 9.871967e-01 7.437473e-01 1.593853e+00 1.604723e+00 1.332578e+00 1.098794e+00 9.074365e-01 7.311288e-01 5.684558e-01 4.313157e-01 3.128149e-01 
3.152294e-01 3.391292e-01 4.178861e-01 5.203925e-01 6.471007e-01 7.944425e-01 9.515185e-01 1.127277e+00 1.318237e+00 1.497943e+00 1.472905e+00 8.727621e-01 1.020772e+00 1.790745e+00 2.017439e+00 1.839229e+00 1.697469e+00 1.839229e+00 2.017439e+00 1.790745e+00 1.020772e+00 8.727621e-01 1.472905e+00 1.497943e+00 1.318237e+00 1.127277e+00 9.515185e-01 7.944425e-01 6.471007e-01 5.203925e-01 4.178861e-01 3.391292e-01 
3.060953e-01 3.224210e-01 3.806821e-01 4.636272e-01 5.734191e-01 7.033691e-01 8.464334e-01 9.954847e-01 1.135251e+00 1.239633e+00 1.271023e+00 1.218052e+00 1.030716e+00 1.168270e+00 1.740408e+00 2.023826e+00 2.073296e+00 2.023826e+00 1.740408e+00 1.168270e+00 1.030716e+00 1.218052e+00 1.271023e+00 1.239633e+00 1.135251e+00 9.954847e-01 8.464334e-01 7.033691e-01 5.734191e-01 4.636272e-01 3.806821e-01 3.224210e-01 
2.785929e-01 2.921908e-01 3.395358e-01 4.118881e-01 5.088848e-01 6.284381e-01 7.614940e-01 9.030708e-01 1.033919e+00 1.126806e+00 1.147304e+00 1.064751e+00 9.716412e-01 1.142613e+00 1.507829e+00 1.785481e+00 1.857573e+00 1.785481e+00 1.507829e+00 1.142613e+00 9.716412e-01 1.064751e+00 1.147304e+00 1.126806e+00 1.033919e+00 9.030708e-01 7.614940e-01 6.284381e-01 5.088848e-01 4.118881e-01 3.395358e-01 2.921908e-01 
2.232019e-01 2.379368e-01 2.857978e-01 3.589679e-01 4.554930e-01 5.737350e-01 7.069607e-01 8.520391e-01 9.918278e-01 1.110329e+00 1.171299e+00 1.165622e+00 1.080865e+00 1.045342e+00 1.279918e+00 1.627216e+00 1.769071e+00 1.627216e+00 1.279918e+00 1.045342e+00 1.080865e+00 1.165622e+00 1.171299e+00 1.110329e+00 9.918278e-01 8.520391e-01 7.069607e-01 5.737350e-01 4.554930e-01 3.589679e-01 2.857978e-01 2.379368e-01 
1.581298e-01 1.774208e-01 2.314814e-01 3.107639e-01 4.095994e-01 5.306607e-01 6.673455e-01 8.228564e-01 9.833634e-01 1.140822e+00 1.264388e+00 1.335605e+00 1.325552e+00 1.275854e+00 1.233247e+00 1.303688e+00 1.380892e+00 1.303688e+00 1.233247e+00 1.275854e+00 1.325552e+00 1.335605e+00 1.264388e+00 1.140822e+00 9.833634e-01 8.228564e-01 6.673455e-01 5.306607e-01 4.095994e-01 3.107639e-01 2.314814e-01 1.774208e-01 
8.065342e-02 1.144279e-01 1.860269e-01 2.769194e-01 3.822060e-01 5.078848e-01 6.499924e-01 8.158700e-01 9.962064e-01 1.191156e+00 1.370860e+00 1.514583e+00 1.566647e+00 1.496799e+00 1.276191e+00 9.614245e-01 7.905414e-01 9.614245e-01 1.276191e+00 1.496799e+00 1.566647e+00 1.514583e+00 1.370860e+00 1.191156e+00 9.962064e-01 8.158700e-01 6.499924e-01 5.078848e-01 3.822060e-01 2.769194e-01 1.860269e-01 1.144279e-01 
