# vtk DataFile Version 2.0
Comment goes here
ASCII

DATASET STRUCTURED_POINTS
FIELD FieldData 1
TIME 1 1 double
0.24000000
DIMENSIONS    32   32   1

ORIGIN    0.000   0.000   0.000
SPACING   0.03125 0.03125   1.000

POINT_DATA   1024
SCALARS uMag double
LOOKUP_TABLE default

2.764125e-15 5.708761e-02 1.131393e-01 1.621603e-01 2.078525e-01 2.409404e-01 2.661563e-01 2.731438e-01 2.632242e-01 2.244934e-01 1.578875e-01 4.102893e-02 1.089032e-01 3.175591e-01 4.644758e-01 5.335021e-01 2.083209e-14 5.335021e-01 4.644758e-01 3.175591e-01 1.089032e-01 4.102893e-02 1.578875e-01 2.244934e-01 2.632242e-01 2.731438e-01 2.661563e-01 2.409404e-01 2.078525e-01 1.621603e-01 1.131393e-01 5.708761e-02 
5.708761e-02 8.073035e-02 1.260249e-01 1.700318e-01 2.139465e-01 2.441728e-01 2.706003e-01 2.766351e-01 2.731411e-01 2.429000e-01 2.031755e-01 1.549867e-01 1.907847e-01 3.188433e-01 4.521870e-01 5.754813e-01 5.335021e-01 5.754813e-01 4.521870e-01 3.188433e-01 1.907847e-01 1.549867e-01 2.031755e-01 2.429000e-01 2.731411e-01 2.766351e-01 2.706003e-01 2.441728e-01 2.139465e-01 1.700318e-01 1.260249e-01 8.073035e-02 
1.151914e-01 1.301159e-01 1.617590e-01 1.998303e-01 2.393468e-01 2.703961e-01 2.973833e-01 3.109130e-01 3.137148e-01 3.029124e-01 2.874664e-01 2.888457e-01 3.435838e-01 4.284476e-01 5.085013e-01 6.415473e-01 1.053080e+00 6.415473e-01 5.085013e-01 4.284476e-01 3.435838e-01 2.888457e-01 2.874664e-01 3.029124e-01 3.137148e-01 3.109130e-01 2.973833e-01 2.703961e-01 2.393468e-01 1.998303e-01 1.617590e-01 1.301159e-01 
1.805046e-01 1.911969e-01 2.131597e-01 2.423752e-01 2.763641e-01 3.014228e-01 3.287292e-01 3.406769e-01 3.572709e-01 3.659393e-01 4.036417e-01 4.800370e-01 5.804934e-01 6.233159e-01 4.086976e-01 6.822191e-01 1.468954e+00 6.822191e-01 4.086976e-01 6.233159e-01 5.804934e-01 4.800370e-01 4.036417e-01 3.659393e-01 3.572709e-01 3.406769e-01 3.287292e-01 3.014228e-01 2.763641e-01 2.423752e-01 2.131597e-01 1.911969e-01 
2.495272e-01 2.593469e-01 2.732734e-01 2.969146e-01 3.242814e-01 3.474525e-01 3.737786e-01 3.930536e-01 4.267756e-01 4.617775e-01 5.105539e-01 5.951735e-01 7.289748e-01 8.744838e-01 5.333529e-01 6.958161e-01 1.328958e+00 6.958161e-01 5.333529e-01 8.744838e-01 7.289748e-01 5.951735e-01 5.105539e-01 4.617775e-01 4.267756e-01 3.930536e-01 3.737786e-01 3.474525e-01 3.242814e-01 2.969146e-01 2.732734e-01 2.593469e-01 
3.323572e-01 3.406841e-01 3.480743e-01 3.630178e-01 3.822207e-01 3.927953e-01 4.099608e-01 4.125466e-01 4.651048e-01 4.807276e-01 5.866209e-01 6.721001e-01 8.466158e-01 1.084229e+00 8.138442e-01 9.241152e-01 8.372424e-01 9.241152e-01 8.138442e-01 1.084229e+00 8.466158e-01 6.721001e-01 5.866209e-01 4.807276e-01 4.651048e-01 4.125466e-01 4.099608e-01 3.927953e-01 3.822207e-01 3.630178e-01 3.480743e-01 3.406841e-01 
4.247655e-01 4.320234e-01 4.272069e-01 4.290797e-01 4.324799e-01 4.280154e-01 4.315385e-01 4.539453e-01 5.312404e-01 5.885178e-01 5.748526e-01 5.362736e-01 7.381393e-01 9.390952e-01 1.055031e+00 7.984332e-01 2.121228e-01 7.984332e-01 1.055031e+00 9.390952e-01 7.381393e-01 5.362736e-01 5.748526e-01 5.885178e-01 5.312404e-01 4.539453e-01 4.315385e-01 4.280154e-01 4.324799e-01 4.290797e-01 4.272069e-01 4.320234e-01 
5.372439e-01 5.414022e-01 5.204016e-01 5.037557e-01 4.920832e-01 4.726795e-01 4.654462e-01 5.166556e-01 4.805166e-01 2.351278e-01 3.791088e-01 5.262208e-01 5.134218e-01 5.461096e-01 5.540583e-01 5.567134e-01 7.567354e-01 5.567134e-01 5.540583e-01 5.461096e-01 5.134218e-01 5.262208e-01 3.791088e-01 2.351278e-01 4.805166e-01 5.166556e-01 4.654462e-01 4.726795e-01 4.920832e-01 5.037557e-01 5.204016e-01 5.414022e-01 
6.727357e-01 6.694926e-01 6.167482e-01 5.673836e-01 5.366674e-01 4.824582e-01 4.509700e-01 3.733029e-01 2.675802e-01 3.750706e-01 2.175872e-01 3.082996e-01 4.399384e-01 5.506480e-01 4.777964e-01 5.577847e-01 6.490025e-01 5.577847e-01 4.777964e-01 5.506480e-01 4.399384e-01 3.082996e-01 2.175872e-01 3.750706e-01 2.675802e-01 3.733029e-01 4.509700e-01 4.824582e-01 5.366674e-01 5.673836e-01 6.167482e-01 6.694926e-01 
8.320761e-01 8.161343e-01 7.148062e-01 6.308324e-01 5.913483e-01 4.834016e-01 3.163086e-01 1.646510e-01 2.278130e-01 6.504272e-01 5.807840e-01 6.418391e-01 8.447088e-01 7.170287e-01 4.571789e-01 3.380028e-01 3.510639e-01 3.380028e-01 4.571789e-01 7.170287e-01 8.447088e-01 6.418391e-01 5.807840e-01 6.504272e-01 2.278130e-01 1.646510e-01 3.163086e-01 4.834016e-01 5.913483e-01 6.308324e-01 7.148062e-01 8.161343e-01 
1.019071e+00 9.800222e-01 8.024558e-01 6.782334e-01 6.039581e-01 2.514169e-01 1.625436e-01 1.402340e-01 6.005525e-01 6.536252e-01 5.804197e-01 6.359547e-01 1.071308e+00 1.275791e+00 1.154167e+00 9.139469e-01 8.175370e-01 9.139469e-01 1.154167e+00 1.275791e+00 1.071308e+00 6.359547e-01 5.804197e-01 6.536252e-01 6.005525e-01 1.402340e-01 1.625436e-01 2.514169e-01 6.039581e-01 6.782334e-01 8.024558e-01 9.800222e-01 
1.188394e+00 1.120231e+00 8.430626e-01 6.861328e-01 4.363251e-01 4.779002e-01 5.061015e-01 8.270372e-01 6.629170e-01 1.844971e-01 3.655292e-01 6.349392e-02 2.438115e-01 7.258900e-01 1.059853e+00 1.286328e+00 1.345764e+00 1.286328e+00 1.059853e+00 7.258900e-01 2.438115e-01 6.349392e-02 3.655292e-01 1.844971e-01 6.629170e-01 8.270372e-01 5.061015e-01 4.779002e-01 4.363251e-01 6.861328e-01 8.430626e-01 1.120231e+00 
1.307099e+00 1.205688e+00 8.437265e-01 6.778994e-01 1.862257e-01 1.167176e+00 8.130290e-01 1.226216e+00 5.832664e-01 1.349057e+00 1.247958e+00 9.709490e-01 9.788257e-01 9.002361e-01 8.775095e-01 1.039225e+00 1.133081e+00 1.039225e+00 8.775095e-01 9.002361e-01 9.788257e-01 9.709490e-01 1.247958e+00 1.349057e+00 5.832664e-01 1.226216e+00 8.130290e-01 1.167176e+00 1.862257e-01 6.778994e-01 8.437265e-01 1.205688e+00 
1.274139e+00 1.154188e+00 8.604645e-01 5.825490e-01 1.035582e+00 8.043657e-01 1.636994e+00 5.142118e-01 2.114129e+00 1.861988e+00 1.459077e+00 1.220921e+00 1.078403e+00 8.618654e-01 7.912772e-01 8.522806e-01 9.067193e-01 8.522806e-01 7.912772e-01 8.618654e-01 1.078403e+00 1.220921e+00 1.459077e+00 1.861988e+00 2.114129e+00 5.142118e-01 1.636994e+00 8.043657e-01 1.035582e+00 5.825490e-01 8.604645e-01 1.154188e+00 
1.077640e+00 9.555827e-01 9.875872e-01 7.539133e-01 1.456160e+00 7.016110e-01 1.260730e+00 1.952092e+00 1.954792e+00 1.115092e+00 8.204272e-01 8.883266e-01 8.844333e-01 7.806560e-01 6.513418e-01 5.349548e-01 4.907592e-01 5.349548e-01 6.513418e-01 7.806560e-01 8.844333e-01 8.883266e-01 8.204272e-01 1.115092e+00 1.954792e+00 1.952092e+00 1.260730e+00 7.016110e-01 1.456160e+00 7.539133e-01 9.875872e-01 9.555827e-01 
6.068768e-01 7.151695e-01 9.849587e-01 1.258372e+00 1.201201e+00 6.790669e-01 1.604270e+00 1.765653e+00 9.276545e-01 3.402088e-01 2.203927e-01 3.903786e-01 4.740180e-01 4.654129e-01 4.162160e-01 3.018877e-01 2.188520e-01 3.018877e-01 4.162160e-01 4.654129e-01 4.740180e-01 3.903786e-01 2.203927e-01 3.402088e-01 9.276545e-01 1.765653e+00 1.604270e+00 6.790669e-01 1.201201e+00 1.258372e+00 9.849587e-01 7.151695e-01 
1.454657e-14 6.068768e-01 9.405113e-01 1.427401e+00 8.108371e-01 4.522258e-01 1.603369e+00 1.286653e+00 2.397322e-01 1.112915e-01 1.391650e-01 7.415592e-02 2.762174e-01 3.651322e-01 3.517104e-01 2.188520e-01 8.305717e-15 2.188520e-01 3.517104e-01 3.651322e-01 2.762174e-01 7.415592e-02 1.391650e-01 1.112915e-01 2.397322e-01 1.286653e+00 1.603369e+00 4.522258e-01 8.108371e-01 1.427401e+00 9.405113e-01 6.068768e-01 
6.068768e-01 7.151695e-01 9.849587e-01 1.258372e+00 1.201201e+00 6.790669e-01 1.604270e+00 1.765653e+00 9.276545e-01 3.402088e-01 2.203927e-01 3.903786e-01 4.740180e-01 4.654129e-01 4.162160e-01 3.018877e-01 2.188520e-01 3.018877e-01 4.162160e-01 4.654129e-01 4.740180e-01 3.903786e-01 2.203927e-01 3.402088e-01 9.276545e-01 1.765653e+00 1.604270e+00 6.790669e-01 1.201201e+00 1.258372e+00 9.849587e-01 7.151695e-01 
1.077640e+00 9.555827e-01 9.875872e-01 7.539133e-01 1.456160e+00 7.016110e-01 1.260730e+00 1.952092e+00 1.954792e+00 1.115092e+00 8.204272e-01 8.883266e-01 8.844333e-01 7.806560e-01 6.513418e-01 5.349548e-01 4.907592e-01 5.349548e-01 6.513418e-01 7.806560e-01 8.844333e-01 8.883266e-01 8.204272e-01 1.115092e+00 1.954792e+00 1.952092e+00 1.260730e+00 7.016110e-01 1.456160e+00 7.539133e-01 9.875872e-01 9.555827e-01 
1.274139e+00 1.154188e+00 8.604645e-01 5.825490e-01 1.035582e+00 8.043657e-01 1.636994e+00 5.142118e-01 2.114129e+00 1.861988e+00 1.459077e+00 1.220921e+00 1.078403e+00 8.618654e-01 7.912772e-01 8.522806e-01 9.067193e-01 8.522806e-01 7.912772e-01 8.618654e-01 1.078403e+00 1.220921e+00 1.459077e+00 1.861988e+00 2.114129e+00 5.142118e-01 1.636994e+00 8.043657e-01 1.035582e+00 5.825490e-01 8.604645e-01 1.154188e+00 
1.307099e+00 1.205688e+00 8.437265e-01 6.778994e-01 1.862257e-01 1.167176e+00 8.130290e-01 1.226216e+00 5.832664e-01 1.349057e+00 1.247958e+00 9.709490e-01 9.788257e-01 9.002361e-01 8.775095e-01 1.039225e+00 1.133081e+00 1.039225e+00 8.775095e-01 9.002361e-01 9.788257e-01 9.709490e-01 1.247958e+00 1.349057e+00 5.832664e-01 1.226216e+00 8.130290e-01 1.167176e+00 1.862257e-01 6.778994e-01 8.437265e-01 1.205688e+00 
1.188394e+00 1.120231e+00 8.430626e-01 6.861328e-01 4.363251e-01 4.779002e-01 5.061015e-01 8.270372e-01 6.629170e-01 1.844971e-01 3.655292e-01 6.349392e-02 2.438115e-01 7.258900e-01 1.059853e+00 1.286328e+00 1.345764e+00 1.286328e+00 1.059853e+00 7.258900e-01 2.438115e-01 6.349392e-02 3.655292e-01 1.844971e-01 6.629170e-01 8.270372e-01 5.061015e-01 4.779002e-01 4.363251e-01 6.861328e-01 8.430626e-01 1.120231e+00 
1.019071e+00 9.800222e-01 8.024558e-01 6.782334e-01 6.039581e-01 2.514169e-01 1.625436e-01 1.402340e-01 6.005525e-01 6.536252e-01 5.804197e-01 6.359547e-01 1.071308e+00 1.275791e+00 1.154167e+00 9.139469e-01 8.175370e-01 9.139469e-01 1.154167e+00 1.275791e+00 1.071308e+00 6.359547e-01 5.804197e-01 6.536252e-01 6.005525e-01 1.402340e-01 1.625436e-01 2.514169e-01 6.039581e-01 6.782334e-01 8.024558e-01 9.800222e-01 
8.320761e-01 8.161343e-01 7.148062e-01 6.308324e-01 5.913483e-01 4.834016e-01 3.163086e-01 1.646510e-01 2.278130e-01 6.504272e-01 5.807840e-01 6.418391e-01 8.447088e-01 7.170287e-01 4.571789e-01 3.380028e-01 3.510639e-01 3.380028e-01 4.571789e-01 7.170287e-01 8.447088e-01 6.418391e-01 5.807840e-01 6.504272e-01 2.278130e-01 1.646510e-01 3.163086e-01 4.834016e-01 5.913483e-01 6.308324e-01 7.148062e-01 8.161343e-01 
6.727357e-01 6.694926e-01 6.167482e-01 5.673836e-01 5.366674e-01 4.824582e-01 4.509700e-01 3.733029e-01 2.675802e-01 3.750706e-01 2.175872e-01 3.082996e-01 4.399384e-01 5.506480e-01 4.777964e-01 5.577847e-01 6.490025e-01 5.577847e-01 4.777964e-01 5.506480e-01 4.399384e-01 3.082996e-01 2.175872e-01 3.750706e-01 2.675802e-01 3.733029e-01 4.509700e-01 4.824582e-01 5.366674e-01 5.673836e-01 6.167482e-01 6.694926e-01 
5.372439e-01 5.414022e-01 5.204016e-01 5.037557e-01 4.920832e-01 4.726795e-01 4.654462e-01 5.166556e-01 4.805166e-01 2.351278e-01 3.791088e-01 5.262208e-01 5.134218e-01 5.461096e-01 5.540583e-01 5.567134e-01 7.567354e-01 5.567134e-01 5.540583e-01 5.461096e-01 5.134218e-01 5.262208e-01 3.791088e-01 2.351278e-01 4.805166e-01 5.166556e-01 4.654462e-01 4.726795e-01 4.920832e-01 5.037557e-01 5.204016e-01 5.414022e-01 
4.247655e-01 4.320234e-01 4.272069e-01 4.290797e-01 4.324799e-01 4.280154e-01 4.315385e-01 4.539453e-01 5.312404e-01 5.885178e-01 5.748526e-01 5.362736e-01 7.381393e-01 9.390952e-01 1.055031e+00 7.984332e-01 2.121228e-01 7.984332e-01 1.055031e+00 9.390952e-01 7.381393e-01 5.362736e-01 5.748526e-01 5.885178e-01 5.312404e-01 4.539453e-01 4.315385e-01 4.280154e-01 4.324799e-01 4.290797e-01 4.272069e-01 4.320234e-01 
3.323572e-01 3.406841e-01 3.480743e-01 3.630178e-01 3.822207e-01 3.927953e-01 4.099608e-01 4.125466e-01 4.651048e-01 4.807276e-01 5.866209e-01 6.721001e-01 8.466158e-01 1.084229e+00 8.138442e-01 9.241152e-01 8.372424e-01 9.241152e-01 8.138442e-01 1.084229e+00 8.466158e-01 6.721001e-01 5.866209e-01 4.807276e-01 4.651048e-01 4.125466e-01 4.099608e-01 3.927953e-01 3.822207e-01 3.630178e-01 3.480743e-01 3.406841e-01 
2.495272e-01 2.593469e-01 2.732734e-01 2.969146e-01 3.242814e-01 3.474525e-01 3.737786e-01 3.930536e-01 4.267756e-01 4.617775e-01 5.105539e-01 5.951735e-01 7.289748e-01 8.744838e-01 5.333529e-01 6.958161e-01 1.328958e+00 6.958161e-01 5.333529e-01 8.744838e-01 7.289748e-01 5.951735e-01 5.105539e-01 4.617775e-01 4.267756e-01 3.930536e-01 3.737786e-01 3.474525e-01 3.242814e-01 2.969146e-01 2.732734e-01 2.593469e-01 
1.805046e-01 1.911969e-01 2.131597e-01 2.423752e-01 2.763641e-01 3.014228e-01 3.287292e-01 3.406769e-01 3.572709e-01 3.659393e-01 4.036417e-01 4.800370e-01 5.804934e-01 6.233159e-01 4.086976e-01 6.822191e-01 1.468954e+00 6.822191e-01 4.086976e-01 6.233159e-01 5.804934e-01 4.800370e-01 4.036417e-01 3.659393e-01 3.572709e-01 3.406769e-01 3.287292e-01 3.014228e-01 2.763641e-01 2.423752e-01 2.131597e-01 1.911969e-01 
1.151914e-01 1.301159e-01 1.617590e-01 1.998303e-01 2.393468e-01 2.703961e-01 2.973833e-01 3.109130e-01 3.137148e-01 3.029124e-01 2.874664e-01 2.888457e-01 3.435838e-01 4.284476e-01 5.085013e-01 6.415473e-01 1.053080e+00 6.415473e-01 5.085013e-01 4.284476e-01 3.435838e-01 2.888457e-01 2.874664e-01 3.029124e-01 3.137148e-01 3.109130e-01 2.973833e-01 2.703961e-01 2.393468e-01 1.998303e-01 1.617590e-01 1.301159e-01 
5.708761e-02 8.073035e-02 1.260249e-01 1.700318e-01 2.139465e-01 2.441728e-01 2.706003e-01 2.766351e-01 2.731411e-01 2.429000e-01 2.031755e-01 1.549867e-01 1.907847e-01 3.188433e-01 4.521870e-01 5.754813e-01 5.335021e-01 5.754813e-01 4.521870e-01 3.188433e-01 1.907847e-01 1.549867e-01 2.031755e-01 2.429000e-01 2.731411e-01 2.766351e-01 2.706003e-01 2.441728e-01 2.139465e-01 1.700318e-01 1.260249e-01 8.073035e-02 
