# vtk DataFile Version 2.0
Comment goes here
ASCII

DATASET STRUCTURED_POINTS
FIELD FieldData 1
TIME 1 1 double
0.90000000
DIMENSIONS    32   32   1

ORIGIN    0.000   0.000   0.000
SPACING   0.03125 0.03125   1.000

POINT_DATA   1024
SCALARS uMag double
LOOKUP_TABLE default

2.250092e-15 2.246613e-02 5.575006e-02 1.202301e-01 2.099809e-01 3.491943e-01 5.145256e-01 7.289317e-01 9.450918e-01 1.180849e+00 1.362519e+00 1.509414e+00 1.532576e+00 1.451166e+00 1.175293e+00 7.055020e-01 1.956604e-14 7.055020e-01 1.175293e+00 1.451166e+00 1.532576e+00 1.509414e+00 1.362519e+00 1.180849e+00 9.450918e-01 7.289317e-01 5.145256e-01 3.491943e-01 2.099809e-01 1.202301e-01 5.575006e-02 2.246613e-02 
2.246613e-02 3.226037e-02 6.536752e-02 1.277746e-01 2.170754e-01 3.497591e-01 5.050297e-01 7.016007e-01 8.948820e-01 1.103343e+00 1.258251e+00 1.385521e+00 1.403692e+00 1.346595e+00 1.150672e+00 8.814037e-01 7.055020e-01 8.814037e-01 1.150672e+00 1.346595e+00 1.403692e+00 1.385521e+00 1.258251e+00 1.103343e+00 8.948820e-01 7.016007e-01 5.050297e-01 3.497591e-01 2.170754e-01 1.277746e-01 6.536752e-02 3.226037e-02 
3.247858e-02 4.342751e-02 8.609672e-02 1.501258e-01 2.432773e-01 3.635252e-01 5.011259e-01 6.576910e-01 8.031922e-01 9.492213e-01 1.045487e+00 1.133146e+00 1.146503e+00 1.151961e+00 1.144475e+00 1.221243e+00 1.313840e+00 1.221243e+00 1.144475e+00 1.151961e+00 1.146503e+00 1.133146e+00 1.045487e+00 9.492213e-01 8.031922e-01 6.576910e-01 5.011259e-01 3.635252e-01 2.432773e-01 1.501258e-01 8.609672e-02 4.342751e-02 
1.931394e-02 4.691046e-02 1.110360e-01 1.873062e-01 2.912747e-01 4.047873e-01 5.269894e-01 6.396648e-01 7.259412e-01 7.794740e-01 7.761583e-01 7.656193e-01 7.205692e-01 8.016953e-01 1.094861e+00 1.546505e+00 1.812556e+00 1.546505e+00 1.094861e+00 8.016953e-01 7.205692e-01 7.656193e-01 7.761583e-01 7.794740e-01 7.259412e-01 6.396648e-01 5.269894e-01 4.047873e-01 2.912747e-01 1.873062e-01 1.110360e-01 4.691046e-02 
2.589825e-02 6.417506e-02 1.432467e-01 2.358447e-01 3.549247e-01 4.670150e-01 5.805314e-01 6.584613e-01 7.002346e-01 6.697254e-01 5.740539e-01 4.673402e-01 3.898071e-01 5.835440e-01 1.076299e+00 1.674941e+00 1.983317e+00 1.674941e+00 1.076299e+00 5.835440e-01 3.898071e-01 4.673402e-01 5.740539e-01 6.697254e-01 7.002346e-01 6.584613e-01 5.805314e-01 4.670150e-01 3.549247e-01 2.358447e-01 1.432467e-01 6.417506e-02 
1.090288e-01 1.259439e-01 1.885964e-01 2.932293e-01 4.295257e-01 5.507414e-01 6.631863e-01 7.272001e-01 7.498551e-01 6.658824e-01 5.332702e-01 3.110995e-01 9.322063e-02 4.975707e-01 1.186154e+00 1.806716e+00 2.056382e+00 1.806716e+00 1.186154e+00 4.975707e-01 9.322063e-02 3.110995e-01 5.332702e-01 6.658824e-01 7.498551e-01 7.272001e-01 6.631863e-01 5.507414e-01 4.295257e-01 2.932293e-01 1.885964e-01 1.259439e-01 
2.301695e-01 2.286017e-01 2.506499e-01 3.521334e-01 5.084774e-01 6.428769e-01 7.568623e-01 8.077163e-01 8.089443e-01 6.687392e-01 4.754932e-01 1.475397e-01 3.296088e-01 6.611882e-01 1.171425e+00 1.523826e+00 1.652394e+00 1.523826e+00 1.171425e+00 6.611882e-01 3.296088e-01 1.475397e-01 4.754932e-01 6.687392e-01 8.089443e-01 8.077163e-01 7.568623e-01 6.428769e-01 5.084774e-01 3.521334e-01 2.506499e-01 2.286017e-01 
3.852409e-01 3.640440e-01 3.227898e-01 3.967239e-01 5.705570e-01 7.323750e-01 8.543128e-01 9.192702e-01 9.135586e-01 7.242866e-01 6.044899e-01 2.833794e-01 4.210248e-01 1.119550e+00 1.647617e+00 1.605833e+00 1.565304e+00 1.605833e+00 1.647617e+00 1.119550e+00 4.210248e-01 2.833794e-01 6.044899e-01 7.242866e-01 9.135586e-01 9.192702e-01 8.543128e-01 7.323750e-01 5.705570e-01 3.967239e-01 3.227898e-01 3.640440e-01 
5.628452e-01 5.181396e-01 3.985708e-01 4.171281e-01 6.229806e-01 8.285740e-01 9.858960e-01 1.083715e+00 1.122814e+00 9.409943e-01 5.244724e-01 8.021064e-01 1.693948e+00 1.673626e+00 1.027834e+00 5.598621e-01 5.591590e-01 5.598621e-01 1.027834e+00 1.673626e+00 1.693948e+00 8.021064e-01 5.244724e-01 9.409943e-01 1.122814e+00 1.083715e+00 9.858960e-01 8.285740e-01 6.229806e-01 4.171281e-01 3.985708e-01 5.181396e-01 
7.459875e-01 6.821234e-01 4.726347e-01 4.082998e-01 6.373926e-01 9.052788e-01 1.101964e+00 1.347110e+00 1.381461e+00 7.948784e-01 4.513197e-01 1.178669e+00 6.495342e-01 5.289224e-01 8.777283e-01 1.012968e+00 1.153240e+00 1.012968e+00 8.777283e-01 5.289224e-01 6.495342e-01 1.178669e+00 4.513197e-01 7.948784e-01 1.381461e+00 1.347110e+00 1.101964e+00 9.052788e-01 6.373926e-01 4.082998e-01 4.726347e-01 6.821234e-01 
9.232840e-01 8.358790e-01 5.320418e-01 3.505602e-01 6.386682e-01 9.902527e-01 1.290829e+00 1.624243e+00 1.608423e+00 4.752509e-01 6.788428e-01 3.497622e-01 3.125751e-01 8.704616e-01 1.244548e+00 1.356798e+00 1.186815e+00 1.356798e+00 1.244548e+00 8.704616e-01 3.125751e-01 3.497622e-01 6.788428e-01 4.752509e-01 1.608423e+00 1.624243e+00 1.290829e+00 9.902527e-01 6.386682e-01 3.505602e-01 5.320418e-01 8.358790e-01 
1.054672e+00 9.593407e-01 5.702194e-01 2.756459e-01 5.839822e-01 9.475708e-01 1.307707e+00 2.122511e+00 1.770809e+00 6.664223e-01 9.811896e-01 1.076409e+00 1.484079e+00 1.440319e+00 9.756020e-01 4.975795e-01 6.691762e-03 4.975795e-01 9.756020e-01 1.440319e+00 1.484079e+00 1.076409e+00 9.811896e-01 6.664223e-01 1.770809e+00 2.122511e+00 1.307707e+00 9.475708e-01 5.839822e-01 2.756459e-01 5.702194e-01 9.593407e-01 
1.135478e+00 1.034848e+00 6.000862e-01 1.806211e-01 4.353606e-01 8.406628e-01 1.495361e+00 2.902319e+00 1.080448e+00 1.727367e+00 1.012741e+00 1.037821e+00 6.508839e-01 4.432720e-01 3.887171e-01 4.100936e-01 2.878987e-01 4.100936e-01 3.887171e-01 4.432720e-01 6.508839e-01 1.037821e+00 1.012741e+00 1.727367e+00 1.080448e+00 2.902319e+00 1.495361e+00 8.406628e-01 4.353606e-01 1.806211e-01 6.000862e-01 1.034848e+00 
1.072979e+00 9.999073e-01 6.074007e-01 3.104647e-01 4.396060e-01 7.457378e-01 2.122463e+00 2.882889e+00 1.429174e+00 2.038000e+00 7.454158e-01 6.043939e-01 4.802720e-01 5.661122e-01 3.642718e-01 2.237568e-01 7.170244e-02 2.237568e-01 3.642718e-01 5.661122e-01 4.802720e-01 6.043939e-01 7.454158e-01 2.038000e+00 1.429174e+00 2.882889e+00 2.122463e+00 7.457378e-01 4.396060e-01 3.104647e-01 6.074007e-01 9.999073e-01 
8.881634e-01 8.811539e-01 7.389277e-01 6.323286e-01 6.514659e-01 5.753075e-01 2.258361e+00 1.798748e+00 2.317263e+00 8.443960e-01 7.388940e-01 4.423061e-01 4.302669e-01 3.612361e-01 2.478365e-01 2.275372e-01 1.494052e-01 2.275372e-01 2.478365e-01 3.612361e-01 4.302669e-01 4.423061e-01 7.388940e-01 8.443960e-01 2.317263e+00 1.798748e+00 2.258361e+00 5.753075e-01 6.514659e-01 6.323286e-01 7.389277e-01 8.811539e-01 
4.960896e-01 6.394123e-01 8.843420e-01 9.701605e-01 1.124857e+00 8.469521e-01 1.515093e+00 1.654294e+00 1.448430e+00 7.264425e-02 7.759959e-01 5.132407e-01 5.678236e-01 3.800538e-01 2.687377e-01 1.385070e-01 6.561261e-02 1.385070e-01 2.687377e-01 3.800538e-01 5.678236e-01 5.132407e-01 7.759959e-01 7.264425e-02 1.448430e+00 1.654294e+00 1.515093e+00 8.469521e-01 1.124857e+00 9.701605e-01 8.843420e-01 6.394123e-01 
2.479008e-14 4.960896e-01 9.200859e-01 1.092173e+00 1.242043e+00 8.869332e-01 2.971477e-01 1.899800e+00 9.552482e-01 1.075013e-01 9.520918e-01 6.850648e-01 6.917507e-01 3.516617e-01 2.332700e-01 6.561261e-02 3.192958e-14 6.561261e-02 2.332700e-01 3.516617e-01 6.917507e-01 6.850648e-01 9.520918e-01 1.075013e-01 9.552482e-01 1.899800e+00 2.971477e-01 8.869332e-01 1.242043e+00 1.092173e+00 9.200859e-01 4.960896e-01 
4.960896e-01 6.394123e-01 8.843420e-01 9.701605e-01 1.124857e+00 8.469521e-01 1.515093e+00 1.654294e+00 1.448430e+00 7.264425e-02 7.759959e-01 5.132407e-01 5.678236e-01 3.800538e-01 2.687377e-01 1.385070e-01 6.561261e-02 1.385070e-01 2.687377e-01 3.800538e-01 5.678236e-01 5.132407e-01 7.759959e-01 7.264425e-02 1.448430e+00 1.654294e+00 1.515093e+00 8.469521e-01 1.124857e+00 9.701605e-01 8.843420e-01 6.394123e-01 
8.881634e-01 8.811539e-01 7.389277e-01 6.323286e-01 6.514659e-01 5.753075e-01 2.258361e+00 1.798748e+00 2.317263e+00 8.443960e-01 7.388940e-01 4.423061e-01 4.302669e-01 3.612361e-01 2.478365e-01 2.275372e-01 1.494052e-01 2.275372e-01 2.478365e-01 3.612361e-01 4.302669e-01 4.423061e-01 7.388940e-01 8.443960e-01 2.317263e+00 1.798748e+00 2.258361e+00 5.753075e-01 6.514659e-01 6.323286e-01 7.389277e-01 8.811539e-01 
1.072979e+00 9.999073e-01 6.074007e-01 3.104647e-01 4.396060e-01 7.457378e-01 2.122463e+00 2.882889e+00 1.429174e+00 2.038000e+00 7.454158e-01 6.043939e-01 4.802720e-01 5.661122e-01 3.642718e-01 2.237568e-01 7.170244e-02 2.237568e-01 3.642718e-01 5.661122e-01 4.802720e-01 6.043939e-01 7.454158e-01 2.038000e+00 1.429174e+00 2.882889e+00 2.122463e+00 7.457378e-01 4.396060e-01 3.104647e-01 6.074007e-01 9.999073e-01 
1.135478e+00 1.034848e+00 6.000862e-01 1.806211e-01 4.353606e-01 8.406628e-01 1.495361e+00 2.902319e+00 1.080448e+00 1.727367e+00 1.012741e+00 1.037821e+00 6.508839e-01 4.432720e-01 3.887171e-01 4.100936e-01 2.878987e-01 4.100936e-01 3.887171e-01 4.432720e-01 6.508839e-01 1.037821e+00 1.012741e+00 1.727367e+00 1.080448e+00 2.902319e+00 1.495361e+00 8.406628e-01 4.353606e-01 1.806211e-01 6.000862e-01 1.034848e+00 
1.054672e+00 9.593407e-01 5.702194e-01 2.756459e-01 5.839822e-01 9.475708e-01 1.307707e+00 2.122511e+00 1.770809e+00 6.664223e-01 9.811896e-01 1.076409e+00 1.484079e+00 1.440319e+00 9.756020e-01 4.975795e-01 6.691762e-03 4.975795e-01 9.756020e-01 1.440319e+00 1.484079e+00 1.076409e+00 9.811896e-01 6.664223e-01 1.770809e+00 2.122511e+00 1.307707e+00 9.475708e-01 5.839822e-01 2.756459e-01 5.702194e-01 9.593407e-01 
9.232840e-01 8.358790e-01 5.320418e-01 3.505602e-01 6.386682e-01 9.902527e-01 1.290829e+00 1.624243e+00 1.608423e+00 4.752509e-01 6.788428e-01 3.497622e-01 3.125751e-01 8.704616e-01 1.244548e+00 1.356798e+00 1.186815e+00 1.356798e+00 1.244548e+00 8.704616e-01 3.125751e-01 3.497622e-01 6.788428e-01 4.752509e-01 1.608423e+00 1.624243e+00 1.290829e+00 9.902527e-01 6.386682e-01 3.505602e-01 5.320418e-01 8.358790e-01 
7.459875e-01 6.821234e-01 4.726347e-01 4.082998e-01 6.373926e-01 9.052788e-01 1.101964e+00 1.347110e+00 1.381461e+00 7.948784e-01 4.513197e-01 1.178669e+00 6.495342e-01 5.289224e-01 8.777283e-01 1.012968e+00 1.153240e+00 1.012968e+00 8.777283e-01 5.289224e-01 6.495342e-01 1.178669e+00 4.513197e-01 7.948784e-01 1.381461e+00 1.347110e+00 1.101964e+00 9.052788e-01 6.373926e-01 4.082998e-01 4.726347e-01 6.821234e-01 
5.628452e-01 5.181396e-01 3.985708e-01 4.171281e-01 6.229806e-01 8.285740e-01 9.858960e-01 1.083715e+00 1.122814e+00 9.409943e-01 5.244724e-01 8.021064e-01 1.693948e+00 1.673626e+00 1.027834e+00 5.598621e-01 5.591590e-01 5.598621e-01 1.027834e+00 1.673626e+00 1.693948e+00 8.021064e-01 5.244724e-01 9.409943e-01 1.122814e+00 1.083715e+00 9.858960e-01 8.285740e-01 6.229806e-01 4.171281e-01 3.985708e-01 5.181396e-01 
3.852409e-01 3.640440e-01 3.227898e-01 3.967239e-01 5.705570e-01 7.323750e-01 8.543128e-01 9.192702e-01 9.135586e-01 7.242866e-01 6.044899e-01 2.833794e-01 4.210248e-01 1.119550e+00 1.647617e+00 1.605833e+00 1.565304e+00 1.605833e+00 1.647617e+00 1.119550e+00 4.210248e-01 2.833794e-01 6.044899e-01 7.242866e-01 9.135586e-01 9.192702e-01 8.543128e-01 7.323750e-01 5.705570e-01 3.967239e-01 3.227898e-01 3.640440e-01 
2.301695e-01 2.286017e-01 2.506499e-01 3.521334e-01 5.084774e-01 6.428769e-01 7.568623e-01 8.077163e-01 8.089443e-01 6.687392e-01 4.754932e-01 1.475397e-01 3.296088e-01 6.611882e-01 1.171425e+00 1.523826e+00 1.652394e+00 1.523826e+00 1.171425e+00 6.611882e-01 3.296088e-01 1.475397e-01 4.754932e-01 6.687392e-01 8.089443e-01 8.077163e-01 7.568623e-01 6.428769e-01 5.084774e-01 3.521334e-01 2.506499e-01 2.286017e-01 
1.090288e-01 1.259439e-01 1.885964e-01 2.932293e-01 4.295257e-01 5.507414e-01 6.631863e-01 7.272001e-01 7.498551e-01 6.658824e-01 5.332702e-01 3.110995e-01 9.322063e-02 4.975707e-01 1.186154e+00 1.806716e+00 2.056382e+00 1.806716e+00 1.186154e+00 4.975707e-01 9.322063e-02 3.110995e-01 5.332702e-01 6.658824e-01 7.498551e-01 7.272001e-01 6.631863e-01 5.507414e-01 4.295257e-01 2.932293e-01 1.885964e-01 1.259439e-01 
2.589825e-02 6.417506e-02 1.432467e-01 2.358447e-01 3.549247e-01 4.670150e-01 5.805314e-01 6.584613e-01 7.002346e-01 6.697254e-01 5.740539e-01 4.673402e-01 3.898071e-01 5.835440e-01 1.076299e+00 1.674941e+00 1.983317e+00 1.674941e+00 1.076299e+00 5.835440e-01 3.898071e-01 4.673402e-01 5.740539e-01 6.697254e-01 7.002346e-01 6.584613e-01 5.805314e-01 4.670150e-01 3.549247e-01 2.358447e-01 1.432467e-01 6.417506e-02 
1.931394e-02 4.691046e-02 1.110360e-01 1.873062e-01 2.912747e-01 4.047873e-01 5.269894e-01 6.396648e-01 7.259412e-01 7.794740e-01 7.761583e-01 7.656193e-01 7.205692e-01 8.016953e-01 1.094861e+00 1.546505e+00 1.812556e+00 1.546505e+00 1.094861e+00 8.016953e-01 7.205692e-01 7.656193e-01 7.761583e-01 7.794740e-01 7.259412e-01 6.396648e-01 5.269894e-01 4.047873e-01 2.912747e-01 1.873062e-01 1.110360e-01 4.691046e-02 
3.247858e-02 4.342751e-02 8.609672e-02 1.501258e-01 2.432773e-01 3.635252e-01 5.011259e-01 6.576910e-01 8.031922e-01 9.492213e-01 1.045487e+00 1.133146e+00 1.146503e+00 1.151961e+00 1.144475e+00 1.221243e+00 1.313840e+00 1.221243e+00 1.144475e+00 1.151961e+00 1.146503e+00 1.133146e+00 1.045487e+00 9.492213e-01 8.031922e-01 6.576910e-01 5.011259e-01 3.635252e-01 2.432773e-01 1.501258e-01 8.609672e-02 4.342751e-02 
2.246613e-02 3.226037e-02 6.536752e-02 1.277746e-01 2.170754e-01 3.497591e-01 5.050297e-01 7.016007e-01 8.948820e-01 1.103343e+00 1.258251e+00 1.385521e+00 1.403692e+00 1.346595e+00 1.150672e+00 8.814037e-01 7.055020e-01 8.814037e-01 1.150672e+00 1.346595e+00 1.403692e+00 1.385521e+00 1.258251e+00 1.103343e+00 8.948820e-01 7.016007e-01 5.050297e-01 3.497591e-01 2.170754e-01 1.277746e-01 6.536752e-02 3.226037e-02 
