# vtk DataFile Version 2.0
Comment goes here
ASCII

DATASET STRUCTURED_POINTS
FIELD FieldData 1
TIME 1 1 double
0.52000000
DIMENSIONS    32   32   1

ORIGIN    0.000   0.000   0.000
SPACING   0.03125 0.03125   1.000

POINT_DATA   1024
SCALARS uMag double
LOOKUP_TABLE default

5.382942e-15 9.665631e-02 1.852844e-01 2.689130e-01 3.301159e-01 3.750990e-01 3.844876e-01 3.493372e-01 2.703655e-01 1.051999e-01 7.443190e-02 3.517493e-01 5.367653e-01 7.239442e-01 6.921551e-01 4.606397e-01 4.887857e-15 4.606397e-01 6.921551e-01 7.239442e-01 5.367653e-01 3.517493e-01 7.443190e-02 1.051999e-01 2.703655e-01 3.493372e-01 3.844876e-01 3.750990e-01 3.301159e-01 2.689130e-01 1.852844e-01 9.665631e-02 
9.665631e-02 1.349026e-01 2.069428e-01 2.833876e-01 3.423175e-01 3.900788e-01 4.071087e-01 3.917640e-01 3.496464e-01 2.586026e-01 2.319275e-01 3.079737e-01 4.200077e-01 5.555818e-01 5.688373e-01 5.368233e-01 4.606397e-01 5.368233e-01 5.688373e-01 5.555818e-01 4.200077e-01 3.079737e-01 2.319275e-01 2.586026e-01 3.496464e-01 3.917640e-01 4.071087e-01 3.900788e-01 3.423175e-01 2.833876e-01 2.069428e-01 1.349026e-01 
1.961237e-01 2.161449e-01 2.693445e-01 3.352739e-01 3.909900e-01 4.482454e-01 4.817516e-01 5.072422e-01 5.235769e-01 5.022447e-01 5.104071e-01 4.289315e-01 3.495118e-01 3.606367e-01 4.581556e-01 6.524300e-01 8.207547e-01 6.524300e-01 4.581556e-01 3.606367e-01 3.495118e-01 4.289315e-01 5.104071e-01 5.022447e-01 5.235769e-01 5.072422e-01 4.817516e-01 4.482454e-01 3.909900e-01 3.352739e-01 2.693445e-01 2.161449e-01 
3.093664e-01 3.185608e-01 3.573727e-01 4.089021e-01 4.584256e-01 5.231552e-01 5.720034e-01 6.415430e-01 7.128372e-01 7.713649e-01 8.734462e-01 8.058597e-01 7.658131e-01 5.421248e-01 1.005630e-01 8.004365e-01 1.151788e+00 8.004365e-01 1.005630e-01 5.421248e-01 7.658131e-01 8.058597e-01 8.734462e-01 7.713649e-01 7.128372e-01 6.415430e-01 5.720034e-01 5.231552e-01 4.584256e-01 4.089021e-01 3.573727e-01 3.185608e-01 
4.285735e-01 4.313543e-01 4.630128e-01 5.058397e-01 5.523629e-01 6.283511e-01 6.909324e-01 8.084338e-01 9.177745e-01 1.074798e+00 1.253488e+00 1.217697e+00 1.270942e+00 8.964118e-01 4.400754e-01 6.310566e-01 1.158675e+00 6.310566e-01 4.400754e-01 8.964118e-01 1.270942e+00 1.217697e+00 1.253488e+00 1.074798e+00 9.177745e-01 8.084338e-01 6.909324e-01 6.283511e-01 5.523629e-01 5.058397e-01 4.630128e-01 4.313543e-01 
5.729999e-01 5.667363e-01 5.896090e-01 6.159006e-01 6.552996e-01 7.313114e-01 8.019309e-01 9.514920e-01 1.083768e+00 1.337624e+00 1.567432e+00 1.507831e+00 1.903525e+00 2.336122e+00 2.424718e+00 1.740603e+00 5.228947e-01 1.740603e+00 2.424718e+00 2.336122e+00 1.903525e+00 1.507831e+00 1.567432e+00 1.337624e+00 1.083768e+00 9.514920e-01 8.019309e-01 7.313114e-01 6.552996e-01 6.159006e-01 5.896090e-01 5.667363e-01 
7.222495e-01 7.069980e-01 7.199840e-01 7.299880e-01 7.626639e-01 8.402055e-01 9.216759e-01 1.108067e+00 1.281561e+00 1.698564e+00 1.902006e+00 2.365990e+00 3.055668e+00 3.311024e+00 2.641625e+00 2.185626e+00 2.198139e+00 2.185626e+00 2.641625e+00 3.311024e+00 3.055668e+00 2.365990e+00 1.902006e+00 1.698564e+00 1.281561e+00 1.108067e+00 9.216759e-01 8.402055e-01 7.626639e-01 7.299880e-01 7.199840e-01 7.069980e-01 
9.044310e-01 8.736341e-01 8.675900e-01 8.443273e-01 8.620343e-01 9.266716e-01 1.027190e+00 1.239557e+00 1.575676e+00 1.930397e+00 2.083760e+00 2.370092e+00 1.673631e+00 1.759892e+00 2.484359e+00 2.196626e+00 1.745087e+00 2.196626e+00 2.484359e+00 1.759892e+00 1.673631e+00 2.370092e+00 2.083760e+00 1.930397e+00 1.575676e+00 1.239557e+00 1.027190e+00 9.266716e-01 8.620343e-01 8.443273e-01 8.675900e-01 8.736341e-01 
1.082085e+00 1.033305e+00 9.978390e-01 9.317645e-01 9.276041e-01 9.801539e-01 1.104489e+00 1.397862e+00 1.774592e+00 1.468859e+00 9.744125e-01 9.215966e-01 2.354369e+00 2.626069e+00 1.596277e+00 1.174048e+00 1.003395e+00 1.174048e+00 1.596277e+00 2.626069e+00 2.354369e+00 9.215966e-01 9.744125e-01 1.468859e+00 1.774592e+00 1.397862e+00 1.104489e+00 9.801539e-01 9.276041e-01 9.317645e-01 9.978390e-01 1.033305e+00 
1.285018e+00 1.210673e+00 1.130546e+00 9.942462e-01 9.494757e-01 9.784204e-01 1.114261e+00 1.520568e+00 1.149876e+00 1.025110e-01 1.185510e+00 1.904185e+00 1.970633e+00 1.293650e+00 1.093630e+00 1.453682e+00 1.497272e+00 1.453682e+00 1.093630e+00 1.293650e+00 1.970633e+00 1.904185e+00 1.185510e+00 1.025110e-01 1.149876e+00 1.520568e+00 1.114261e+00 9.784204e-01 9.494757e-01 9.942462e-01 1.130546e+00 1.210673e+00 
1.446878e+00 1.348155e+00 1.211748e+00 9.876617e-01 9.003550e-01 8.831173e-01 1.128807e+00 1.224991e+00 5.742913e-01 1.189593e+00 1.514151e+00 1.958640e+00 1.480148e+00 1.023580e+00 1.017641e+00 1.278880e+00 1.369595e+00 1.278880e+00 1.017641e+00 1.023580e+00 1.480148e+00 1.958640e+00 1.514151e+00 1.189593e+00 5.742913e-01 1.224991e+00 1.128807e+00 8.831173e-01 9.003550e-01 9.876617e-01 1.211748e+00 1.348155e+00 
1.593992e+00 1.471998e+00 1.278080e+00 9.516031e-01 8.322088e-01 7.458004e-01 1.123544e+00 6.598752e-01 1.552100e+00 1.237699e+00 1.788509e+00 2.114122e+00 1.064189e+00 8.779575e-01 9.000994e-01 1.229174e+00 1.337664e+00 1.229174e+00 9.000994e-01 8.779575e-01 1.064189e+00 2.114122e+00 1.788509e+00 1.237699e+00 1.552100e+00 6.598752e-01 1.123544e+00 7.458004e-01 8.322088e-01 9.516031e-01 1.278080e+00 1.471998e+00 
1.632080e+00 1.503003e+00 1.249842e+00 8.653447e-01 6.796876e-01 6.984415e-01 9.126566e-01 1.351737e+00 1.658081e+00 1.123572e+00 2.207056e+00 1.752081e+00 9.192712e-01 9.730347e-01 8.119065e-01 9.555336e-01 9.559366e-01 9.555336e-01 8.119065e-01 9.730347e-01 9.192712e-01 1.752081e+00 2.207056e+00 1.123572e+00 1.658081e+00 1.351737e+00 9.126566e-01 6.984415e-01 6.796876e-01 8.653447e-01 1.249842e+00 1.503003e+00 
1.583880e+00 1.468109e+00 1.208438e+00 8.966680e-01 7.677842e-01 1.001553e+00 1.166156e+00 1.886941e+00 1.461992e+00 1.292057e+00 2.227515e+00 1.244752e+00 8.963204e-01 7.959191e-01 6.479224e-01 6.871750e-01 6.347967e-01 6.871750e-01 6.479224e-01 7.959191e-01 8.963204e-01 1.244752e+00 2.227515e+00 1.292057e+00 1.461992e+00 1.886941e+00 1.166156e+00 1.001553e+00 7.677842e-01 8.966680e-01 1.208438e+00 1.468109e+00 
1.326812e+00 1.275708e+00 1.176022e+00 1.153921e+00 1.243233e+00 1.492707e+00 1.650190e+00 1.833273e+00 1.289007e+00 1.527277e+00 1.837126e+00 7.581644e-01 7.378174e-01 5.551447e-01 4.909157e-01 4.106068e-01 3.181722e-01 4.106068e-01 4.909157e-01 5.551447e-01 7.378174e-01 7.581644e-01 1.837126e+00 1.527277e+00 1.289007e+00 1.833273e+00 1.650190e+00 1.492707e+00 1.243233e+00 1.153921e+00 1.176022e+00 1.275708e+00 
8.331151e-01 1.002361e+00 1.330109e+00 1.620616e+00 1.761887e+00 1.782284e+00 1.754480e+00 1.601700e+00 1.362348e+00 1.675807e+00 1.206133e+00 3.522999e-01 4.765856e-01 2.912543e-01 3.260526e-01 2.086394e-01 1.303740e-01 2.086394e-01 3.260526e-01 2.912543e-01 4.765856e-01 3.522999e-01 1.206133e+00 1.675807e+00 1.362348e+00 1.601700e+00 1.754480e+00 1.782284e+00 1.761887e+00 1.620616e+00 1.330109e+00 1.002361e+00 
5.225966e-15 8.331151e-01 1.502823e+00 1.896456e+00 1.994398e+00 1.903694e+00 1.864589e+00 1.720845e+00 1.635517e+00 1.752832e+00 7.858542e-01 1.843342e-01 3.582859e-01 2.031169e-01 2.699780e-01 1.303740e-01 1.656010e-14 1.303740e-01 2.699780e-01 2.031169e-01 3.582859e-01 1.843342e-01 7.858542e-01 1.752832e+00 1.635517e+00 1.720845e+00 1.864589e+00 1.903694e+00 1.994398e+00 1.896456e+00 1.502823e+00 8.331151e-01 
8.331151e-01 1.002361e+00 1.330109e+00 1.620616e+00 1.761887e+00 1.782284e+00 1.754480e+00 1.601700e+00 1.362348e+00 1.675807e+00 1.206133e+00 3.522999e-01 4.765856e-01 2.912543e-01 3.260526e-01 2.086394e-01 1.303740e-01 2.086394e-01 3.260526e-01 2.912543e-01 4.765856e-01 3.522999e-01 1.206133e+00 1.675807e+00 1.362348e+00 1.601700e+00 1.754480e+00 1.782284e+00 1.761887e+00 1.620616e+00 1.330109e+00 1.002361e+00 
1.326812e+00 1.275708e+00 1.176022e+00 1.153921e+00 1.243233e+00 1.492707e+00 1.650190e+00 1.833273e+00 1.289007e+00 1.527277e+00 1.837126e+00 7.581644e-01 7.378174e-01 5.551447e-01 4.909157e-01 4.106068e-01 3.181722e-01 4.106068e-01 4.909157e-01 5.551447e-01 7.378174e-01 7.581644e-01 1.837126e+00 1.527277e+00 1.289007e+00 1.833273e+00 1.650190e+00 1.492707e+00 1.243233e+00 1.153921e+00 1.176022e+00 1.275708e+00 
1.583880e+00 1.468109e+00 1.208438e+00 8.966680e-01 7.677842e-01 1.001553e+00 1.166156e+00 1.886941e+00 1.461992e+00 1.292057e+00 2.227515e+00 1.244752e+00 8.963204e-01 7.959191e-01 6.479224e-01 6.871750e-01 6.347967e-01 6.871750e-01 6.479224e-01 7.959191e-01 8.963204e-01 1.244752e+00 2.227515e+00 1.292057e+00 1.461992e+00 1.886941e+00 1.166156e+00 1.001553e+00 7.677842e-01 8.966680e-01 1.208438e+00 1.468109e+00 
1.632080e+00 1.503003e+00 1.249842e+00 8.653447e-01 6.796876e-01 6.984415e-01 9.126566e-01 1.351737e+00 1.658081e+00 1.123572e+00 2.207056e+00 1.752081e+00 9.192712e-01 9.730347e-01 8.119065e-01 9.555336e-01 9.559366e-01 9.555336e-01 8.119065e-01 9.730347e-01 9.192712e-01 1.752081e+00 2.207056e+00 1.123572e+00 1.658081e+00 1.351737e+00 9.126566e-01 6.984415e-01 6.796876e-01 8.653447e-01 1.249842e+00 1.503003e+00 
1.593992e+00 1.471998e+00 1.278080e+00 9.516031e-01 8.322088e-01 7.458004e-01 1.123544e+00 6.598752e-01 1.552100e+00 1.237699e+00 1.788509e+00 2.114122e+00 1.064189e+00 8.779575e-01 9.000994e-01 1.229174e+00 1.337664e+00 1.229174e+00 9.000994e-01 8.779575e-01 1.064189e+00 2.114122e+00 1.788509e+00 1.237699e+00 1.552100e+00 6.598752e-01 1.123544e+00 7.458004e-01 8.322088e-01 9.516031e-01 1.278080e+00 1.471998e+00 
1.446878e+00 1.348155e+00 1.211748e+00 9.876617e-01 9.003550e-01 8.831173e-01 1.128807e+00 1.224991e+00 5.742913e-01 1.189593e+00 1.514151e+00 1.958640e+00 1.480148e+00 1.023580e+00 1.017641e+00 1.278880e+00 1.369595e+00 1.278880e+00 1.017641e+00 1.023580e+00 1.480148e+00 1.958640e+00 1.514151e+00 1.189593e+00 5.742913e-01 1.224991e+00 1.128807e+00 8.831173e-01 9.003550e-01 9.876617e-01 1.211748e+00 1.348155e+00 
1.285018e+00 1.210673e+00 1.130546e+00 9.942462e-01 9.494757e-01 9.784204e-01 1.114261e+00 1.520568e+00 1.149876e+00 1.025110e-01 1.185510e+00 1.904185e+00 1.970633e+00 1.293650e+00 1.093630e+00 1.453682e+00 1.497272e+00 1.453682e+00 1.093630e+00 1.293650e+00 1.970633e+00 1.904185e+00 1.185510e+00 1.025110e-01 1.149876e+00 1.520568e+00 1.114261e+00 9.784204e-01 9.494757e-01 9.942462e-01 1.130546e+00 1.210673e+00 
1.082085e+00 1.033305e+00 9.978390e-01 9.317645e-01 9.276041e-01 9.801539e-01 1.104489e+00 1.397862e+00 1.774592e+00 1.468859e+00 9.744125e-01 9.215966e-01 2.354369e+00 2.626069e+00 1.596277e+00 1.174048e+00 1.003395e+00 1.174048e+00 1.596277e+00 2.626069e+00 2.354369e+00 9.215966e-01 9.744125e-01 1.468859e+00 1.774592e+00 1.397862e+00 1.104489e+00 9.801539e-01 9.276041e-01 9.317645e-01 9.978390e-01 1.033305e+00 
9.044310e-01 8.736341e-01 8.675900e-01 8.443273e-01 8.620343e-01 9.266716e-01 1.027190e+00 1.239557e+00 1.575676e+00 1.930397e+00 2.083760e+00 2.370092e+00 1.673631e+00 1.759892e+00 2.484359e+00 2.196626e+00 1.745087e+00 2.196626e+00 2.484359e+00 1.759892e+00 1.673631e+00 2.370092e+00 2.083760e+00 1.930397e+00 1.575676e+00 1.239557e+00 1.027190e+00 9.266716e-01 8.620343e-01 8.443273e-01 8.675900e-01 8.736341e-01 
7.222495e-01 7.069980e-01 7.199840e-01 7.299880e-01 7.626639e-01 8.402055e-01 9.216759e-01 1.108067e+00 1.281561e+00 1.698564e+00 1.902006e+00 2.365990e+00 3.055668e+00 3.311024e+00 2.641625e+00 2.185626e+00 2.198139e+00 2.185626e+00 2.641625e+00 3.311024e+00 3.055668e+00 2.365990e+00 1.902006e+00 1.698564e+00 1.281561e+00 1.108067e+00 9.216759e-01 8.402055e-01 7.626639e-01 7.299880e-01 7.199840e-01 7.069980e-01 
5.729999e-01 5.667363e-01 5.896090e-01 6.159006e-01 6.552996e-01 7.313114e-01 8.019309e-01 9.514920e-01 1.083768e+00 1.337624e+00 1.567432e+00 1.507831e+00 1.903525e+00 2.336122e+00 2.424718e+00 1.740603e+00 5.228947e-01 1.740603e+00 2.424718e+00 2.336122e+00 1.903525e+00 1.507831e+00 1.567432e+00 1.337624e+00 1.083768e+00 9.514920e-01 8.019309e-01 7.313114e-01 6.552996e-01 6.159006e-01 5.896090e-01 5.667363e-01 
4.285735e-01 4.313543e-01 4.630128e-01 5.058397e-01 5.523629e-01 6.283511e-01 6.909324e-01 8.084338e-01 9.177745e-01 1.074798e+00 1.253488e+00 1.217697e+00 1.270942e+00 8.964118e-01 4.400754e-01 6.310566e-01 1.158675e+00 6.310566e-01 4.400754e-01 8.964118e-01 1.270942e+00 1.217697e+00 1.253488e+00 1.074798e+00 9.177745e-01 8.084338e-01 6.909324e-01 6.283511e-01 5.523629e-01 5.058397e-01 4.630128e-01 4.313543e-01 
3.093664e-01 3.185608e-01 3.573727e-01 4.089021e-01 4.584256e-01 5.231552e-01 5.720034e-01 6.415430e-01 7.128372e-01 7.713649e-01 8.734462e-01 8.058597e-01 7.658131e-01 5.421248e-01 1.005630e-01 8.004365e-01 1.151788e+00 8.004365e-01 1.005630e-01 5.421248e-01 7.658131e-01 8.058597e-01 8.734462e-01 7.713649e-01 7.128372e-01 6.415430e-01 5.720034e-01 5.231552e-01 4.584256e-01 4.089021e-01 3.573727e-01 3.185608e-01 
1.961237e-01 2.161449e-01 2.693445e-01 3.352739e-01 3.909900e-01 4.482454e-01 4.817516e-01 5.072422e-01 5.235769e-01 5.022447e-01 5.104071e-01 4.289315e-01 3.495118e-01 3.606367e-01 4.581556e-01 6.524300e-01 8.207547e-01 6.524300e-01 4.581556e-01 3.606367e-01 3.495118e-01 4.289315e-01 5.104071e-01 5.022447e-01 5.235769e-01 5.072422e-01 4.817516e-01 4.482454e-01 3.909900e-01 3.352739e-01 2.693445e-01 2.161449e-01 
9.665631e-02 1.349026e-01 2.069428e-01 2.833876e-01 3.423175e-01 3.900788e-01 4.071087e-01 3.917640e-01 3.496464e-01 2.586026e-01 2.319275e-01 3.079737e-01 4.200077e-01 5.555818e-01 5.688373e-01 5.368233e-01 4.606397e-01 5.368233e-01 5.688373e-01 5.555818e-01 4.200077e-01 3.079737e-01 2.319275e-01 2.586026e-01 3.496464e-01 3.917640e-01 4.071087e-01 3.900788e-01 3.423175e-01 2.833876e-01 2.069428e-01 1.349026e-01 
