# vtk DataFile Version 2.0
Comment goes here
ASCII

DATASET STRUCTURED_POINTS
FIELD FieldData 1
TIME 1 1 double
1.00000000
DIMENSIONS    32   32   1

ORIGIN    0.000   0.000   0.000
SPACING   0.03125 0.03125   1.000

POINT_DATA   1024
SCALARS uMag double
LOOKUP_TABLE default

1.360041e-14 4.650241e-02 7.509994e-02 7.952579e-02 3.944917e-02 3.754296e-02 1.672582e-01 3.299871e-01 5.270131e-01 7.306046e-01 9.250642e-01 1.077775e+00 1.155616e+00 1.112217e+00 9.114290e-01 5.255532e-01 6.781764e-14 5.255532e-01 9.114290e-01 1.112217e+00 1.155616e+00 1.077775e+00 9.250642e-01 7.306046e-01 5.270131e-01 3.299871e-01 1.672582e-01 3.754296e-02 3.944917e-02 7.952579e-02 7.509994e-02 4.650241e-02 
4.650241e-02 6.668229e-02 9.378415e-02 1.076348e-01 9.650763e-02 1.042217e-01 1.772083e-01 3.022701e-01 4.644945e-01 6.326579e-01 7.946000e-01 9.225239e-01 9.909085e-01 9.744224e-01 8.609888e-01 6.612096e-01 5.255532e-01 6.612096e-01 8.609888e-01 9.744224e-01 9.909085e-01 9.225239e-01 7.946000e-01 6.326579e-01 4.644945e-01 3.022701e-01 1.772083e-01 1.042217e-01 9.650763e-02 1.076348e-01 9.378415e-02 6.668229e-02 
1.102094e-01 1.183402e-01 1.389526e-01 1.624734e-01 1.780029e-01 2.101251e-01 2.580490e-01 3.283454e-01 4.175531e-01 5.066276e-01 5.928987e-01 6.614625e-01 7.119572e-01 7.482559e-01 8.027576e-01 9.003859e-01 9.581700e-01 9.003859e-01 8.027576e-01 7.482559e-01 7.119572e-01 6.614625e-01 5.928987e-01 5.066276e-01 4.175531e-01 3.283454e-01 2.580490e-01 2.101251e-01 1.780029e-01 1.624734e-01 1.389526e-01 1.183402e-01 
1.945777e-01 1.973410e-01 2.169605e-01 2.525379e-01 2.929865e-01 3.534969e-01 4.100003e-01 4.623480e-01 4.940730e-01 4.867075e-01 4.423811e-01 3.523339e-01 2.452401e-01 3.493728e-01 7.157922e-01 1.126544e+00 1.314062e+00 1.126544e+00 7.157922e-01 3.493728e-01 2.452401e-01 3.523339e-01 4.423811e-01 4.867075e-01 4.940730e-01 4.623480e-01 4.100003e-01 3.534969e-01 2.929865e-01 2.525379e-01 2.169605e-01 1.973410e-01 
3.211632e-01 3.159710e-01 3.254451e-01 3.573844e-01 4.046601e-01 4.813539e-01 5.488163e-01 6.130270e-01 6.467768e-01 6.327516e-01 5.807081e-01 4.495014e-01 2.457355e-01 4.910363e-02 5.185315e-01 1.163460e+00 1.500890e+00 1.163460e+00 5.185315e-01 4.910363e-02 2.457355e-01 4.495014e-01 5.807081e-01 6.327516e-01 6.467768e-01 6.130270e-01 5.488163e-01 4.813539e-01 4.046601e-01 3.573844e-01 3.254451e-01 3.159710e-01 
4.771599e-01 4.608681e-01 4.538985e-01 4.728121e-01 5.214154e-01 6.125264e-01 6.961177e-01 7.872926e-01 8.558016e-01 8.943947e-01 9.113617e-01 8.784952e-01 8.290556e-01 6.351849e-01 5.715841e-01 1.208981e+00 1.532803e+00 1.208981e+00 5.715841e-01 6.351849e-01 8.290556e-01 8.784952e-01 9.113617e-01 8.943947e-01 8.558016e-01 7.872926e-01 6.961177e-01 6.125264e-01 5.214154e-01 4.728121e-01 4.538985e-01 4.608681e-01 
6.775412e-01 6.451203e-01 6.070317e-01 5.909384e-01 6.188893e-01 7.091445e-01 7.885315e-01 8.927374e-01 9.738015e-01 1.038787e+00 1.118403e+00 1.090225e+00 1.023375e+00 9.386015e-01 8.865243e-01 1.250540e+00 1.290765e+00 1.250540e+00 8.865243e-01 9.386015e-01 1.023375e+00 1.090225e+00 1.118403e+00 1.038787e+00 9.738015e-01 8.927374e-01 7.885315e-01 7.091445e-01 6.188893e-01 5.909384e-01 6.070317e-01 6.451203e-01 
8.946348e-01 8.397411e-01 7.581928e-01 6.834859e-01 6.745199e-01 7.521554e-01 8.255153e-01 9.365980e-01 1.031031e+00 1.139482e+00 1.187405e+00 1.373888e+00 1.860086e+00 2.242491e+00 2.329244e+00 1.439225e+00 2.287614e-01 1.439225e+00 2.329244e+00 2.242491e+00 1.860086e+00 1.373888e+00 1.187405e+00 1.139482e+00 1.031031e+00 9.365980e-01 8.255153e-01 7.521554e-01 6.745199e-01 6.834859e-01 7.581928e-01 8.397411e-01 
1.126510e+00 1.046730e+00 9.107680e-01 7.568391e-01 6.866869e-01 7.425958e-01 7.965571e-01 9.312544e-01 1.025731e+00 1.159325e+00 1.321518e+00 1.968306e+00 2.257844e+00 1.683048e+00 1.314443e+00 1.378942e+00 1.516484e+00 1.378942e+00 1.314443e+00 1.683048e+00 2.257844e+00 1.968306e+00 1.321518e+00 1.159325e+00 1.025731e+00 9.312544e-01 7.965571e-01 7.425958e-01 6.866869e-01 7.568391e-01 9.107680e-01 1.046730e+00 
1.336186e+00 1.228966e+00 1.036969e+00 7.831279e-01 6.312979e-01 6.309577e-01 6.596315e-01 7.788227e-01 9.427537e-01 7.854144e-01 9.678691e-01 7.989427e-01 8.446787e-01 1.631169e+00 1.356094e+00 8.146429e-01 4.251215e-01 8.146429e-01 1.356094e+00 1.631169e+00 8.446787e-01 7.989427e-01 9.678691e-01 7.854144e-01 9.427537e-01 7.788227e-01 6.596315e-01 6.309577e-01 6.312979e-01 7.831279e-01 1.036969e+00 1.228966e+00 
1.506754e+00 1.377738e+00 1.134042e+00 7.814020e-01 5.345583e-01 4.634607e-01 4.552014e-01 6.620918e-01 5.428278e-01 3.544522e-01 3.105149e-01 1.005622e+00 1.309800e+00 6.583058e-01 3.260031e-01 5.501420e-01 6.212457e-01 5.501420e-01 3.260031e-01 6.583058e-01 1.309800e+00 1.005622e+00 3.105149e-01 3.544522e-01 5.428278e-01 6.620918e-01 4.552014e-01 4.634607e-01 5.345583e-01 7.814020e-01 1.134042e+00 1.377738e+00 
1.601091e+00 1.458934e+00 1.186147e+00 7.588925e-01 4.465335e-01 2.044058e-01 1.358921e-01 2.203822e-01 1.179422e+00 8.780395e-01 2.144977e-01 8.071515e-01 5.226862e-01 4.703251e-01 5.036329e-01 7.014045e-01 8.968670e-01 7.014045e-01 5.036329e-01 4.703251e-01 5.226862e-01 8.071515e-01 2.144977e-01 8.780395e-01 1.179422e+00 2.203822e-01 1.358921e-01 2.044058e-01 4.465335e-01 7.588925e-01 1.186147e+00 1.458934e+00 
1.600636e+00 1.462191e+00 1.190703e+00 7.508443e-01 4.578699e-01 2.910267e-01 4.363940e-01 9.757058e-01 1.908332e+00 4.799636e-01 4.487816e-01 1.343479e+00 7.063998e-01 6.677281e-01 4.303012e-01 5.690410e-01 6.185598e-01 5.690410e-01 4.303012e-01 6.677281e-01 7.063998e-01 1.343479e+00 4.487816e-01 4.799636e-01 1.908332e+00 9.757058e-01 4.363940e-01 2.910267e-01 4.578699e-01 7.508443e-01 1.190703e+00 1.462191e+00 
1.462808e+00 1.357673e+00 1.145189e+00 8.422469e-01 6.354999e-01 7.220259e-01 7.122176e-01 1.719666e+00 1.211857e+00 6.293324e-01 9.612737e-01 1.025035e+00 5.043012e-01 4.297838e-01 3.358949e-01 4.422766e-01 4.569922e-01 4.422766e-01 3.358949e-01 4.297838e-01 5.043012e-01 1.025035e+00 9.612737e-01 6.293324e-01 1.211857e+00 1.719666e+00 7.122176e-01 7.220259e-01 6.354999e-01 8.422469e-01 1.145189e+00 1.357673e+00 
1.171941e+00 1.154768e+00 1.130637e+00 1.127371e+00 1.099725e+00 1.218781e+00 1.172569e+00 1.667673e+00 5.484384e-01 6.748852e-01 1.415610e+00 7.942488e-01 4.727437e-01 3.949352e-01 3.223261e-01 3.028281e-01 2.456456e-01 3.028281e-01 3.223261e-01 3.949352e-01 4.727437e-01 7.942488e-01 1.415610e+00 6.748852e-01 5.484384e-01 1.667673e+00 1.172569e+00 1.218781e+00 1.099725e+00 1.127371e+00 1.130637e+00 1.154768e+00 
6.749020e-01 8.563336e-01 1.192238e+00 1.490756e+00 1.639469e+00 1.679617e+00 1.627526e+00 1.373145e+00 6.166674e-01 1.394085e+00 1.320651e+00 4.077878e-01 4.281995e-01 2.349127e-01 2.438094e-01 1.572719e-01 9.731293e-02 1.572719e-01 2.438094e-01 2.349127e-01 4.281995e-01 4.077878e-01 1.320651e+00 1.394085e+00 6.166674e-01 1.373145e+00 1.627526e+00 1.679617e+00 1.639469e+00 1.490756e+00 1.192238e+00 8.563336e-01 
3.164619e-14 6.749020e-01 1.248913e+00 1.661088e+00 1.843130e+00 1.814854e+00 1.670453e+00 9.572167e-01 3.511461e-01 1.368334e+00 7.979531e-01 7.524112e-02 2.523576e-01 1.152560e-01 1.964588e-01 9.731293e-02 4.064763e-14 9.731293e-02 1.964588e-01 1.152560e-01 2.523576e-01 7.524112e-02 7.979531e-01 1.368334e+00 3.511461e-01 9.572167e-01 1.670453e+00 1.814854e+00 1.843130e+00 1.661088e+00 1.248913e+00 6.749020e-01 
6.749020e-01 8.563336e-01 1.192238e+00 1.490756e+00 1.639469e+00 1.679617e+00 1.627526e+00 1.373145e+00 6.166674e-01 1.394085e+00 1.320651e+00 4.077878e-01 4.281995e-01 2.349127e-01 2.438094e-01 1.572719e-01 9.731293e-02 1.572719e-01 2.438094e-01 2.349127e-01 4.281995e-01 4.077878e-01 1.320651e+00 1.394085e+00 6.166674e-01 1.373145e+00 1.627526e+00 1.679617e+00 1.639469e+00 1.490756e+00 1.192238e+00 8.563336e-01 
1.171941e+00 1.154768e+00 1.130637e+00 1.127371e+00 1.099725e+00 1.218781e+00 1.172569e+00 1.667673e+00 5.484384e-01 6.748852e-01 1.415610e+00 7.942488e-01 4.727437e-01 3.949352e-01 3.223261e-01 3.028281e-01 2.456456e-01 3.028281e-01 3.223261e-01 3.949352e-01 4.727437e-01 7.942488e-01 1.415610e+00 6.748852e-01 5.484384e-01 1.667673e+00 1.172569e+00 1.218781e+00 1.099725e+00 1.127371e+00 1.130637e+00 1.154768e+00 
1.462808e+00 1.357673e+00 1.145189e+00 8.422469e-01 6.354999e-01 7.220259e-01 7.122176e-01 1.719666e+00 1.211857e+00 6.293324e-01 9.612737e-01 1.025035e+00 5.043012e-01 4.297838e-01 3.358949e-01 4.422766e-01 4.569922e-01 4.422766e-01 3.358949e-01 4.297838e-01 5.043012e-01 1.025035e+00 9.612737e-01 6.293324e-01 1.211857e+00 1.719666e+00 7.122176e-01 7.220259e-01 6.354999e-01 8.422469e-01 1.145189e+00 1.357673e+00 
1.600636e+00 1.462191e+00 1.190703e+00 7.508443e-01 4.578699e-01 2.910267e-01 4.363940e-01 9.757058e-01 1.908332e+00 4.799636e-01 4.487816e-01 1.343479e+00 7.063998e-01 6.677281e-01 4.303012e-01 5.690410e-01 6.185598e-01 5.690410e-01 4.303012e-01 6.677281e-01 7.063998e-01 1.343479e+00 4.487816e-01 4.799636e-01 1.908332e+00 9.757058e-01 4.363940e-01 2.910267e-01 4.578699e-01 7.508443e-01 1.190703e+00 1.462191e+00 
1.601091e+00 1.458934e+00 1.186147e+00 7.588925e-01 4.465335e-01 2.044058e-01 1.358921e-01 2.203822e-01 1.179422e+00 8.780395e-01 2.144977e-01 8.071515e-01 5.226862e-01 4.703251e-01 5.036329e-01 7.014045e-01 8.968670e-01 7.014045e-01 5.036329e-01 4.703251e-01 5.226862e-01 8.071515e-01 2.144977e-01 8.780395e-01 1.179422e+00 2.203822e-01 1.358921e-01 2.044058e-01 4.465335e-01 7.588925e-01 1.186147e+00 1.458934e+00 
1.506754e+00 1.377738e+00 1.134042e+00 7.814020e-01 5.345583e-01 4.634607e-01 4.552014e-01 6.620918e-01 5.428278e-01 3.544522e-01 3.105149e-01 1.005622e+00 1.309800e+00 6.583058e-01 3.260031e-01 5.501420e-01 6.212457e-01 5.501420e-01 3.260031e-01 6.583058e-01 1.309800e+00 1.005622e+00 3.105149e-01 3.544522e-01 5.428278e-01 6.620918e-01 4.552014e-01 4.634607e-01 5.345583e-01 7.814020e-01 1.134042e+00 1.377738e+00 
1.336186e+00 1.228966e+00 1.036969e+00 7.831279e-01 6.312979e-01 6.309577e-01 6.596315e-01 7.788227e-01 9.427537e-01 7.854144e-01 9.678691e-01 7.989427e-01 8.446787e-01 1.631169e+00 1.356094e+00 8.146429e-01 4.251215e-01 8.146429e-01 1.356094e+00 1.631169e+00 8.446787e-01 7.989427e-01 9.678691e-01 7.854144e-01 9.427537e-01 7.788227e-01 6.596315e-01 6.309577e-01 6.312979e-01 7.831279e-01 1.036969e+00 1.228966e+00 
1.126510e+00 1.046730e+00 9.107680e-01 7.568391e-01 6.866869e-01 7.425958e-01 7.965571e-01 9.312544e-01 1.025731e+00 1.159325e+00 1.321518e+00 1.968306e+00 2.257844e+00 1.683048e+00 1.314443e+00 1.378942e+00 1.516484e+00 1.378942e+00 1.314443e+00 1.683048e+00 2.257844e+00 1.968306e+00 1.321518e+00 1.159325e+00 1.025731e+00 9.312544e-01 7.965571e-01 7.425958e-01 6.866869e-01 7.568391e-01 9.107680e-01 1.046730e+00 
8.946348e-01 8.397411e-01 7.581928e-01 6.834859e-01 6.745199e-01 7.521554e-01 8.255153e-01 9.365980e-01 1.031031e+00 1.139482e+00 1.187405e+00 1.373888e+00 1.860086e+00 2.242491e+00 2.329244e+00 1.439225e+00 2.287614e-01 1.439225e+00 2.329244e+00 2.242491e+00 1.860086e+00 1.373888e+00 1.187405e+00 1.139482e+00 1.031031e+00 9.365980e-01 8.255153e-01 7.521554e-01 6.745199e-01 6.834859e-01 7.581928e-01 8.397411e-01 
6.775412e-01 6.451203e-01 6.070317e-01 5.909384e-01 6.188893e-01 7.091445e-01 7.885315e-01 8.927374e-01 9.738015e-01 1.038787e+00 1.118403e+00 1.090225e+00 1.023375e+00 9.386015e-01 8.865243e-01 1.250540e+00 1.290765e+00 1.250540e+00 8.865243e-01 9.386015e-01 1.023375e+00 1.090225e+00 1.118403e+00 1.038787e+00 9.738015e-01 8.927374e-01 7.885315e-01 7.091445e-01 6.188893e-01 5.909384e-01 6.070317e-01 6.451203e-01 
4.771599e-01 4.608681e-01 4.538985e-01 4.728121e-01 5.214154e-01 6.125264e-01 6.961177e-01 7.872926e-01 8.558016e-01 8.943947e-01 9.113617e-01 8.784952e-01 8.290556e-01 6.351849e-01 5.715841e-01 1.208981e+00 1.532803e+00 1.208981e+00 5.715841e-01 6.351849e-01 8.290556e-01 8.784952e-01 9.113617e-01 8.943947e-01 8.558016e-01 7.872926e-01 6.961177e-01 6.125264e-01 5.214154e-01 4.728121e-01 4.538985e-01 4.608681e-01 
3.211632e-01 3.159710e-01 3.254451e-01 3.573844e-01 4.046601e-01 4.813539e-01 5.488163e-01 6.130270e-01 6.467768e-01 6.327516e-01 5.807081e-01 4.495014e-01 2.457355e-01 4.910363e-02 5.185315e-01 1.163460e+00 1.500890e+00 1.163460e+00 5.185315e-01 4.910363e-02 2.457355e-01 4.495014e-01 5.807081e-01 6.327516e-01 6.467768e-01 6.130270e-01 5.488163e-01 4.813539e-01 4.046601e-01 3.573844e-01 3.254451e-01 3.159710e-01 
1.945777e-01 1.973410e-01 2.169605e-01 2.525379e-01 2.929865e-01 3.534969e-01 4.100003e-01 4.623480e-01 4.940730e-01 4.867075e-01 4.423811e-01 3.523339e-01 2.452401e-01 3.493728e-01 7.157922e-01 1.126544e+00 1.314062e+00 1.126544e+00 7.157922e-01 3.493728e-01 2.452401e-01 3.523339e-01 4.423811e-01 4.867075e-01 4.940730e-01 4.623480e-01 4.100003e-01 3.534969e-01 2.929865e-01 2.525379e-01 2.169605e-01 1.973410e-01 
1.102094e-01 1.183402e-01 1.389526e-01 1.624734e-01 1.780029e-01 2.101251e-01 2.580490e-01 3.283454e-01 4.175531e-01 5.066276e-01 5.928987e-01 6.614625e-01 7.119572e-01 7.482559e-01 8.027576e-01 9.003859e-01 9.581700e-01 9.003859e-01 8.027576e-01 7.482559e-01 7.119572e-01 6.614625e-01 5.928987e-01 5.066276e-01 4.175531e-01 3.283454e-01 2.580490e-01 2.101251e-01 1.780029e-01 1.624734e-01 1.389526e-01 1.183402e-01 
4.650241e-02 6.668229e-02 9.378415e-02 1.076348e-01 9.650763e-02 1.042217e-01 1.772083e-01 3.022701e-01 4.644945e-01 6.326579e-01 7.946000e-01 9.225239e-01 9.909085e-01 9.744224e-01 8.609888e-01 6.612096e-01 5.255532e-01 6.612096e-01 8.609888e-01 9.744224e-01 9.909085e-01 9.225239e-01 7.946000e-01 6.326579e-01 4.644945e-01 3.022701e-01 1.772083e-01 1.042217e-01 9.650763e-02 1.076348e-01 9.378415e-02 6.668229e-02 
