# vtk DataFile Version 2.0
Comment goes here
ASCII

DATASET STRUCTURED_POINTS
FIELD FieldData 1
TIME 1 1 double
1.08000000
DIMENSIONS    32   32   1

ORIGIN    0.000   0.000   0.000
SPACING   0.03125 0.03125   1.000

POINT_DATA   1024
SCALARS uMag double
LOOKUP_TABLE default

4.421486e-14 1.612564e-02 5.071968e-02 1.118182e-01 2.170660e-01 3.589039e-01 5.481299e-01 7.585493e-01 9.908443e-01 1.197979e+00 1.379249e+00 1.473013e+00 1.491021e+00 1.362691e+00 1.101699e+00 6.326062e-01 1.660835e-13 6.326062e-01 1.101699e+00 1.362691e+00 1.491021e+00 1.473013e+00 1.379249e+00 1.197979e+00 9.908443e-01 7.585493e-01 5.481299e-01 3.589039e-01 2.170660e-01 1.118182e-01 5.071968e-02 1.612564e-02 
1.612564e-02 2.673478e-02 5.944760e-02 1.210953e-01 2.212212e-01 3.542232e-01 5.271817e-01 7.156785e-01 9.212625e-01 1.099711e+00 1.256576e+00 1.334238e+00 1.354009e+00 1.255296e+00 1.079118e+00 8.018926e-01 6.326062e-01 8.018926e-01 1.079118e+00 1.255296e+00 1.354009e+00 1.334238e+00 1.256576e+00 1.099711e+00 9.212625e-01 7.156785e-01 5.271817e-01 3.542232e-01 2.212212e-01 1.210953e-01 5.944760e-02 2.673478e-02 
1.692653e-02 3.756801e-02 7.981383e-02 1.505110e-01 2.466781e-01 3.680868e-01 5.105902e-01 6.590116e-01 8.083117e-01 9.318782e-01 1.035964e+00 1.081250e+00 1.101058e+00 1.057702e+00 1.052939e+00 1.116281e+00 1.165499e+00 1.116281e+00 1.052939e+00 1.057702e+00 1.101058e+00 1.081250e+00 1.035964e+00 9.318782e-01 8.083117e-01 6.590116e-01 5.105902e-01 3.680868e-01 2.466781e-01 1.505110e-01 7.981383e-02 3.756801e-02 
9.689447e-03 4.838124e-02 1.105209e-01 2.011764e-01 3.051603e-01 4.224988e-01 5.353708e-01 6.319114e-01 6.966208e-01 7.196238e-01 7.124336e-01 6.709748e-01 6.684084e-01 7.517074e-01 1.037685e+00 1.400450e+00 1.559630e+00 1.400450e+00 1.037685e+00 7.517074e-01 6.684084e-01 6.709748e-01 7.124336e-01 7.196238e-01 6.966208e-01 6.319114e-01 5.353708e-01 4.224988e-01 3.051603e-01 2.011764e-01 1.105209e-01 4.838124e-02 
7.217020e-02 9.036114e-02 1.557614e-01 2.620057e-01 3.767399e-01 4.973569e-01 5.935589e-01 6.594238e-01 6.606277e-01 6.088414e-01 4.949892e-01 3.676169e-01 3.768452e-01 5.497554e-01 9.906922e-01 1.526422e+00 1.713551e+00 1.526422e+00 9.906922e-01 5.497554e-01 3.768452e-01 3.676169e-01 4.949892e-01 6.088414e-01 6.606277e-01 6.594238e-01 5.935589e-01 4.973569e-01 3.767399e-01 2.620057e-01 1.557614e-01 9.036114e-02 
1.778866e-01 1.747951e-01 2.167614e-01 3.274550e-01 4.618428e-01 5.997863e-01 7.064675e-01 7.694621e-01 7.532961e-01 6.647845e-01 4.629378e-01 1.806404e-01 2.179954e-01 6.350615e-01 1.104844e+00 1.576276e+00 1.690502e+00 1.576276e+00 1.104844e+00 6.350615e-01 2.179954e-01 1.806404e-01 4.629378e-01 6.647845e-01 7.532961e-01 7.694621e-01 7.064675e-01 5.997863e-01 4.618428e-01 3.274550e-01 2.167614e-01 1.747951e-01 
3.161633e-01 2.962815e-01 3.027882e-01 3.977704e-01 5.390495e-01 6.873849e-01 7.935935e-01 8.487983e-01 8.104029e-01 7.063723e-01 4.529872e-01 5.019692e-02 3.669382e-01 6.271190e-01 1.040297e+00 1.493962e+00 1.480684e+00 1.493962e+00 1.040297e+00 6.271190e-01 3.669382e-01 5.019692e-02 4.529872e-01 7.063723e-01 8.104029e-01 8.487983e-01 7.935935e-01 6.873849e-01 5.390495e-01 3.977704e-01 3.027882e-01 2.962815e-01 
4.965280e-01 4.501324e-01 3.942257e-01 4.347742e-01 5.788884e-01 7.488950e-01 8.855734e-01 9.545042e-01 9.511638e-01 8.608683e-01 6.074982e-01 3.039512e-01 8.859683e-01 1.686910e+00 1.672990e+00 1.324010e+00 7.588732e-01 1.324010e+00 1.672990e+00 1.686910e+00 8.859683e-01 3.039512e-01 6.074982e-01 8.608683e-01 9.511638e-01 9.545042e-01 8.855734e-01 7.488950e-01 5.788884e-01 4.347742e-01 3.942257e-01 4.501324e-01 
6.753625e-01 6.077103e-01 4.930768e-01 4.721472e-01 6.074051e-01 8.006232e-01 9.543893e-01 1.023544e+00 1.016078e+00 1.006160e+00 4.820260e-01 1.115864e+00 1.812827e+00 1.277441e+00 3.500160e-01 3.224297e-01 5.119699e-02 3.224297e-01 3.500160e-01 1.277441e+00 1.812827e+00 1.115864e+00 4.820260e-01 1.006160e+00 1.016078e+00 1.023544e+00 9.543893e-01 8.006232e-01 6.074051e-01 4.721472e-01 4.930768e-01 6.077103e-01 
8.803573e-01 7.835446e-01 5.945630e-01 4.501882e-01 5.432888e-01 7.659829e-01 9.733556e-01 1.074302e+00 1.182422e+00 1.030349e+00 2.924699e-01 8.707911e-01 4.607731e-01 7.846457e-01 8.296012e-01 1.227143e+00 1.100514e+00 1.227143e+00 8.296012e-01 7.846457e-01 4.607731e-01 8.707911e-01 2.924699e-01 1.030349e+00 1.182422e+00 1.074302e+00 9.733556e-01 7.659829e-01 5.432888e-01 4.501882e-01 5.945630e-01 7.835446e-01 
1.027379e+00 9.099852e-01 6.614242e-01 4.214042e-01 4.889048e-01 7.677686e-01 1.027628e+00 1.052589e+00 1.262194e+00 1.148290e+00 3.444560e-01 2.911955e-01 2.767084e-01 6.490847e-01 1.192939e+00 1.272101e+00 7.012998e-01 1.272101e+00 1.192939e+00 6.490847e-01 2.767084e-01 2.911955e-01 3.444560e-01 1.148290e+00 1.262194e+00 1.052589e+00 1.027628e+00 7.677686e-01 4.889048e-01 4.214042e-01 6.614242e-01 9.099852e-01 
1.174260e+00 1.036604e+00 7.483230e-01 3.701263e-01 2.960997e-01 6.219247e-01 8.967017e-01 9.722699e-01 1.742523e+00 1.328653e+00 7.861956e-01 6.973440e-01 1.041454e+00 8.587245e-01 7.805025e-01 3.659919e-01 2.481312e-01 3.659919e-01 7.805025e-01 8.587245e-01 1.041454e+00 6.973440e-01 7.861956e-01 1.328653e+00 1.742523e+00 9.722699e-01 8.967017e-01 6.219247e-01 2.960997e-01 3.701263e-01 7.483230e-01 1.036604e+00 
1.193107e+00 1.051218e+00 7.570494e-01 3.028084e-01 1.347661e-01 6.549172e-01 1.002133e+00 1.351294e+00 1.990707e+00 4.108375e-01 1.288194e+00 3.416924e-01 5.180330e-01 4.576698e-01 3.679689e-01 3.697740e-01 1.269392e-01 3.697740e-01 3.679689e-01 4.576698e-01 5.180330e-01 3.416924e-01 1.288194e+00 4.108375e-01 1.990707e+00 1.351294e+00 1.002133e+00 6.549172e-01 1.347661e-01 3.028084e-01 7.570494e-01 1.051218e+00 
1.154803e+00 1.035336e+00 8.184383e-01 4.447102e-01 1.812463e-01 4.894418e-01 6.441982e-01 1.730041e+00 2.084740e+00 1.071438e+00 9.073648e-01 2.666006e-01 6.111238e-01 3.162190e-01 3.033935e-01 1.567209e-01 6.360047e-03 1.567209e-01 3.033935e-01 3.162190e-01 6.111238e-01 2.666006e-01 9.073648e-01 1.071438e+00 2.084740e+00 1.730041e+00 6.441982e-01 4.894418e-01 1.812463e-01 4.447102e-01 8.184383e-01 1.035336e+00 
9.176061e-01 8.757542e-01 8.458471e-01 7.672351e-01 6.487167e-01 6.530732e-01 6.156731e-01 2.010646e+00 1.393066e+00 1.404051e+00 3.264816e-01 4.359614e-01 3.535552e-01 2.086545e-01 2.602840e-01 1.886292e-01 1.352792e-01 1.886292e-01 2.602840e-01 2.086545e-01 3.535552e-01 4.359614e-01 3.264816e-01 1.404051e+00 1.393066e+00 2.010646e+00 6.156731e-01 6.530732e-01 6.487167e-01 7.672351e-01 8.458471e-01 8.757542e-01 
5.433439e-01 6.765595e-01 9.210496e-01 1.154996e+00 1.201209e+00 1.314147e+00 1.079887e+00 1.469934e+00 1.108819e+00 8.508635e-01 2.506929e-01 6.102878e-01 4.249063e-01 3.444306e-01 2.380933e-01 1.110432e-01 6.174752e-02 1.110432e-01 2.380933e-01 3.444306e-01 4.249063e-01 6.102878e-01 2.506929e-01 8.508635e-01 1.108819e+00 1.469934e+00 1.079887e+00 1.314147e+00 1.201209e+00 1.154996e+00 9.210496e-01 6.765595e-01 
1.128198e-13 5.433439e-01 9.944496e-01 1.379663e+00 1.567512e+00 1.717287e+00 1.343546e+00 5.274114e-01 1.190610e+00 2.887485e-01 7.004258e-02 7.435861e-01 4.372776e-01 3.575475e-01 1.761303e-01 6.174752e-02 1.009020e-13 6.174752e-02 1.761303e-01 3.575475e-01 4.372776e-01 7.435861e-01 7.004258e-02 2.887485e-01 1.190610e+00 5.274114e-01 1.343546e+00 1.717287e+00 1.567512e+00 1.379663e+00 9.944496e-01 5.433439e-01 
5.433439e-01 6.765595e-01 9.210496e-01 1.154996e+00 1.201209e+00 1.314147e+00 1.079887e+00 1.469934e+00 1.108819e+00 8.508635e-01 2.506929e-01 6.102878e-01 4.249063e-01 3.444306e-01 2.380933e-01 1.110432e-01 6.174752e-02 1.110432e-01 2.380933e-01 3.444306e-01 4.249063e-01 6.102878e-01 2.506929e-01 8.508635e-01 1.108819e+00 1.469934e+00 1.079887e+00 1.314147e+00 1.201209e+00 1.154996e+00 9.210496e-01 6.765595e-01 
9.176061e-01 8.757542e-01 8.458471e-01 7.672351e-01 6.487167e-01 6.530732e-01 6.156731e-01 2.010646e+00 1.393066e+00 1.404051e+00 3.264816e-01 4.359614e-01 3.535552e-01 2.086545e-01 2.602840e-01 1.886292e-01 1.352792e-01 1.886292e-01 2.602840e-01 2.086545e-01 3.535552e-01 4.359614e-01 3.264816e-01 1.404051e+00 1.393066e+00 2.010646e+00 6.156731e-01 6.530732e-01 6.487167e-01 7.672351e-01 8.458471e-01 8.757542e-01 
1.154803e+00 1.035336e+00 8.184383e-01 4.447102e-01 1.812463e-01 4.894418e-01 6.441982e-01 1.730041e+00 2.084740e+00 1.071438e+00 9.073648e-01 2.666006e-01 6.111238e-01 3.162190e-01 3.033935e-01 1.567209e-01 6.360047e-03 1.567209e-01 3.033935e-01 3.162190e-01 6.111238e-01 2.666006e-01 9.073648e-01 1.071438e+00 2.084740e+00 1.730041e+00 6.441982e-01 4.894418e-01 1.812463e-01 4.447102e-01 8.184383e-01 1.035336e+00 
1.193107e+00 1.051218e+00 7.570494e-01 3.028084e-01 1.347661e-01 6.549172e-01 1.002133e+00 1.351294e+00 1.990707e+00 4.108375e-01 1.288194e+00 3.416924e-01 5.180330e-01 4.576698e-01 3.679689e-01 3.697740e-01 1.269392e-01 3.697740e-01 3.679689e-01 4.576698e-01 5.180330e-01 3.416924e-01 1.288194e+00 4.108375e-01 1.990707e+00 1.351294e+00 1.002133e+00 6.549172e-01 1.347661e-01 3.028084e-01 7.570494e-01 1.051218e+00 
1.174260e+00 1.036604e+00 7.483230e-01 3.701263e-01 2.960997e-01 6.219247e-01 8.967017e-01 9.722699e-01 1.742523e+00 1.328653e+00 7.861956e-01 6.973440e-01 1.041454e+00 8.587245e-01 7.805025e-01 3.659919e-01 2.481312e-01 3.659919e-01 7.805025e-01 8.587245e-01 1.041454e+00 6.973440e-01 7.861956e-01 1.328653e+00 1.742523e+00 9.722699e-01 8.967017e-01 6.219247e-01 2.960997e-01 3.701263e-01 7.483230e-01 1.036604e+00 
1.027379e+00 9.099852e-01 6.614242e-01 4.214042e-01 4.889048e-01 7.677686e-01 1.027628e+00 1.052589e+00 1.262194e+00 1.148290e+00 3.444560e-01 2.911955e-01 2.767084e-01 6.490847e-01 1.192939e+00 1.272101e+00 7.012998e-01 1.272101e+00 1.192939e+00 6.490847e-01 2.767084e-01 2.911955e-01 3.444560e-01 1.148290e+00 1.262194e+00 1.052589e+00 1.027628e+00 7.677686e-01 4.889048e-01 4.214042e-01 6.614242e-01 9.099852e-01 
8.803573e-01 7.835446e-01 5.945630e-01 4.501882e-01 5.432888e-01 7.659829e-01 9.733556e-01 1.074302e+00 1.182422e+00 1.030349e+00 2.924699e-01 8.707911e-01 4.607731e-01 7.846457e-01 8.296012e-01 1.227143e+00 1.100514e+00 1.227143e+00 8.296012e-01 7.846457e-01 4.607731e-01 8.707911e-01 2.924699e-01 1.030349e+00 1.182422e+00 1.074302e+00 9.733556e-01 7.659829e-01 5.432888e-01 4.501882e-01 5.945630e-01 7.835446e-01 
6.753625e-01 6.077103e-01 4.930768e-01 4.721472e-01 6.074051e-01 8.006232e-01 9.543893e-01 1.023544e+00 1.016078e+00 1.006160e+00 4.820260e-01 1.115864e+00 1.812827e+00 1.277441e+00 3.500160e-01 3.224297e-01 5.119699e-02 3.224297e-01 3.500160e-01 1.277441e+00 1.812827e+00 1.115864e+00 4.820260e-01 1.006160e+00 1.016078e+00 1.023544e+00 9.543893e-01 8.006232e-01 6.074051e-01 4.721472e-01 4.930768e-01 6.077103e-01 
4.965280e-01 4.501324e-01 3.942257e-01 4.347742e-01 5.788884e-01 7.488950e-01 8.855734e-01 9.545042e-01 9.511638e-01 8.608683e-01 6.074982e-01 3.039512e-01 8.859683e-01 1.686910e+00 1.672990e+00 1.324010e+00 7.588732e-01 1.324010e+00 1.672990e+00 1.686910e+00 8.859683e-01 3.039512e-01 6.074982e-01 8.608683e-01 9.511638e-01 9.545042e-01 8.855734e-01 7.488950e-01 5.788884e-01 4.347742e-01 3.942257e-01 4.501324e-01 
3.161633e-01 2.962815e-01 3.027882e-01 3.977704e-01 5.390495e-01 6.873849e-01 7.935935e-01 8.487983e-01 8.104029e-01 7.063723e-01 4.529872e-01 5.019692e-02 3.669382e-01 6.271190e-01 1.040297e+00 1.493962e+00 1.480684e+00 1.493962e+00 1.040297e+00 6.271190e-01 3.669382e-01 5.019692e-02 4.529872e-01 7.063723e-01 8.104029e-01 8.487983e-01 7.935935e-01 6.873849e-01 5.390495e-01 3.977704e-01 3.027882e-01 2.962815e-01 
1.778866e-01 1.747951e-01 2.167614e-01 3.274550e-01 4.618428e-01 5.997863e-01 7.064675e-01 7.694621e-01 7.532961e-01 6.647845e-01 4.629378e-01 1.806404e-01 2.179954e-01 6.350615e-01 1.104844e+00 1.576276e+00 1.690502e+00 1.576276e+00 1.104844e+00 6.350615e-01 2.179954e-01 1.806404e-01 4.629378e-01 6.647845e-01 7.532961e-01 7.694621e-01 7.064675e-01 5.997863e-01 4.618428e-01 3.274550e-01 2.167614e-01 1.747951e-01 
7.217020e-02 9.036114e-02 1.557614e-01 2.620057e-01 3.767399e-01 4.973569e-01 5.935589e-01 6.594238e-01 6.606277e-01 6.088414e-01 4.949892e-01 3.676169e-01 3.768452e-01 5.497554e-01 9.906922e-01 1.526422e+00 1.713551e+00 1.526422e+00 9.906922e-01 5.497554e-01 3.768452e-01 3.676169e-01 4.949892e-01 6.088414e-01 6.606277e-01 6.594238e-01 5.935589e-01 4.973569e-01 3.767399e-01 2.620057e-01 1.557614e-01 9.036114e-02 
9.689447e-03 4.838124e-02 1.105209e-01 2.011764e-01 3.051603e-01 4.224988e-01 5.353708e-01 6.319114e-01 6.966208e-01 7.196238e-01 7.124336e-01 6.709748e-01 6.684084e-01 7.517074e-01 1.037685e+00 1.400450e+00 1.559630e+00 1.400450e+00 1.037685e+00 7.517074e-01 6.684084e-01 6.709748e-01 7.124336e-01 7.196238e-01 6.966208e-01 6.319114e-01 5.353708e-01 4.224988e-01 3.051603e-01 2.011764e-01 1.105209e-01 4.838124e-02 
1.692653e-02 3.756801e-02 7.981383e-02 1.505110e-01 2.466781e-01 3.680868e-01 5.105902e-01 6.590116e-01 8.083117e-01 9.318782e-01 1.035964e+00 1.081250e+00 1.101058e+00 1.057702e+00 1.052939e+00 1.116281e+00 1.165499e+00 1.116281e+00 1.052939e+00 1.057702e+00 1.101058e+00 1.081250e+00 1.035964e+00 9.318782e-01 8.083117e-01 6.590116e-01 5.105902e-01 3.680868e-01 2.466781e-01 1.505110e-01 7.981383e-02 3.756801e-02 
1.612564e-02 2.673478e-02 5.944760e-02 1.210953e-01 2.212212e-01 3.542232e-01 5.271817e-01 7.156785e-01 9.212625e-01 1.099711e+00 1.256576e+00 1.334238e+00 1.354009e+00 1.255296e+00 1.079118e+00 8.018926e-01 6.326062e-01 8.018926e-01 1.079118e+00 1.255296e+00 1.354009e+00 1.334238e+00 1.256576e+00 1.099711e+00 9.212625e-01 7.156785e-01 5.271817e-01 3.542232e-01 2.212212e-01 1.210953e-01 5.944760e-02 2.673478e-02 
