# vtk DataFile Version 2.0
Comment goes here
ASCII

DATASET STRUCTURED_POINTS
FIELD FieldData 1
TIME 1 1 double
0.22000000
DIMENSIONS    32   32   1

ORIGIN    0.000   0.000   0.000
SPACING   0.03125 0.03125   1.000

POINT_DATA   1024
SCALARS uMag double
LOOKUP_TABLE default

2.244394e-15 1.477851e-01 2.932343e-01 4.320744e-01 5.628632e-01 6.771904e-01 7.732855e-01 8.374366e-01 8.656568e-01 8.400807e-01 7.596490e-01 5.946860e-01 3.638643e-01 4.171801e-02 2.359486e-01 4.365321e-01 2.676558e-14 4.365321e-01 2.359486e-01 4.171801e-02 3.638643e-01 5.946860e-01 7.596490e-01 8.400807e-01 8.656568e-01 8.374366e-01 7.732855e-01 6.771904e-01 5.628632e-01 4.320744e-01 2.932343e-01 1.477851e-01 
1.477851e-01 2.091781e-01 3.285127e-01 4.571382e-01 5.831056e-01 6.950045e-01 7.916472e-01 8.566389e-01 8.906124e-01 8.723256e-01 8.106398e-01 6.756056e-01 5.043020e-01 3.188863e-01 3.129186e-01 4.731046e-01 4.365321e-01 4.731046e-01 3.129186e-01 3.188863e-01 5.043020e-01 6.756056e-01 8.106398e-01 8.723256e-01 8.906124e-01 8.566389e-01 7.916472e-01 6.950045e-01 5.831056e-01 4.571382e-01 3.285127e-01 2.091781e-01 
2.983881e-01 3.335865e-01 4.193143e-01 5.283804e-01 6.430808e-01 7.515175e-01 8.482835e-01 9.199585e-01 9.624471e-01 9.658811e-01 9.339026e-01 8.616187e-01 7.532932e-01 6.458820e-01 6.257426e-01 5.102874e-01 9.163188e-01 5.102874e-01 6.257426e-01 6.458820e-01 7.532932e-01 8.616187e-01 9.339026e-01 9.658811e-01 9.624471e-01 9.199585e-01 8.482835e-01 7.515175e-01 6.430808e-01 5.283804e-01 4.193143e-01 3.335865e-01 
4.547995e-01 4.792797e-01 5.436032e-01 6.349919e-01 7.374814e-01 8.407880e-01 9.388932e-01 1.015373e+00 1.074551e+00 1.104210e+00 1.129783e+00 1.158721e+00 1.212682e+00 1.234614e+00 8.768693e-01 3.966102e-01 1.373881e+00 3.966102e-01 8.768693e-01 1.234614e+00 1.212682e+00 1.158721e+00 1.129783e+00 1.104210e+00 1.074551e+00 1.015373e+00 9.388932e-01 8.407880e-01 7.374814e-01 6.349919e-01 5.436032e-01 4.792797e-01 
6.186075e-01 6.372684e-01 6.887017e-01 7.678028e-01 8.601971e-01 9.616908e-01 1.061804e+00 1.146878e+00 1.231176e+00 1.296731e+00 1.387294e+00 1.500620e+00 1.644327e+00 1.767437e+00 1.385707e+00 8.796883e-01 1.117268e+00 8.796883e-01 1.385707e+00 1.767437e+00 1.644327e+00 1.500620e+00 1.387294e+00 1.296731e+00 1.231176e+00 1.146878e+00 1.061804e+00 9.616908e-01 8.601971e-01 7.678028e-01 6.887017e-01 6.372684e-01 
7.907206e-01 8.060633e-01 8.501030e-01 9.221032e-01 1.006684e+00 1.106544e+00 1.205645e+00 1.288176e+00 1.423993e+00 1.496634e+00 1.652218e+00 1.629769e+00 1.899906e+00 2.280449e+00 2.063496e+00 1.598241e+00 3.185696e-01 1.598241e+00 2.063496e+00 2.280449e+00 1.899906e+00 1.629769e+00 1.652218e+00 1.496634e+00 1.423993e+00 1.288176e+00 1.205645e+00 1.106544e+00 1.006684e+00 9.221032e-01 8.501030e-01 8.060633e-01 
9.719257e-01 9.830623e-01 1.021687e+00 1.086218e+00 1.162538e+00 1.262372e+00 1.357617e+00 1.473831e+00 1.679187e+00 1.729829e+00 1.707070e+00 1.827939e+00 2.123773e+00 2.459814e+00 2.374700e+00 1.955286e+00 2.044876e+00 1.955286e+00 2.374700e+00 2.459814e+00 2.123773e+00 1.827939e+00 1.707070e+00 1.729829e+00 1.679187e+00 1.473831e+00 1.357617e+00 1.262372e+00 1.162538e+00 1.086218e+00 1.021687e+00 9.830623e-01 
1.157283e+00 1.164545e+00 1.197380e+00 1.256490e+00 1.326075e+00 1.440353e+00 1.547586e+00 1.790231e+00 1.887507e+00 1.675373e+00 1.575583e+00 1.509330e+00 1.450046e+00 1.740010e+00 2.060040e+00 2.361799e+00 2.624312e+00 2.361799e+00 2.060040e+00 1.740010e+00 1.450046e+00 1.509330e+00 1.575583e+00 1.675373e+00 1.887507e+00 1.790231e+00 1.547586e+00 1.440353e+00 1.326075e+00 1.256490e+00 1.197380e+00 1.164545e+00 
1.350336e+00 1.346924e+00 1.369754e+00 1.413080e+00 1.486729e+00 1.634632e+00 1.841973e+00 2.095318e+00 1.627198e+00 1.051271e+00 8.559986e-01 1.149763e+00 1.713474e+00 2.242773e+00 2.071464e+00 1.916354e+00 2.103185e+00 1.916354e+00 2.071464e+00 2.242773e+00 1.713474e+00 1.149763e+00 8.559986e-01 1.051271e+00 1.627198e+00 2.095318e+00 1.841973e+00 1.634632e+00 1.486729e+00 1.413080e+00 1.369754e+00 1.346924e+00 
1.535178e+00 1.517467e+00 1.520169e+00 1.550906e+00 1.655747e+00 1.900826e+00 2.176589e+00 1.769597e+00 5.499469e-01 8.093328e-01 1.297327e+00 1.769828e+00 1.863929e+00 1.845398e+00 1.544779e+00 1.556811e+00 1.794458e+00 1.556811e+00 1.544779e+00 1.845398e+00 1.863929e+00 1.769828e+00 1.297327e+00 8.093328e-01 5.499469e-01 1.769597e+00 2.176589e+00 1.900826e+00 1.655747e+00 1.550906e+00 1.520169e+00 1.517467e+00 
1.720320e+00 1.672952e+00 1.640763e+00 1.645085e+00 1.803739e+00 2.138576e+00 1.931163e+00 4.117034e-01 1.054097e+00 1.424213e+00 1.850408e+00 1.658007e+00 1.267383e+00 1.470687e+00 1.612732e+00 1.921845e+00 2.168046e+00 1.921845e+00 1.612732e+00 1.470687e+00 1.267383e+00 1.658007e+00 1.850408e+00 1.424213e+00 1.054097e+00 4.117034e-01 1.931163e+00 2.138576e+00 1.803739e+00 1.645085e+00 1.640763e+00 1.672952e+00 
1.855029e+00 1.769689e+00 1.680770e+00 1.652822e+00 1.891917e+00 2.103842e+00 1.083104e+00 1.473738e+00 1.981176e+00 2.491443e+00 2.770860e+00 2.033032e+00 1.573091e+00 1.506001e+00 1.499868e+00 1.726279e+00 1.892360e+00 1.726279e+00 1.499868e+00 1.506001e+00 1.573091e+00 2.033032e+00 2.770860e+00 2.491443e+00 1.981176e+00 1.473738e+00 1.083104e+00 2.103842e+00 1.891917e+00 1.652822e+00 1.680770e+00 1.769689e+00 
1.924126e+00 1.791327e+00 1.653477e+00 1.588688e+00 1.934192e+00 1.797555e+00 1.812614e+00 2.501922e+00 2.826208e+00 3.409670e+00 2.872949e+00 2.062404e+00 1.737788e+00 1.430892e+00 1.293029e+00 1.435289e+00 1.559006e+00 1.435289e+00 1.293029e+00 1.430892e+00 1.737788e+00 2.062404e+00 2.872949e+00 3.409670e+00 2.826208e+00 2.501922e+00 1.812614e+00 1.797555e+00 1.934192e+00 1.588688e+00 1.653477e+00 1.791327e+00 
1.802623e+00 1.654494e+00 1.503895e+00 1.526927e+00 1.861950e+00 2.105293e+00 2.549886e+00 2.457644e+00 2.817887e+00 2.834730e+00 1.910206e+00 1.601586e+00 1.489505e+00 1.273675e+00 1.066938e+00 9.963725e-01 1.001392e+00 9.963725e-01 1.066938e+00 1.273675e+00 1.489505e+00 1.601586e+00 1.910206e+00 2.834730e+00 2.817887e+00 2.457644e+00 2.549886e+00 2.105293e+00 1.861950e+00 1.526927e+00 1.503895e+00 1.654494e+00 
1.456872e+00 1.385284e+00 1.386904e+00 1.645309e+00 1.988824e+00 2.552688e+00 2.505135e+00 2.170877e+00 2.419098e+00 1.868539e+00 1.039459e+00 9.887239e-01 1.014057e+00 8.894263e-01 7.341681e-01 6.056033e-01 5.504802e-01 6.056033e-01 7.341681e-01 8.894263e-01 1.014057e+00 9.887239e-01 1.039459e+00 1.868539e+00 2.419098e+00 2.170877e+00 2.505135e+00 2.552688e+00 1.988824e+00 1.645309e+00 1.386904e+00 1.385284e+00 
8.183133e-01 1.011349e+00 1.385940e+00 1.789456e+00 2.149475e+00 2.527925e+00 2.476350e+00 2.357445e+00 1.941646e+00 1.048691e+00 4.422384e-01 4.007102e-01 5.351023e-01 5.257553e-01 4.639728e-01 3.230844e-01 2.096690e-01 3.230844e-01 4.639728e-01 5.257553e-01 5.351023e-01 4.007102e-01 4.422384e-01 1.048691e+00 1.941646e+00 2.357445e+00 2.476350e+00 2.527925e+00 2.149475e+00 1.789456e+00 1.385940e+00 1.011349e+00 
5.889879e-15 8.183133e-01 1.403150e+00 1.806310e+00 2.135864e+00 2.388627e+00 2.391723e+00 2.421739e+00 1.580059e+00 4.989814e-01 1.602011e-01 1.447949e-01 3.146976e-01 3.541905e-01 3.383868e-01 2.096690e-01 2.907527e-15 2.096690e-01 3.383868e-01 3.541905e-01 3.146976e-01 1.447949e-01 1.602011e-01 4.989814e-01 1.580059e+00 2.421739e+00 2.391723e+00 2.388627e+00 2.135864e+00 1.806310e+00 1.403150e+00 8.183133e-01 
8.183133e-01 1.011349e+00 1.385940e+00 1.789456e+00 2.149475e+00 2.527925e+00 2.476350e+00 2.357445e+00 1.941646e+00 1.048691e+00 4.422384e-01 4.007102e-01 5.351023e-01 5.257553e-01 4.639728e-01 3.230844e-01 2.096690e-01 3.230844e-01 4.639728e-01 5.257553e-01 5.351023e-01 4.007102e-01 4.422384e-01 1.048691e+00 1.941646e+00 2.357445e+00 2.476350e+00 2.527925e+00 2.149475e+00 1.789456e+00 1.385940e+00 1.011349e+00 
1.456872e+00 1.385284e+00 1.386904e+00 1.645309e+00 1.988824e+00 2.552688e+00 2.505135e+00 2.170877e+00 2.419098e+00 1.868539e+00 1.039459e+00 9.887239e-01 1.014057e+00 8.894263e-01 7.341681e-01 6.056033e-01 5.504802e-01 6.056033e-01 7.341681e-01 8.894263e-01 1.014057e+00 9.887239e-01 1.039459e+00 1.868539e+00 2.419098e+00 2.170877e+00 2.505135e+00 2.552688e+00 1.988824e+00 1.645309e+00 1.386904e+00 1.385284e+00 
1.802623e+00 1.654494e+00 1.503895e+00 1.526927e+00 1.861950e+00 2.105293e+00 2.549886e+00 2.457644e+00 2.817887e+00 2.834730e+00 1.910206e+00 1.601586e+00 1.489505e+00 1.273675e+00 1.066938e+00 9.963725e-01 1.001392e+00 9.963725e-01 1.066938e+00 1.273675e+00 1.489505e+00 1.601586e+00 1.910206e+00 2.834730e+00 2.817887e+00 2.457644e+00 2.549886e+00 2.105293e+00 1.861950e+00 1.526927e+00 1.503895e+00 1.654494e+00 
1.924126e+00 1.791327e+00 1.653477e+00 1.588688e+00 1.934192e+00 1.797555e+00 1.812614e+00 2.501922e+00 2.826208e+00 3.409670e+00 2.872949e+00 2.062404e+00 1.737788e+00 1.430892e+00 1.293029e+00 1.435289e+00 1.559006e+00 1.435289e+00 1.293029e+00 1.430892e+00 1.737788e+00 2.062404e+00 2.872949e+00 3.409670e+00 2.826208e+00 2.501922e+00 1.812614e+00 1.797555e+00 1.934192e+00 1.588688e+00 1.653477e+00 1.791327e+00 
1.855029e+00 1.769689e+00 1.680770e+00 1.652822e+00 1.891917e+00 2.103842e+00 1.083104e+00 1.473738e+00 1.981176e+00 2.491443e+00 2.770860e+00 2.033032e+00 1.573091e+00 1.506001e+00 1.499868e+00 1.726279e+00 1.892360e+00 1.726279e+00 1.499868e+00 1.506001e+00 1.573091e+00 2.033032e+00 2.770860e+00 2.491443e+00 1.981176e+00 1.473738e+00 1.083104e+00 2.103842e+00 1.891917e+00 1.652822e+00 1.680770e+00 1.769689e+00 
1.720320e+00 1.672952e+00 1.640763e+00 1.645085e+00 1.803739e+00 2.138576e+00 1.931163e+00 4.117034e-01 1.054097e+00 1.424213e+00 1.850408e+00 1.658007e+00 1.267383e+00 1.470687e+00 1.612732e+00 1.921845e+00 2.168046e+00 1.921845e+00 1.612732e+00 1.470687e+00 1.267383e+00 1.658007e+00 1.850408e+00 1.424213e+00 1.054097e+00 4.117034e-01 1.931163e+00 2.138576e+00 1.803739e+00 1.645085e+00 1.640763e+00 1.672952e+00 
1.535178e+00 1.517467e+00 1.520169e+00 1.550906e+00 1.655747e+00 1.900826e+00 2.176589e+00 1.769597e+00 5.499469e-01 8.093328e-01 1.297327e+00 1.769828e+00 1.863929e+00 1.845398e+00 1.544779e+00 1.556811e+00 1.794458e+00 1.556811e+00 1.544779e+00 1.845398e+00 1.863929e+00 1.769828e+00 1.297327e+00 8.093328e-01 5.499469e-01 1.769597e+00 2.176589e+00 1.900826e+00 1.655747e+00 1.550906e+00 1.520169e+00 1.517467e+00 
1.350336e+00 1.346924e+00 1.369754e+00 1.413080e+00 1.486729e+00 1.634632e+00 1.841973e+00 2.095318e+00 1.627198e+00 1.051271e+00 8.559986e-01 1.149763e+00 1.713474e+00 2.242773e+00 2.071464e+00 1.916354e+00 2.103185e+00 1.916354e+00 2.071464e+00 2.242773e+00 1.713474e+00 1.149763e+00 8.559986e-01 1.051271e+00 1.627198e+00 2.095318e+00 1.841973e+00 1.634632e+00 1.486729e+00 1.413080e+00 1.369754e+00 1.346924e+00 
1.157283e+00 1.164545e+00 1.197380e+00 1.256490e+00 1.326075e+00 1.440353e+00 1.547586e+00 1.790231e+00 1.887507e+00 1.675373e+00 1.575583e+00 1.509330e+00 1.450046e+00 1.740010e+00 2.060040e+00 2.361799e+00 2.624312e+00 2.361799e+00 2.060040e+00 1.740010e+00 1.450046e+00 1.509330e+00 1.575583e+00 1.675373e+00 1.887507e+00 1.790231e+00 1.547586e+00 1.440353e+00 1.326075e+00 1.256490e+00 1.197380e+00 1.164545e+00 
9.719257e-01 9.830623e-01 1.021687e+00 1.086218e+00 1.162538e+00 1.262372e+00 1.357617e+00 1.473831e+00 1.679187e+00 1.729829e+00 1.707070e+00 1.827939e+00 2.123773e+00 2.459814e+00 2.374700e+00 1.955286e+00 2.044876e+00 1.955286e+00 2.374700e+00 2.459814e+00 2.123773e+00 1.827939e+00 1.707070e+00 1.729829e+00 1.679187e+00 1.473831e+00 1.357617e+00 1.262372e+00 1.162538e+00 1.086218e+00 1.021687e+00 9.830623e-01 
7.907206e-01 8.060633e-01 8.501030e-01 9.221032e-01 1.006684e+00 1.106544e+00 1.205645e+00 1.288176e+00 1.423993e+00 1.496634e+00 1.652218e+00 1.629769e+00 1.899906e+00 2.280449e+00 2.063496e+00 1.598241e+00 3.185696e-01 1.598241e+00 2.063496e+00 2.280449e+00 1.899906e+00 1.629769e+00 1.652218e+00 1.496634e+00 1.423993e+00 1.288176e+00 1.205645e+00 1.106544e+00 1.006684e+00 9.221032e-01 8.501030e-01 8.060633e-01 
6.186075e-01 6.372684e-01 6.887017e-01 7.678028e-01 8.601971e-01 9.616908e-01 1.061804e+00 1.146878e+00 1.231176e+00 1.296731e+00 1.387294e+00 1.500620e+00 1.644327e+00 1.767437e+00 1.385707e+00 8.796883e-01 1.117268e+00 8.796883e-01 1.385707e+00 1.767437e+00 1.644327e+00 1.500620e+00 1.387294e+00 1.296731e+00 1.231176e+00 1.146878e+00 1.061804e+00 9.616908e-01 8.601971e-01 7.678028e-01 6.887017e-01 6.372684e-01 
4.547995e-01 4.792797e-01 5.436032e-01 6.349919e-01 7.374814e-01 8.407880e-01 9.388932e-01 1.015373e+00 1.074551e+00 1.104210e+00 1.129783e+00 1.158721e+00 1.212682e+00 1.234614e+00 8.768693e-01 3.966102e-01 1.373881e+00 3.966102e-01 8.768693e-01 1.234614e+00 1.212682e+00 1.158721e+00 1.129783e+00 1.104210e+00 1.074551e+00 1.015373e+00 9.388932e-01 8.407880e-01 7.374814e-01 6.349919e-01 5.436032e-01 4.792797e-01 
2.983881e-01 3.335865e-01 4.193143e-01 5.283804e-01 6.430808e-01 7.515175e-01 8.482835e-01 9.199585e-01 9.624471e-01 9.658811e-01 9.339026e-01 8.616187e-01 7.532932e-01 6.458820e-01 6.257426e-01 5.102874e-01 9.163188e-01 5.102874e-01 6.257426e-01 6.458820e-01 7.532932e-01 8.616187e-01 9.339026e-01 9.658811e-01 9.624471e-01 9.199585e-01 8.482835e-01 7.515175e-01 6.430808e-01 5.283804e-01 4.193143e-01 3.335865e-01 
1.477851e-01 2.091781e-01 3.285127e-01 4.571382e-01 5.831056e-01 6.950045e-01 7.916472e-01 8.566389e-01 8.906124e-01 8.723256e-01 8.106398e-01 6.756056e-01 5.043020e-01 3.188863e-01 3.129186e-01 4.731046e-01 4.365321e-01 4.731046e-01 3.129186e-01 3.188863e-01 5.043020e-01 6.756056e-01 8.106398e-01 8.723256e-01 8.906124e-01 8.566389e-01 7.916472e-01 6.950045e-01 5.831056e-01 4.571382e-01 3.285127e-01 2.091781e-01 
