# vtk DataFile Version 2.0
Comment goes here
ASCII

DATASET STRUCTURED_POINTS
FIELD FieldData 1
TIME 1 1 double
1.10000000
DIMENSIONS    32   32   1

ORIGIN    0.000   0.000   0.000
SPACING   0.03125 0.03125   1.000

POINT_DATA   1024
SCALARS uMag double
LOOKUP_TABLE default

5.728508e-14 3.904386e-03 7.431634e-03 5.148392e-02 1.313494e-01 2.579092e-01 4.217078e-01 6.174593e-01 8.276122e-01 1.023458e+00 1.194184e+00 1.292672e+00 1.323089e+00 1.224751e+00 9.918822e-01 5.655548e-01 2.052538e-13 5.655548e-01 9.918822e-01 1.224751e+00 1.323089e+00 1.292672e+00 1.194184e+00 1.023458e+00 8.276122e-01 6.174593e-01 4.217078e-01 2.579092e-01 1.313494e-01 5.148392e-02 7.431634e-03 3.904386e-03 
3.904386e-03 1.240467e-02 2.900629e-02 6.747529e-02 1.411265e-01 2.557125e-01 4.016057e-01 5.753795e-01 7.581984e-01 9.296516e-01 1.077898e+00 1.166854e+00 1.201407e+00 1.131656e+00 9.819086e-01 7.208872e-01 5.655548e-01 7.208872e-01 9.819086e-01 1.131656e+00 1.201407e+00 1.166854e+00 1.077898e+00 9.296516e-01 7.581984e-01 5.753795e-01 4.016057e-01 2.557125e-01 1.411265e-01 6.747529e-02 2.900629e-02 1.240467e-02 
2.367011e-02 3.411063e-02 6.374296e-02 1.107310e-01 1.841259e-01 2.816405e-01 3.945475e-01 5.218715e-01 6.430958e-01 7.507648e-01 8.391750e-01 8.792529e-01 9.004589e-01 8.783268e-01 9.025743e-01 9.990053e-01 1.046367e+00 9.990053e-01 9.025743e-01 8.783268e-01 9.004589e-01 8.792529e-01 8.391750e-01 7.507648e-01 6.430958e-01 5.218715e-01 3.945475e-01 2.816405e-01 1.841259e-01 1.107310e-01 6.374296e-02 3.411063e-02 
6.990853e-02 8.003132e-02 1.163744e-01 1.782935e-01 2.656844e-01 3.585005e-01 4.455010e-01 5.194517e-01 5.495294e-01 5.529217e-01 5.146085e-01 4.643153e-01 4.625986e-01 5.884115e-01 8.862561e-01 1.192662e+00 1.320544e+00 1.192662e+00 8.862561e-01 5.884115e-01 4.625986e-01 4.643153e-01 5.146085e-01 5.529217e-01 5.495294e-01 5.194517e-01 4.455010e-01 3.585005e-01 2.656844e-01 1.782935e-01 1.163744e-01 8.003132e-02 
1.531590e-01 1.599578e-01 1.904087e-01 2.573270e-01 3.577933e-01 4.532528e-01 5.366555e-01 5.874819e-01 5.742584e-01 5.169299e-01 3.827919e-01 2.044368e-01 9.052886e-02 3.288811e-01 8.263192e-01 1.335063e+00 1.472288e+00 1.335063e+00 8.263192e-01 3.288811e-01 9.052886e-02 2.044368e-01 3.827919e-01 5.169299e-01 5.742584e-01 5.874819e-01 5.366555e-01 4.532528e-01 3.577933e-01 2.573270e-01 1.904087e-01 1.599578e-01 
2.762298e-01 2.742087e-01 2.815769e-01 3.415087e-01 4.560254e-01 5.649052e-01 6.656976e-01 7.249253e-01 7.122589e-01 6.663147e-01 5.094374e-01 3.867679e-01 3.744635e-01 5.614264e-01 8.969519e-01 1.196349e+00 1.243166e+00 1.196349e+00 8.969519e-01 5.614264e-01 3.744635e-01 3.867679e-01 5.094374e-01 6.663147e-01 7.122589e-01 7.249253e-01 6.656976e-01 5.649052e-01 4.560254e-01 3.415087e-01 2.815769e-01 2.742087e-01 
4.329991e-01 4.204093e-01 3.948737e-01 4.296984e-01 5.417202e-01 6.490036e-01 7.564985e-01 8.058232e-01 7.970788e-01 7.518207e-01 6.161820e-01 5.657023e-01 5.091385e-01 7.562463e-01 1.241133e+00 1.405853e+00 1.124298e+00 1.405853e+00 1.241133e+00 7.562463e-01 5.091385e-01 5.657023e-01 6.161820e-01 7.518207e-01 7.970788e-01 8.058232e-01 7.564985e-01 6.490036e-01 5.417202e-01 4.296984e-01 3.948737e-01 4.204093e-01 
6.242136e-01 5.942850e-01 5.109602e-01 4.889761e-01 5.820560e-01 6.911778e-01 8.229639e-01 8.824846e-01 9.022584e-01 9.204219e-01 7.418285e-01 1.056768e+00 1.431746e+00 2.274949e+00 1.966908e+00 6.832981e-01 3.054061e-01 6.832981e-01 1.966908e+00 2.274949e+00 1.431746e+00 1.056768e+00 7.418285e-01 9.204219e-01 9.022584e-01 8.824846e-01 8.229639e-01 6.911778e-01 5.820560e-01 4.889761e-01 5.109602e-01 5.942850e-01 
8.148987e-01 7.689310e-01 6.283488e-01 5.435779e-01 6.013148e-01 7.051638e-01 8.478811e-01 8.798836e-01 8.977988e-01 8.679889e-01 8.236286e-01 1.544609e+00 1.766085e+00 8.850656e-01 8.759699e-01 8.745332e-01 2.115631e-01 8.745332e-01 8.759699e-01 8.850656e-01 1.766085e+00 1.544609e+00 8.236286e-01 8.679889e-01 8.977988e-01 8.798836e-01 8.478811e-01 7.051638e-01 6.013148e-01 5.435779e-01 6.283488e-01 7.689310e-01 
1.019310e+00 9.527912e-01 7.395116e-01 5.525871e-01 5.232691e-01 6.058002e-01 7.811602e-01 7.853617e-01 9.082622e-01 7.835736e-01 6.633046e-01 5.983316e-01 4.969619e-01 1.447977e+00 9.621255e-01 6.736050e-01 1.019981e+00 6.736050e-01 9.621255e-01 1.447977e+00 4.969619e-01 5.983316e-01 6.633046e-01 7.835736e-01 9.082622e-01 7.853617e-01 7.811602e-01 6.058002e-01 5.232691e-01 5.525871e-01 7.395116e-01 9.527912e-01 
1.165313e+00 1.083133e+00 8.102520e-01 5.454535e-01 4.324498e-01 5.394330e-01 7.562396e-01 7.152227e-01 8.772984e-01 6.829119e-01 1.824687e-01 2.786075e-01 4.990816e-01 2.887340e-01 8.078732e-01 7.282666e-01 4.492531e-02 7.282666e-01 8.078732e-01 2.887340e-01 4.990816e-01 2.786075e-01 1.824687e-01 6.829119e-01 8.772984e-01 7.152227e-01 7.562396e-01 5.394330e-01 4.324498e-01 5.454535e-01 8.102520e-01 1.083133e+00 
1.295743e+00 1.199214e+00 8.886566e-01 5.418855e-01 2.426416e-01 3.032063e-01 5.331504e-01 3.958235e-01 9.968121e-01 1.529971e+00 1.076361e-01 3.196160e-01 7.452194e-02 3.656275e-01 3.078600e-01 1.329398e-01 3.531857e-01 1.329398e-01 3.078600e-01 3.656275e-01 7.452194e-02 3.196160e-01 1.076361e-01 1.529971e+00 9.968121e-01 3.958235e-01 5.331504e-01 3.032063e-01 2.426416e-01 5.418855e-01 8.886566e-01 1.199214e+00 
1.296190e+00 1.199564e+00 8.879688e-01 5.146764e-01 6.889227e-02 2.726466e-01 7.110511e-01 6.524684e-01 1.432942e+00 8.677862e-01 9.515660e-01 2.729268e-01 3.455057e-01 2.809469e-01 7.182824e-02 1.054715e-01 2.519932e-01 1.054715e-01 7.182824e-02 2.809469e-01 3.455057e-01 2.729268e-01 9.515660e-01 8.677862e-01 1.432942e+00 6.524684e-01 7.110511e-01 2.726466e-01 6.889227e-02 5.146764e-01 8.879688e-01 1.199564e+00 
1.231919e+00 1.154266e+00 9.329946e-01 6.324486e-01 3.649183e-01 2.471146e-01 5.318433e-01 9.125473e-01 1.771901e+00 2.558513e-01 4.630704e-01 6.680840e-01 4.511196e-02 1.942116e-01 6.395592e-02 1.054185e-01 1.616371e-01 1.054185e-01 6.395592e-02 1.942116e-01 4.511196e-02 6.680840e-01 4.630704e-01 2.558513e-01 1.771901e+00 9.125473e-01 5.318433e-01 2.471146e-01 3.649183e-01 6.324486e-01 9.329946e-01 1.154266e+00 
9.718793e-01 9.634967e-01 9.467808e-01 8.901939e-01 8.376273e-01 7.492802e-01 7.937052e-01 1.423029e+00 1.544368e+00 5.174117e-01 2.553413e-01 4.654529e-01 5.709602e-02 1.578952e-01 8.795828e-02 8.285994e-02 4.503663e-02 8.285994e-02 8.795828e-02 1.578952e-01 5.709602e-02 4.654529e-01 2.553413e-01 5.174117e-01 1.544368e+00 1.423029e+00 7.937052e-01 7.492802e-01 8.376273e-01 8.901939e-01 9.467808e-01 9.634967e-01 
5.806972e-01 7.332950e-01 1.021871e+00 1.271440e+00 1.414820e+00 1.479858e+00 1.275478e+00 1.404165e+00 6.225961e-01 4.331490e-01 3.657801e-01 3.238311e-01 1.434551e-01 8.743294e-02 7.403550e-02 3.841768e-02 2.913798e-04 3.841768e-02 7.403550e-02 8.743294e-02 1.434551e-01 3.238311e-01 3.657801e-01 4.331490e-01 6.225961e-01 1.404165e+00 1.275478e+00 1.479858e+00 1.414820e+00 1.271440e+00 1.021871e+00 7.332950e-01 
1.528606e-13 5.806972e-01 1.098334e+00 1.522859e+00 1.790137e+00 1.920055e+00 1.590198e+00 1.279562e+00 2.127506e-01 4.258278e-02 4.054136e-01 3.687299e-01 2.071303e-01 1.428672e-01 6.225252e-02 2.913798e-04 1.133605e-13 2.913798e-04 6.225252e-02 1.428672e-01 2.071303e-01 3.687299e-01 4.054136e-01 4.258278e-02 2.127506e-01 1.279562e+00 1.590198e+00 1.920055e+00 1.790137e+00 1.522859e+00 1.098334e+00 5.806972e-01 
5.806972e-01 7.332950e-01 1.021871e+00 1.271440e+00 1.414820e+00 1.479858e+00 1.275478e+00 1.404165e+00 6.225961e-01 4.331490e-01 3.657801e-01 3.238311e-01 1.434551e-01 8.743294e-02 7.403550e-02 3.841768e-02 2.913798e-04 3.841768e-02 7.403550e-02 8.743294e-02 1.434551e-01 3.238311e-01 3.657801e-01 4.331490e-01 6.225961e-01 1.404165e+00 1.275478e+00 1.479858e+00 1.414820e+00 1.271440e+00 1.021871e+00 7.332950e-01 
9.718793e-01 9.634967e-01 9.467808e-01 8.901939e-01 8.376273e-01 7.492802e-01 7.937052e-01 1.423029e+00 1.544368e+00 5.174117e-01 2.553413e-01 4.654529e-01 5.709602e-02 1.578952e-01 8.795828e-02 8.285994e-02 4.503663e-02 8.285994e-02 8.795828e-02 1.578952e-01 5.709602e-02 4.654529e-01 2.553413e-01 5.174117e-01 1.544368e+00 1.423029e+00 7.937052e-01 7.492802e-01 8.376273e-01 8.901939e-01 9.467808e-01 9.634967e-01 
1.231919e+00 1.154266e+00 9.329946e-01 6.324486e-01 3.649183e-01 2.471146e-01 5.318433e-01 9.125473e-01 1.771901e+00 2.558513e-01 4.630704e-01 6.680840e-01 4.511196e-02 1.942116e-01 6.395592e-02 1.054185e-01 1.616371e-01 1.054185e-01 6.395592e-02 1.942116e-01 4.511196e-02 6.680840e-01 4.630704e-01 2.558513e-01 1.771901e+00 9.125473e-01 5.318433e-01 2.471146e-01 3.649183e-01 6.324486e-01 9.329946e-01 1.154266e+00 
1.296190e+00 1.199564e+00 8.879688e-01 5.146764e-01 6.889227e-02 2.726466e-01 7.110511e-01 6.524684e-01 1.432942e+00 8.677862e-01 9.515660e-01 2.729268e-01 3.455057e-01 2.809469e-01 7.182824e-02 1.054715e-01 2.519932e-01 1.054715e-01 7.182824e-02 2.809469e-01 3.455057e-01 2.729268e-01 9.515660e-01 8.677862e-01 1.432942e+00 6.524684e-01 7.110511e-01 2.726466e-01 6.889227e-02 5.146764e-01 8.879688e-01 1.199564e+00 
1.295743e+00 1.199214e+00 8.886566e-01 5.418855e-01 2.426416e-01 3.032063e-01 5.331504e-01 3.958235e-01 9.968121e-01 1.529971e+00 1.076361e-01 3.196160e-01 7.452194e-02 3.656275e-01 3.078600e-01 1.329398e-01 3.531857e-01 1.329398e-01 3.078600e-01 3.656275e-01 7.452194e-02 3.196160e-01 1.076361e-01 1.529971e+00 9.968121e-01 3.958235e-01 5.331504e-01 3.032063e-01 2.426416e-01 5.418855e-01 8.886566e-01 1.199214e+00 
1.165313e+00 1.083133e+00 8.102520e-01 5.454535e-01 4.324498e-01 5.394330e-01 7.562396e-01 7.152227e-01 8.772984e-01 6.829119e-01 1.824687e-01 2.786075e-01 4.990816e-01 2.887340e-01 8.078732e-01 7.282666e-01 4.492531e-02 7.282666e-01 8.078732e-01 2.887340e-01 4.990816e-01 2.786075e-01 1.824687e-01 6.829119e-01 8.772984e-01 7.152227e-01 7.562396e-01 5.394330e-01 4.324498e-01 5.454535e-01 8.102520e-01 1.083133e+00 
1.019310e+00 9.527912e-01 7.395116e-01 5.525871e-01 5.232691e-01 6.058002e-01 7.811602e-01 7.853617e-01 9.082622e-01 7.835736e-01 6.633046e-01 5.983316e-01 4.969619e-01 1.447977e+00 9.621255e-01 6.736050e-01 1.019981e+00 6.736050e-01 9.621255e-01 1.447977e+00 4.969619e-01 5.983316e-01 6.633046e-01 7.835736e-01 9.082622e-01 7.853617e-01 7.811602e-01 6.058002e-01 5.232691e-01 5.525871e-01 7.395116e-01 9.527912e-01 
8.148987e-01 7.689310e-01 6.283488e-01 5.435779e-01 6.013148e-01 7.051638e-01 8.478811e-01 8.798836e-01 8.977988e-01 8.679889e-01 8.236286e-01 1.544609e+00 1.766085e+00 8.850656e-01 8.759699e-01 8.745332e-01 2.115631e-01 8.745332e-01 8.759699e-01 8.850656e-01 1.766085e+00 1.544609e+00 8.236286e-01 8.679889e-01 8.977988e-01 8.798836e-01 8.478811e-01 7.051638e-01 6.013148e-01 5.435779e-01 6.283488e-01 7.689310e-01 
6.242136e-01 5.942850e-01 5.109602e-01 4.889761e-01 5.820560e-01 6.911778e-01 8.229639e-01 8.824846e-01 9.022584e-01 9.204219e-01 7.418285e-01 1.056768e+00 1.431746e+00 2.274949e+00 1.966908e+00 6.832981e-01 3.054061e-01 6.832981e-01 1.966908e+00 2.274949e+00 1.431746e+00 1.056768e+00 7.418285e-01 9.204219e-01 9.022584e-01 8.824846e-01 8.229639e-01 6.911778e-01 5.820560e-01 4.889761e-01 5.109602e-01 5.942850e-01 
4.329991e-01 4.204093e-01 3.948737e-01 4.296984e-01 5.417202e-01 6.490036e-01 7.564985e-01 8.058232e-01 7.970788e-01 7.518207e-01 6.161820e-01 5.657023e-01 5.091385e-01 7.562463e-01 1.241133e+00 1.405853e+00 1.124298e+00 1.405853e+00 1.241133e+00 7.562463e-01 5.091385e-01 5.657023e-01 6.161820e-01 7.518207e-01 7.970788e-01 8.058232e-01 7.564985e-01 6.490036e-01 5.417202e-01 4.296984e-01 3.948737e-01 4.204093e-01 
2.762298e-01 2.742087e-01 2.815769e-01 3.415087e-01 4.560254e-01 5.649052e-01 6.656976e-01 7.249253e-01 7.122589e-01 6.663147e-01 5.094374e-01 3.867679e-01 3.744635e-01 5.614264e-01 8.969519e-01 1.196349e+00 1.243166e+00 1.196349e+00 8.969519e-01 5.614264e-01 3.744635e-01 3.867679e-01 5.094374e-01 6.663147e-01 7.122589e-01 7.249253e-01 6.656976e-01 5.649052e-01 4.560254e-01 3.415087e-01 2.815769e-01 2.742087e-01 
1.531590e-01 1.599578e-01 1.904087e-01 2.573270e-01 3.577933e-01 4.532528e-01 5.366555e-01 5.874819e-01 5.742584e-01 5.169299e-01 3.827919e-01 2.044368e-01 9.052886e-02 3.288811e-01 8.263192e-01 1.335063e+00 1.472288e+00 1.335063e+00 8.263192e-01 3.288811e-01 9.052886e-02 2.044368e-01 3.827919e-01 5.169299e-01 5.742584e-01 5.874819e-01 5.366555e-01 4.532528e-01 3.577933e-01 2.573270e-01 1.904087e-01 1.599578e-01 
6.990853e-02 8.003132e-02 1.163744e-01 1.782935e-01 2.656844e-01 3.585005e-01 4.455010e-01 5.194517e-01 5.495294e-01 5.529217e-01 5.146085e-01 4.643153e-01 4.625986e-01 5.884115e-01 8.862561e-01 1.192662e+00 1.320544e+00 1.192662e+00 8.862561e-01 5.884115e-01 4.625986e-01 4.643153e-01 5.146085e-01 5.529217e-01 5.495294e-01 5.194517e-01 4.455010e-01 3.585005e-01 2.656844e-01 1.782935e-01 1.163744e-01 8.003132e-02 
2.367011e-02 3.411063e-02 6.374296e-02 1.107310e-01 1.841259e-01 2.816405e-01 3.945475e-01 5.218715e-01 6.430958e-01 7.507648e-01 8.391750e-01 8.792529e-01 9.004589e-01 8.783268e-01 9.025743e-01 9.990053e-01 1.046367e+00 9.990053e-01 9.025743e-01 8.783268e-01 9.004589e-01 8.792529e-01 8.391750e-01 7.507648e-01 6.430958e-01 5.218715e-01 3.945475e-01 2.816405e-01 1.841259e-01 1.107310e-01 6.374296e-02 3.411063e-02 
3.904386e-03 1.240467e-02 2.900629e-02 6.747529e-02 1.411265e-01 2.557125e-01 4.016057e-01 5.753795e-01 7.581984e-01 9.296516e-01 1.077898e+00 1.166854e+00 1.201407e+00 1.131656e+00 9.819086e-01 7.208872e-01 5.655548e-01 7.208872e-01 9.819086e-01 1.131656e+00 1.201407e+00 1.166854e+00 1.077898e+00 9.296516e-01 7.581984e-01 5.753795e-01 4.016057e-01 2.557125e-01 1.411265e-01 6.747529e-02 2.900629e-02 1.240467e-02 
