# vtk DataFile Version 2.0
Comment goes here
ASCII

DATASET STRUCTURED_POINTS
FIELD FieldData 1
TIME 1 1 double
1.34000000
DIMENSIONS    32   32   1

ORIGIN    0.000   0.000   0.000
SPACING   0.03125 0.03125   1.000

POINT_DATA   1024
SCALARS uMag double
LOOKUP_TABLE default

2.542541e-13 5.718845e-03 5.504088e-03 4.617217e-02 1.246069e-01 2.433326e-01 3.940237e-01 5.738138e-01 7.523029e-01 9.308972e-01 1.057371e+00 1.147774e+00 1.133434e+00 1.042232e+00 8.075514e-01 4.506171e-01 7.950985e-13 4.506171e-01 8.075514e-01 1.042232e+00 1.133434e+00 1.147774e+00 1.057371e+00 9.308972e-01 7.523029e-01 5.738138e-01 3.940237e-01 2.433326e-01 1.246069e-01 4.617217e-02 5.504088e-03 5.718845e-03 
5.718845e-03 1.175347e-02 2.662361e-02 6.648080e-02 1.420202e-01 2.541465e-01 3.961298e-01 5.626605e-01 7.286569e-01 8.915006e-01 1.008233e+00 1.089136e+00 1.079231e+00 1.006504e+00 8.276153e-01 5.920721e-01 4.506171e-01 5.920721e-01 8.276153e-01 1.006504e+00 1.079231e+00 1.089136e+00 1.008233e+00 8.915006e-01 7.286569e-01 5.626605e-01 3.961298e-01 2.541465e-01 1.420202e-01 6.648080e-02 2.662361e-02 1.175347e-02 
2.285348e-02 3.448067e-02 6.467360e-02 1.145107e-01 1.864320e-01 2.766995e-01 3.859389e-01 5.013317e-01 6.118841e-01 7.141477e-01 7.765698e-01 8.285520e-01 8.211557e-01 8.315548e-01 8.336846e-01 8.501612e-01 8.660589e-01 8.501612e-01 8.336846e-01 8.315548e-01 8.211557e-01 8.285520e-01 7.765698e-01 7.141477e-01 6.118841e-01 5.013317e-01 3.859389e-01 2.766995e-01 1.864320e-01 1.145107e-01 6.467360e-02 3.448067e-02 
7.363850e-02 7.873356e-02 1.092706e-01 1.726896e-01 2.556593e-01 3.422724e-01 4.303963e-01 4.948246e-01 5.454336e-01 5.634232e-01 5.606521e-01 5.606695e-01 5.589642e-01 6.544300e-01 8.457432e-01 1.055249e+00 1.158653e+00 1.055249e+00 8.457432e-01 6.544300e-01 5.589642e-01 5.606695e-01 5.606521e-01 5.634232e-01 5.454336e-01 4.948246e-01 4.303963e-01 3.422724e-01 2.556593e-01 1.726896e-01 1.092706e-01 7.873356e-02 
1.487643e-01 1.498473e-01 1.760688e-01 2.529763e-01 3.536968e-01 4.555341e-01 5.414146e-01 5.802585e-01 5.797256e-01 5.062759e-01 3.873639e-01 2.405387e-01 1.920144e-01 4.570648e-01 8.657765e-01 1.230753e+00 1.397875e+00 1.230753e+00 8.657765e-01 4.570648e-01 1.920144e-01 2.405387e-01 3.873639e-01 5.062759e-01 5.797256e-01 5.802585e-01 5.414146e-01 4.555341e-01 3.536968e-01 2.529763e-01 1.760688e-01 1.498473e-01 
2.706609e-01 2.580214e-01 2.584716e-01 3.214021e-01 4.287584e-01 5.452875e-01 6.398600e-01 6.709821e-01 6.580902e-01 5.362789e-01 3.819340e-01 1.239737e-01 9.491837e-02 3.165402e-01 8.027608e-01 1.230779e+00 1.415178e+00 1.230779e+00 8.027608e-01 3.165402e-01 9.491837e-02 1.239737e-01 3.819340e-01 5.362789e-01 6.580902e-01 6.709821e-01 6.398600e-01 5.452875e-01 4.287584e-01 3.214021e-01 2.584716e-01 2.580214e-01 
4.100948e-01 3.834221e-01 3.478931e-01 3.854829e-01 4.933024e-01 6.356140e-01 7.483650e-01 8.013252e-01 7.933815e-01 6.819304e-01 5.126815e-01 2.803374e-01 4.330847e-01 4.824073e-01 9.308760e-01 1.259670e+00 1.363741e+00 1.259670e+00 9.308760e-01 4.824073e-01 4.330847e-01 2.803374e-01 5.126815e-01 6.819304e-01 7.933815e-01 8.013252e-01 7.483650e-01 6.356140e-01 4.933024e-01 3.854829e-01 3.478931e-01 3.834221e-01 
5.832702e-01 5.345664e-01 4.536283e-01 4.293425e-01 5.132619e-01 6.671204e-01 7.950415e-01 8.524595e-01 8.518103e-01 6.958011e-01 4.663764e-01 2.438649e-01 3.866862e-01 3.645237e-01 9.273659e-01 1.065156e+00 9.187348e-01 1.065156e+00 9.273659e-01 3.645237e-01 3.866862e-01 2.438649e-01 4.663764e-01 6.958011e-01 8.518103e-01 8.524595e-01 7.950415e-01 6.671204e-01 5.132619e-01 4.293425e-01 4.536283e-01 5.345664e-01 
7.497605e-01 6.802368e-01 5.438342e-01 4.429710e-01 4.872521e-01 6.646184e-01 8.188790e-01 9.117717e-01 9.337124e-01 8.426950e-01 5.372203e-01 2.789190e-01 5.803327e-01 1.095915e+00 1.395479e+00 7.383080e-01 3.345208e-01 7.383080e-01 1.395479e+00 1.095915e+00 5.803327e-01 2.789190e-01 5.372203e-01 8.426950e-01 9.337124e-01 9.117717e-01 8.188790e-01 6.646184e-01 4.872521e-01 4.429710e-01 5.438342e-01 6.802368e-01 
9.157478e-01 8.204630e-01 6.374143e-01 4.381003e-01 4.190854e-01 6.189289e-01 8.042550e-01 9.400849e-01 1.042961e+00 9.732735e-01 3.838456e-01 8.595633e-01 1.055449e+00 7.244974e-01 1.573261e-01 1.994651e-01 2.016946e-01 1.994651e-01 1.573261e-01 7.244974e-01 1.055449e+00 8.595633e-01 3.838456e-01 9.732735e-01 1.042961e+00 9.400849e-01 8.042550e-01 6.189289e-01 4.190854e-01 4.381003e-01 6.374143e-01 8.204630e-01 
1.042428e+00 9.283616e-01 7.008481e-01 4.010942e-01 2.959631e-01 5.328365e-01 7.736034e-01 9.210881e-01 1.142206e+00 1.098573e+00 3.641991e-01 5.828700e-01 2.491774e-01 4.969771e-01 4.663513e-01 6.193290e-01 7.195177e-01 6.193290e-01 4.663513e-01 4.969771e-01 2.491774e-01 5.828700e-01 3.641991e-01 1.098573e+00 1.142206e+00 9.210881e-01 7.736034e-01 5.328365e-01 2.959631e-01 4.010942e-01 7.008481e-01 9.283616e-01 
1.122688e+00 9.933323e-01 7.493080e-01 3.655861e-01 1.385981e-01 4.475670e-01 6.979581e-01 9.641897e-01 1.560589e+00 9.423606e-01 4.237822e-01 3.911302e-02 3.684350e-01 8.280591e-01 1.080156e+00 6.470857e-01 1.546930e-02 6.470857e-01 1.080156e+00 8.280591e-01 3.684350e-01 3.911302e-02 4.237822e-01 9.423606e-01 1.560589e+00 9.641897e-01 6.979581e-01 4.475670e-01 1.385981e-01 3.655861e-01 7.493080e-01 9.933323e-01 
1.130398e+00 1.000759e+00 7.712863e-01 3.648649e-01 7.085100e-02 3.781641e-01 6.571185e-01 1.022999e+00 1.915293e+00 8.098067e-01 6.976774e-01 5.314624e-01 9.322679e-01 5.692800e-01 3.692015e-01 1.744849e-01 3.863199e-01 1.744849e-01 3.692015e-01 5.692800e-01 9.322679e-01 5.314624e-01 6.976774e-01 8.098067e-01 1.915293e+00 1.022999e+00 6.571185e-01 3.781641e-01 7.085100e-02 3.648649e-01 7.712863e-01 1.000759e+00 
1.034325e+00 9.295814e-01 7.706309e-01 4.724176e-01 3.360359e-01 3.999847e-01 5.739747e-01 1.531355e+00 2.317252e+00 6.776303e-01 1.451282e+00 3.721593e-01 3.005822e-01 1.886947e-01 3.812498e-01 1.617268e-01 4.409437e-02 1.617268e-01 3.812498e-01 1.886947e-01 3.005822e-01 3.721593e-01 1.451282e+00 6.776303e-01 2.317252e+00 1.531355e+00 5.739747e-01 3.999847e-01 3.360359e-01 4.724176e-01 7.706309e-01 9.295814e-01 
8.253331e-01 7.854826e-01 7.894169e-01 7.489723e-01 7.206842e-01 7.726416e-01 6.213901e-01 1.599740e+00 1.443155e+00 1.739268e+00 3.635302e-01 6.020121e-01 2.585920e-01 1.680862e-01 1.786795e-01 6.563106e-02 7.943401e-02 6.563106e-02 1.786795e-01 1.680862e-01 2.585920e-01 6.020121e-01 3.635302e-01 1.739268e+00 1.443155e+00 1.599740e+00 6.213901e-01 7.726416e-01 7.206842e-01 7.489723e-01 7.894169e-01 7.854826e-01 
4.567766e-01 5.783884e-01 7.999442e-01 1.025783e+00 1.035143e+00 1.187162e+00 8.073866e-01 1.293136e+00 9.475495e-01 8.896465e-01 5.767234e-01 4.954429e-01 2.771765e-01 1.910557e-01 1.942595e-01 6.726189e-02 5.578481e-02 6.726189e-02 1.942595e-01 1.910557e-01 2.771765e-01 4.954429e-01 5.767234e-01 8.896465e-01 9.475495e-01 1.293136e+00 8.073866e-01 1.187162e+00 1.035143e+00 1.025783e+00 7.999442e-01 5.783884e-01 
8.383162e-13 4.567766e-01 8.105293e-01 1.108906e+00 1.123592e+00 1.209770e+00 7.178231e-01 6.554034e-01 1.164459e+00 4.471117e-01 2.243806e-01 9.679846e-01 3.708620e-01 4.348535e-01 1.085674e-01 5.578481e-02 2.027830e-13 5.578481e-02 1.085674e-01 4.348535e-01 3.708620e-01 9.679846e-01 2.243806e-01 4.471117e-01 1.164459e+00 6.554034e-01 7.178231e-01 1.209770e+00 1.123592e+00 1.108906e+00 8.105293e-01 4.567766e-01 
4.567766e-01 5.783884e-01 7.999442e-01 1.025783e+00 1.035143e+00 1.187162e+00 8.073866e-01 1.293136e+00 9.475495e-01 8.896465e-01 5.767234e-01 4.954429e-01 2.771765e-01 1.910557e-01 1.942595e-01 6.726189e-02 5.578481e-02 6.726189e-02 1.942595e-01 1.910557e-01 2.771765e-01 4.954429e-01 5.767234e-01 8.896465e-01 9.475495e-01 1.293136e+00 8.073866e-01 1.187162e+00 1.035143e+00 1.025783e+00 7.999442e-01 5.783884e-01 
8.253331e-01 7.854826e-01 7.894169e-01 7.489723e-01 7.206842e-01 7.726416e-01 6.213901e-01 1.599740e+00 1.443155e+00 1.739268e+00 3.635302e-01 6.020121e-01 2.585920e-01 1.680862e-01 1.786795e-01 6.563106e-02 7.943401e-02 6.563106e-02 1.786795e-01 1.680862e-01 2.585920e-01 6.020121e-01 3.635302e-01 1.739268e+00 1.443155e+00 1.599740e+00 6.213901e-01 7.726416e-01 7.206842e-01 7.489723e-01 7.894169e-01 7.854826e-01 
1.034325e+00 9.295814e-01 7.706309e-01 4.724176e-01 3.360359e-01 3.999847e-01 5.739747e-01 1.531355e+00 2.317252e+00 6.776303e-01 1.451282e+00 3.721593e-01 3.005822e-01 1.886947e-01 3.812498e-01 1.617268e-01 4.409437e-02 1.617268e-01 3.812498e-01 1.886947e-01 3.005822e-01 3.721593e-01 1.451282e+00 6.776303e-01 2.317252e+00 1.531355e+00 5.739747e-01 3.999847e-01 3.360359e-01 4.724176e-01 7.706309e-01 9.295814e-01 
1.130398e+00 1.000759e+00 7.712863e-01 3.648649e-01 7.085100e-02 3.781641e-01 6.571185e-01 1.022999e+00 1.915293e+00 8.098067e-01 6.976774e-01 5.314624e-01 9.322679e-01 5.692800e-01 3.692015e-01 1.744849e-01 3.863199e-01 1.744849e-01 3.692015e-01 5.692800e-01 9.322679e-01 5.314624e-01 6.976774e-01 8.098067e-01 1.915293e+00 1.022999e+00 6.571185e-01 3.781641e-01 7.085100e-02 3.648649e-01 7.712863e-01 1.000759e+00 
1.122688e+00 9.933323e-01 7.493080e-01 3.655861e-01 1.385981e-01 4.475670e-01 6.979581e-01 9.641897e-01 1.560589e+00 9.423606e-01 4.237822e-01 3.911302e-02 3.684350e-01 8.280591e-01 1.080156e+00 6.470857e-01 1.546930e-02 6.470857e-01 1.080156e+00 8.280591e-01 3.684350e-01 3.911302e-02 4.237822e-01 9.423606e-01 1.560589e+00 9.641897e-01 6.979581e-01 4.475670e-01 1.385981e-01 3.655861e-01 7.493080e-01 9.933323e-01 
1.042428e+00 9.283616e-01 7.008481e-01 4.010942e-01 2.959631e-01 5.328365e-01 7.736034e-01 9.210881e-01 1.142206e+00 1.098573e+00 3.641991e-01 5.828700e-01 2.491774e-01 4.969771e-01 4.663513e-01 6.193290e-01 7.195177e-01 6.193290e-01 4.663513e-01 4.969771e-01 2.491774e-01 5.828700e-01 3.641991e-01 1.098573e+00 1.142206e+00 9.210881e-01 7.736034e-01 5.328365e-01 2.959631e-01 4.010942e-01 7.008481e-01 9.283616e-01 
9.157478e-01 8.204630e-01 6.374143e-01 4.381003e-01 4.190854e-01 6.189289e-01 8.042550e-01 9.400849e-01 1.042961e+00 9.732735e-01 3.838456e-01 8.595633e-01 1.055449e+00 7.244974e-01 1.573261e-01 1.994651e-01 2.016946e-01 1.994651e-01 1.573261e-01 7.244974e-01 1.055449e+00 8.595633e-01 3.838456e-01 9.732735e-01 1.042961e+00 9.400849e-01 8.042550e-01 6.189289e-01 4.190854e-01 4.381003e-01 6.374143e-01 8.204630e-01 
7.497605e-01 6.802368e-01 5.438342e-01 4.429710e-01 4.872521e-01 6.646184e-01 8.188790e-01 9.117717e-01 9.337124e-01 8.426950e-01 5.372203e-01 2.789190e-01 5.803327e-01 1.095915e+00 1.395479e+00 7.383080e-01 3.345208e-01 7.383080e-01 1.395479e+00 1.095915e+00 5.803327e-01 2.789190e-01 5.372203e-01 8.426950e-01 9.337124e-01 9.117717e-01 8.188790e-01 6.646184e-01 4.872521e-01 4.429710e-01 5.438342e-01 6.802368e-01 
5.832702e-01 5.345664e-01 4.536283e-01 4.293425e-01 5.132619e-01 6.671204e-01 7.950415e-01 8.524595e-01 8.518103e-01 6.958011e-01 4.663764e-01 2.438649e-01 3.866862e-01 3.645237e-01 9.273659e-01 1.065156e+00 9.187348e-01 1.065156e+00 9.273659e-01 3.645237e-01 3.866862e-01 2.438649e-01 4.663764e-01 6.958011e-01 8.518103e-01 8.524595e-01 7.950415e-01 6.671204e-01 5.132619e-01 4.293425e-01 4.536283e-01 5.345664e-01 
4.100948e-01 3.834221e-01 3.478931e-01 3.854829e-01 4.933024e-01 6.356140e-01 7.483650e-01 8.013252e-01 7.933815e-01 6.819304e-01 5.126815e-01 2.803374e-01 4.330847e-01 4.824073e-01 9.308760e-01 1.259670e+00 1.363741e+00 1.259670e+00 9.308760e-01 4.824073e-01 4.330847e-01 2.803374e-01 5.126815e-01 6.819304e-01 7.933815e-01 8.013252e-01 7.483650e-01 6.356140e-01 4.933024e-01 3.854829e-01 3.478931e-01 3.834221e-01 
2.706609e-01 2.580214e-01 2.584716e-01 3.214021e-01 4.287584e-01 5.452875e-01 6.398600e-01 6.709821e-01 6.580902e-01 5.362789e-01 3.819340e-01 1.239737e-01 9.491837e-02 3.165402e-01 8.027608e-01 1.230779e+00 1.415178e+00 1.230779e+00 8.027608e-01 3.165402e-01 9.491837e-02 1.239737e-01 3.819340e-01 5.362789e-01 6.580902e-01 6.709821e-01 6.398600e-01 5.452875e-01 4.287584e-01 3.214021e-01 2.584716e-01 2.580214e-01 
1.487643e-01 1.498473e-01 1.760688e-01 2.529763e-01 3.536968e-01 4.555341e-01 5.414146e-01 5.802585e-01 5.797256e-01 5.062759e-01 3.873639e-01 2.405387e-01 1.920144e-01 4.570648e-01 8.657765e-01 1.230753e+00 1.397875e+00 1.230753e+00 8.657765e-01 4.570648e-01 1.920144e-01 2.405387e-01 3.873639e-01 5.062759e-01 5.797256e-01 5.802585e-01 5.414146e-01 4.555341e-01 3.536968e-01 2.529763e-01 1.760688e-01 1.498473e-01 
7.363850e-02 7.873356e-02 1.092706e-01 1.726896e-01 2.556593e-01 3.422724e-01 4.303963e-01 4.948246e-01 5.454336e-01 5.634232e-01 5.606521e-01 5.606695e-01 5.589642e-01 6.544300e-01 8.457432e-01 1.055249e+00 1.158653e+00 1.055249e+00 8.457432e-01 6.544300e-01 5.589642e-01 5.606695e-01 5.606521e-01 5.634232e-01 5.454336e-01 4.948246e-01 4.303963e-01 3.422724e-01 2.556593e-01 1.726896e-01 1.092706e-01 7.873356e-02 
2.285348e-02 3.448067e-02 6.467360e-02 1.145107e-01 1.864320e-01 2.766995e-01 3.859389e-01 5.013317e-01 6.118841e-01 7.141477e-01 7.765698e-01 8.285520e-01 8.211557e-01 8.315548e-01 8.336846e-01 8.501612e-01 8.660589e-01 8.501612e-01 8.336846e-01 8.315548e-01 8.211557e-01 8.285520e-01 7.765698e-01 7.141477e-01 6.118841e-01 5.013317e-01 3.859389e-01 2.766995e-01 1.864320e-01 1.145107e-01 6.467360e-02 3.448067e-02 
5.718845e-03 1.175347e-02 2.662361e-02 6.648080e-02 1.420202e-01 2.541465e-01 3.961298e-01 5.626605e-01 7.286569e-01 8.915006e-01 1.008233e+00 1.089136e+00 1.079231e+00 1.006504e+00 8.276153e-01 5.920721e-01 4.506171e-01 5.920721e-01 8.276153e-01 1.006504e+00 1.079231e+00 1.089136e+00 1.008233e+00 8.915006e-01 7.286569e-01 5.626605e-01 3.961298e-01 2.541465e-01 1.420202e-01 6.648080e-02 2.662361e-02 1.175347e-02 
