# vtk DataFile Version 2.0
Comment goes here
ASCII

DATASET STRUCTURED_POINTS
FIELD FieldData 1
TIME 1 1 double
0.16000000
DIMENSIONS    32   32   1

ORIGIN    0.000   0.000   0.000
SPACING   0.03125 0.03125   1.000

POINT_DATA   1024
SCALARS uMag double
LOOKUP_TABLE default

1.290301e-15 3.491495e-02 6.867196e-02 1.114286e-01 1.516056e-01 2.077353e-01 2.631610e-01 3.373693e-01 4.184034e-01 5.149418e-01 6.294860e-01 7.496120e-01 8.784037e-01 9.260519e-01 8.380145e-01 4.899554e-01 5.494064e-15 4.899554e-01 8.380145e-01 9.260519e-01 8.784037e-01 7.496120e-01 6.294860e-01 5.149418e-01 4.184034e-01 3.373693e-01 2.631610e-01 2.077353e-01 1.516056e-01 1.114286e-01 6.867196e-02 3.491495e-02 
3.491495e-02 4.793406e-02 7.570260e-02 1.150470e-01 1.531181e-01 2.095675e-01 2.636887e-01 3.412680e-01 4.222982e-01 5.216400e-01 6.320880e-01 7.320842e-01 8.156378e-01 7.632612e-01 6.830659e-01 5.808572e-01 4.899554e-01 5.808572e-01 6.830659e-01 7.632612e-01 8.156378e-01 7.320842e-01 6.320880e-01 5.216400e-01 4.222982e-01 3.412680e-01 2.636887e-01 2.095675e-01 1.531181e-01 1.150470e-01 7.570260e-02 4.793406e-02 
6.689439e-02 7.252587e-02 9.607294e-02 1.291345e-01 1.666413e-01 2.205109e-01 2.742770e-01 3.506730e-01 4.289633e-01 5.272878e-01 6.358066e-01 7.593369e-01 9.026498e-01 9.874567e-01 9.194321e-01 7.833865e-01 8.045570e-01 7.833865e-01 9.194321e-01 9.874567e-01 9.026498e-01 7.593369e-01 6.358066e-01 5.272878e-01 4.289633e-01 3.506730e-01 2.742770e-01 2.205109e-01 1.666413e-01 1.291345e-01 9.607294e-02 7.252587e-02 
9.792937e-02 9.932431e-02 1.192880e-01 1.454528e-01 1.794451e-01 2.309310e-01 2.807313e-01 3.639829e-01 4.462029e-01 5.721915e-01 7.138752e-01 8.619010e-01 7.731167e-01 1.650429e-01 8.141061e-01 1.302398e+00 1.372362e+00 1.302398e+00 8.141061e-01 1.650429e-01 7.731167e-01 8.619010e-01 7.138752e-01 5.721915e-01 4.462029e-01 3.639829e-01 2.807313e-01 2.309310e-01 1.794451e-01 1.454528e-01 1.192880e-01 9.932431e-02 
1.195868e-01 1.176775e-01 1.395013e-01 1.611491e-01 1.988212e-01 2.494641e-01 3.072776e-01 4.006073e-01 4.901330e-01 5.993789e-01 6.216192e-01 3.355201e-01 7.368210e-01 1.553619e+00 1.103217e+00 4.953024e-01 1.825930e-01 4.953024e-01 1.103217e+00 1.553619e+00 7.368210e-01 3.355201e-01 6.216192e-01 5.993789e-01 4.901330e-01 4.006073e-01 3.072776e-01 2.494641e-01 1.988212e-01 1.611491e-01 1.395013e-01 1.176775e-01 
1.401979e-01 1.360261e-01 1.596113e-01 1.774779e-01 2.172595e-01 2.659277e-01 3.220532e-01 4.199618e-01 4.786872e-01 5.204888e-01 3.952542e-01 4.701187e-01 8.833154e-01 6.714607e-01 1.179780e+00 8.530855e-01 6.377147e-01 8.530855e-01 1.179780e+00 6.714607e-01 8.833154e-01 4.701187e-01 3.952542e-01 5.204888e-01 4.786872e-01 4.199618e-01 3.220532e-01 2.659277e-01 2.172595e-01 1.774779e-01 1.596113e-01 1.360261e-01 
1.433545e-01 1.370809e-01 1.665877e-01 1.818817e-01 2.331405e-01 2.818960e-01 3.670891e-01 5.119905e-01 6.382496e-01 6.967046e-01 6.443446e-01 3.783026e-01 5.103248e-01 6.848948e-01 7.424138e-01 1.540589e+00 1.528020e+00 1.540589e+00 7.424138e-01 6.848948e-01 5.103248e-01 3.783026e-01 6.443446e-01 6.967046e-01 6.382496e-01 5.119905e-01 3.670891e-01 2.818960e-01 2.331405e-01 1.818817e-01 1.665877e-01 1.370809e-01 
1.459400e-01 1.396232e-01 1.780686e-01 1.963754e-01 2.632585e-01 3.227085e-01 4.613764e-01 7.011909e-01 6.491161e-01 6.286273e-01 2.771677e-01 6.057376e-01 7.219971e-01 1.468392e+00 1.956746e+00 1.027466e+00 4.573967e-05 1.027466e+00 1.956746e+00 1.468392e+00 7.219971e-01 6.057376e-01 2.771677e-01 6.286273e-01 6.491161e-01 7.011909e-01 4.613764e-01 3.227085e-01 2.632585e-01 1.963754e-01 1.780686e-01 1.396232e-01 
1.199048e-01 1.184223e-01 1.690903e-01 1.950369e-01 2.918500e-01 3.718678e-01 5.967349e-01 6.883230e-01 4.830702e-01 5.695431e-01 5.280990e-01 1.332726e+00 1.192645e+00 1.564892e+00 1.090604e+00 4.968388e-01 3.926202e-01 4.968388e-01 1.090604e+00 1.564892e+00 1.192645e+00 1.332726e+00 5.280990e-01 5.695431e-01 4.830702e-01 6.883230e-01 5.967349e-01 3.718678e-01 2.918500e-01 1.950369e-01 1.690903e-01 1.184223e-01 
8.997945e-02 1.028991e-01 1.745951e-01 2.237021e-01 3.491248e-01 4.434167e-01 7.218509e-01 4.628225e-01 4.779595e-01 3.391295e-01 1.398513e+00 1.364947e+00 9.722568e-01 1.254138e+00 4.105671e-01 5.616327e-01 9.672329e-01 5.616327e-01 4.105671e-01 1.254138e+00 9.722568e-01 1.364947e+00 1.398513e+00 3.391295e-01 4.779595e-01 4.628225e-01 7.218509e-01 4.434167e-01 3.491248e-01 2.237021e-01 1.745951e-01 1.028991e-01 
1.617487e-02 9.158443e-02 1.786829e-01 2.691429e-01 4.089847e-01 5.530494e-01 6.986193e-01 3.908259e-01 4.071835e-01 8.146528e-01 1.602353e+00 4.669412e-01 3.925411e-01 9.550181e-01 7.472936e-01 5.514537e-01 6.635918e-01 5.514537e-01 7.472936e-01 9.550181e-01 3.925411e-01 4.669412e-01 1.602353e+00 8.146528e-01 4.071835e-01 3.908259e-01 6.986193e-01 5.530494e-01 4.089847e-01 2.691429e-01 1.786829e-01 9.158443e-02 
8.309482e-02 1.442358e-01 2.371430e-01 3.568543e-01 4.497539e-01 5.762179e-01 5.278494e-01 4.511951e-01 1.880678e-01 9.193285e-01 7.805907e-01 8.291287e-01 6.015835e-01 1.002837e+00 8.459560e-01 4.660514e-01 8.663837e-02 4.660514e-01 8.459560e-01 1.002837e+00 6.015835e-01 8.291287e-01 7.805907e-01 9.193285e-01 1.880678e-01 4.511951e-01 5.278494e-01 5.762179e-01 4.497539e-01 3.568543e-01 2.371430e-01 1.442358e-01 
2.527722e-01 2.753795e-01 3.507694e-01 4.596480e-01 5.586816e-01 7.016514e-01 5.365499e-01 2.952035e-01 2.024838e-01 8.346983e-01 3.811708e-01 9.434620e-01 1.700002e-01 7.018598e-01 6.178710e-01 4.142490e-01 2.064839e-01 4.142490e-01 6.178710e-01 7.018598e-01 1.700002e-01 9.434620e-01 3.811708e-01 8.346983e-01 2.024838e-01 2.952035e-01 5.365499e-01 7.016514e-01 5.586816e-01 4.596480e-01 3.507694e-01 2.753795e-01 
4.656269e-01 4.463818e-01 4.142181e-01 5.326220e-01 6.976009e-01 8.494658e-01 7.706193e-01 4.363367e-01 3.268501e-01 9.422450e-01 4.026228e-01 1.037417e+00 4.353991e-01 4.298791e-01 4.943931e-01 4.191269e-01 3.397353e-01 4.191269e-01 4.943931e-01 4.298791e-01 4.353991e-01 1.037417e+00 4.026228e-01 9.422450e-01 3.268501e-01 4.363367e-01 7.706193e-01 8.494658e-01 6.976009e-01 5.326220e-01 4.142181e-01 4.463818e-01 
6.447590e-01 5.964518e-01 3.580893e-01 2.287385e-01 4.541694e-01 9.297087e-01 9.530711e-01 5.277219e-01 3.671403e-01 1.029166e+00 2.765759e-01 1.044332e+00 6.201346e-01 4.290594e-01 4.271112e-01 3.861642e-01 3.396393e-01 3.861642e-01 4.271112e-01 4.290594e-01 6.201346e-01 1.044332e+00 2.765759e-01 1.029166e+00 3.671403e-01 5.277219e-01 9.530711e-01 9.297087e-01 4.541694e-01 2.287385e-01 3.580893e-01 5.964518e-01 
6.418563e-01 6.495946e-01 6.490465e-01 6.511357e-01 7.002502e-01 8.397976e-01 7.250786e-01 7.021961e-01 8.417820e-01 9.587757e-01 3.713689e-01 6.006649e-01 6.614118e-01 5.514129e-01 4.235652e-01 2.758056e-01 2.032841e-01 2.758056e-01 4.235652e-01 5.514129e-01 6.614118e-01 6.006649e-01 3.713689e-01 9.587757e-01 8.417820e-01 7.021961e-01 7.250786e-01 8.397976e-01 7.002502e-01 6.511357e-01 6.490465e-01 6.495946e-01 
7.640367e-15 6.418563e-01 1.127909e+00 1.183228e+00 9.020697e-01 3.045561e-01 6.767160e-01 9.415154e-01 1.164738e+00 6.008715e-01 5.275998e-01 2.683271e-02 5.365292e-01 5.771255e-01 4.346494e-01 2.032841e-01 1.456773e-14 2.032841e-01 4.346494e-01 5.771255e-01 5.365292e-01 2.683271e-02 5.275998e-01 6.008715e-01 1.164738e+00 9.415154e-01 6.767160e-01 3.045561e-01 9.020697e-01 1.183228e+00 1.127909e+00 6.418563e-01 
6.418563e-01 6.495946e-01 6.490465e-01 6.511357e-01 7.002502e-01 8.397976e-01 7.250786e-01 7.021961e-01 8.417820e-01 9.587757e-01 3.713689e-01 6.006649e-01 6.614118e-01 5.514129e-01 4.235652e-01 2.758056e-01 2.032841e-01 2.758056e-01 4.235652e-01 5.514129e-01 6.614118e-01 6.006649e-01 3.713689e-01 9.587757e-01 8.417820e-01 7.021961e-01 7.250786e-01 8.397976e-01 7.002502e-01 6.511357e-01 6.490465e-01 6.495946e-01 
6.447590e-01 5.964518e-01 3.580893e-01 2.287385e-01 4.541694e-01 9.297087e-01 9.530711e-01 5.277219e-01 3.671403e-01 1.029166e+00 2.765759e-01 1.044332e+00 6.201346e-01 4.290594e-01 4.271112e-01 3.861642e-01 3.396393e-01 3.861642e-01 4.271112e-01 4.290594e-01 6.201346e-01 1.044332e+00 2.765759e-01 1.029166e+00 3.671403e-01 5.277219e-01 9.530711e-01 9.297087e-01 4.541694e-01 2.287385e-01 3.580893e-01 5.964518e-01 
4.656269e-01 4.463818e-01 4.142181e-01 5.326220e-01 6.976009e-01 8.494658e-01 7.706193e-01 4.363367e-01 3.268501e-01 9.422450e-01 4.026228e-01 1.037417e+00 4.353991e-01 4.298791e-01 4.943931e-01 4.191269e-01 3.397353e-01 4.191269e-01 4.943931e-01 4.298791e-01 4.353991e-01 1.037417e+00 4.026228e-01 9.422450e-01 3.268501e-01 4.363367e-01 7.706193e-01 8.494658e-01 6.976009e-01 5.326220e-01 4.142181e-01 4.463818e-01 
2.527722e-01 2.753795e-01 3.507694e-01 4.596480e-01 5.586816e-01 7.016514e-01 5.365499e-01 2.952035e-01 2.024838e-01 8.346983e-01 3.811708e-01 9.434620e-01 1.700002e-01 7.018598e-01 6.178710e-01 4.142490e-01 2.064839e-01 4.142490e-01 6.178710e-01 7.018598e-01 1.700002e-01 9.434620e-01 3.811708e-01 8.346983e-01 2.024838e-01 2.952035e-01 5.365499e-01 7.016514e-01 5.586816e-01 4.596480e-01 3.507694e-01 2.753795e-01 
8.309482e-02 1.442358e-01 2.371430e-01 3.568543e-01 4.497539e-01 5.762179e-01 5.278494e-01 4.511951e-01 1.880678e-01 9.193285e-01 7.805907e-01 8.291287e-01 6.015835e-01 1.002837e+00 8.459560e-01 4.660514e-01 8.663837e-02 4.660514e-01 8.459560e-01 1.002837e+00 6.015835e-01 8.291287e-01 7.805907e-01 9.193285e-01 1.880678e-01 4.511951e-01 5.278494e-01 5.762179e-01 4.497539e-01 3.568543e-01 2.371430e-01 1.442358e-01 
1.617487e-02 9.158443e-02 1.786829e-01 2.691429e-01 4.089847e-01 5.530494e-01 6.986193e-01 3.908259e-01 4.071835e-01 8.146528e-01 1.602353e+00 4.669412e-01 3.925411e-01 9.550181e-01 7.472936e-01 5.514537e-01 6.635918e-01 5.514537e-01 7.472936e-01 9.550181e-01 3.925411e-01 4.669412e-01 1.602353e+00 8.146528e-01 4.071835e-01 3.908259e-01 6.986193e-01 5.530494e-01 4.089847e-01 2.691429e-01 1.786829e-01 9.158443e-02 
8.997945e-02 1.028991e-01 1.745951e-01 2.237021e-01 3.491248e-01 4.434167e-01 7.218509e-01 4.628225e-01 4.779595e-01 3.391295e-01 1.398513e+00 1.364947e+00 9.722568e-01 1.254138e+00 4.105671e-01 5.616327e-01 9.672329e-01 5.616327e-01 4.105671e-01 1.254138e+00 9.722568e-01 1.364947e+00 1.398513e+00 3.391295e-01 4.779595e-01 4.628225e-01 7.218509e-01 4.434167e-01 3.491248e-01 2.237021e-01 1.745951e-01 1.028991e-01 
1.199048e-01 1.184223e-01 1.690903e-01 1.950369e-01 2.918500e-01 3.718678e-01 5.967349e-01 6.883230e-01 4.830702e-01 5.695431e-01 5.280990e-01 1.332726e+00 1.192645e+00 1.564892e+00 1.090604e+00 4.968388e-01 3.926202e-01 4.968388e-01 1.090604e+00 1.564892e+00 1.192645e+00 1.332726e+00 5.280990e-01 5.695431e-01 4.830702e-01 6.883230e-01 5.967349e-01 3.718678e-01 2.918500e-01 1.950369e-01 1.690903e-01 1.184223e-01 
1.459400e-01 1.396232e-01 1.780686e-01 1.963754e-01 2.632585e-01 3.227085e-01 4.613764e-01 7.011909e-01 6.491161e-01 6.286273e-01 2.771677e-01 6.057376e-01 7.219971e-01 1.468392e+00 1.956746e+00 1.027466e+00 4.573967e-05 1.027466e+00 1.956746e+00 1.468392e+00 7.219971e-01 6.057376e-01 2.771677e-01 6.286273e-01 6.491161e-01 7.011909e-01 4.613764e-01 3.227085e-01 2.632585e-01 1.963754e-01 1.780686e-01 1.396232e-01 
1.433545e-01 1.370809e-01 1.665877e-01 1.818817e-01 2.331405e-01 2.818960e-01 3.670891e-01 5.119905e-01 6.382496e-01 6.967046e-01 6.443446e-01 3.783026e-01 5.103248e-01 6.848948e-01 7.424138e-01 1.540589e+00 1.528020e+00 1.540589e+00 7.424138e-01 6.848948e-01 5.103248e-01 3.783026e-01 6.443446e-01 6.967046e-01 6.382496e-01 5.119905e-01 3.670891e-01 2.818960e-01 2.331405e-01 1.818817e-01 1.665877e-01 1.370809e-01 
1.401979e-01 1.360261e-01 1.596113e-01 1.774779e-01 2.172595e-01 2.659277e-01 3.220532e-01 4.199618e-01 4.786872e-01 5.204888e-01 3.952542e-01 4.701187e-01 8.833154e-01 6.714607e-01 1.179780e+00 8.530855e-01 6.377147e-01 8.530855e-01 1.179780e+00 6.714607e-01 8.833154e-01 4.701187e-01 3.952542e-01 5.204888e-01 4.786872e-01 4.199618e-01 3.220532e-01 2.659277e-01 2.172595e-01 1.774779e-01 1.596113e-01 1.360261e-01 
1.195868e-01 1.176775e-01 1.395013e-01 1.611491e-01 1.988212e-01 2.494641e-01 3.072776e-01 4.006073e-01 4.901330e-01 5.993789e-01 6.216192e-01 3.355201e-01 7.368210e-01 1.553619e+00 1.103217e+00 4.953024e-01 1.825930e-01 4.953024e-01 1.103217e+00 1.553619e+00 7.368210e-01 3.355201e-01 6.216192e-01 5.993789e-01 4.901330e-01 4.006073e-01 3.072776e-01 2.494641e-01 1.988212e-01 1.611491e-01 1.395013e-01 1.176775e-01 
9.792937e-02 9.932431e-02 1.192880e-01 1.454528e-01 1.794451e-01 2.309310e-01 2.807313e-01 3.639829e-01 4.462029e-01 5.721915e-01 7.138752e-01 8.619010e-01 7.731167e-01 1.650429e-01 8.141061e-01 1.302398e+00 1.372362e+00 1.302398e+00 8.141061e-01 1.650429e-01 7.731167e-01 8.619010e-01 7.138752e-01 5.721915e-01 4.462029e-01 3.639829e-01 2.807313e-01 2.309310e-01 1.794451e-01 1.454528e-01 1.192880e-01 9.932431e-02 
6.689439e-02 7.252587e-02 9.607294e-02 1.291345e-01 1.666413e-01 2.205109e-01 2.742770e-01 3.506730e-01 4.289633e-01 5.272878e-01 6.358066e-01 7.593369e-01 9.026498e-01 9.874567e-01 9.194321e-01 7.833865e-01 8.045570e-01 7.833865e-01 9.194321e-01 9.874567e-01 9.026498e-01 7.593369e-01 6.358066e-01 5.272878e-01 4.289633e-01 3.506730e-01 2.742770e-01 2.205109e-01 1.666413e-01 1.291345e-01 9.607294e-02 7.252587e-02 
3.491495e-02 4.793406e-02 7.570260e-02 1.150470e-01 1.531181e-01 2.095675e-01 2.636887e-01 3.412680e-01 4.222982e-01 5.216400e-01 6.320880e-01 7.320842e-01 8.156378e-01 7.632612e-01 6.830659e-01 5.808572e-01 4.899554e-01 5.808572e-01 6.830659e-01 7.632612e-01 8.156378e-01 7.320842e-01 6.320880e-01 5.216400e-01 4.222982e-01 3.412680e-01 2.636887e-01 2.095675e-01 1.531181e-01 1.150470e-01 7.570260e-02 4.793406e-02 
