# vtk DataFile Version 2.0
Comment goes here
ASCII

DATASET STRUCTURED_POINTS
FIELD FieldData 1
TIME 1 1 double
0.78000000
DIMENSIONS    32   32   1

ORIGIN    0.000   0.000   0.000
SPACING   0.03125 0.03125   1.000

POINT_DATA   1024
SCALARS uMag double
LOOKUP_TABLE default

3.740076e-15 3.227614e-02 7.882982e-02 1.415471e-01 2.412712e-01 3.680898e-01 5.425199e-01 7.441734e-01 9.745400e-01 1.200510e+00 1.397857e+00 1.535425e+00 1.576380e+00 1.483630e+00 1.207731e+00 6.902244e-01 2.326763e-14 6.902244e-01 1.207731e+00 1.483630e+00 1.576380e+00 1.535425e+00 1.397857e+00 1.200510e+00 9.745400e-01 7.441734e-01 5.425199e-01 3.680898e-01 2.412712e-01 1.415471e-01 7.882982e-02 3.227614e-02 
3.227614e-02 4.806469e-02 8.851061e-02 1.510767e-01 2.491692e-01 3.726522e-01 5.397997e-01 7.275033e-01 9.408404e-01 1.145897e+00 1.326324e+00 1.451618e+00 1.489045e+00 1.414849e+00 1.195575e+00 8.744708e-01 6.902244e-01 8.744708e-01 1.195575e+00 1.414849e+00 1.489045e+00 1.451618e+00 1.326324e+00 1.145897e+00 9.408404e-01 7.275033e-01 5.397997e-01 3.726522e-01 2.491692e-01 1.510767e-01 8.851061e-02 4.806469e-02 
5.501563e-02 7.059803e-02 1.071540e-01 1.726566e-01 2.665059e-01 3.827716e-01 5.290454e-01 6.799999e-01 8.386372e-01 9.739530e-01 1.078239e+00 1.135252e+00 1.131138e+00 1.100543e+00 1.121540e+00 1.209016e+00 1.264983e+00 1.209016e+00 1.121540e+00 1.100543e+00 1.131138e+00 1.135252e+00 1.078239e+00 9.739530e-01 8.386372e-01 6.799999e-01 5.290454e-01 3.827716e-01 2.665059e-01 1.726566e-01 1.071540e-01 7.059803e-02 
5.551302e-02 7.918791e-02 1.245193e-01 2.025539e-01 2.980212e-01 4.112064e-01 5.393677e-01 6.518394e-01 7.520091e-01 8.001779e-01 8.126823e-01 7.887011e-01 7.712971e-01 8.561919e-01 1.111183e+00 1.435571e+00 1.561298e+00 1.435571e+00 1.111183e+00 8.561919e-01 7.712971e-01 7.887011e-01 8.126823e-01 8.001779e-01 7.520091e-01 6.518394e-01 5.393677e-01 4.112064e-01 2.980212e-01 2.025539e-01 1.245193e-01 7.918791e-02 
3.038534e-02 7.752177e-02 1.442183e-01 2.436524e-01 3.453724e-01 4.626440e-01 5.791444e-01 6.684017e-01 7.270813e-01 7.073214e-01 6.251902e-01 4.803187e-01 3.712589e-01 6.832898e-01 1.250742e+00 1.610646e+00 1.699592e+00 1.610646e+00 1.250742e+00 6.832898e-01 3.712589e-01 4.803187e-01 6.251902e-01 7.073214e-01 7.270813e-01 6.684017e-01 5.791444e-01 4.626440e-01 3.453724e-01 2.436524e-01 1.442183e-01 7.752177e-02 
3.433687e-02 8.301253e-02 1.680278e-01 2.897899e-01 4.013310e-01 5.262668e-01 6.355744e-01 7.077924e-01 7.433083e-01 6.732867e-01 5.276703e-01 2.741407e-01 3.541212e-01 7.816789e-01 1.242627e+00 1.505831e+00 1.578370e+00 1.505831e+00 1.242627e+00 7.816789e-01 3.541212e-01 2.741407e-01 5.276703e-01 6.732867e-01 7.433083e-01 7.077924e-01 6.355744e-01 5.262668e-01 4.013310e-01 2.897899e-01 1.680278e-01 8.301253e-02 
1.341441e-01 1.423895e-01 2.140959e-01 3.497669e-01 4.721108e-01 6.105737e-01 7.153340e-01 7.826459e-01 8.131808e-01 7.416303e-01 5.883929e-01 2.602165e-01 4.425485e-01 1.347502e+00 1.804811e+00 1.490630e+00 1.325610e+00 1.490630e+00 1.804811e+00 1.347502e+00 4.425485e-01 2.602165e-01 5.883929e-01 7.416303e-01 8.131808e-01 7.826459e-01 7.153340e-01 6.105737e-01 4.721108e-01 3.497669e-01 2.140959e-01 1.423895e-01 
2.798125e-01 2.541001e-01 2.787321e-01 4.066073e-01 5.409102e-01 7.010824e-01 8.076258e-01 8.739485e-01 9.229585e-01 8.551094e-01 5.400095e-01 6.921293e-01 1.895007e+00 1.803192e+00 9.587989e-01 5.238489e-01 6.205532e-01 5.238489e-01 9.587989e-01 1.803192e+00 1.895007e+00 6.921293e-01 5.400095e-01 8.551094e-01 9.229585e-01 8.739485e-01 8.076258e-01 7.010824e-01 5.409102e-01 4.066073e-01 2.787321e-01 2.541001e-01 
4.532333e-01 3.955714e-01 3.599724e-01 4.573614e-01 6.053378e-01 7.999431e-01 9.138226e-01 9.908644e-01 1.046442e+00 7.777678e-01 4.337178e-01 1.342105e+00 9.084362e-01 7.691425e-01 9.892948e-01 1.070298e+00 1.356648e+00 1.070298e+00 9.892948e-01 7.691425e-01 9.084362e-01 1.342105e+00 4.337178e-01 7.777678e-01 1.046442e+00 9.908644e-01 9.138226e-01 7.999431e-01 6.053378e-01 4.573614e-01 3.599724e-01 3.955714e-01 
6.557892e-01 5.629209e-01 4.499394e-01 4.787783e-01 6.374039e-01 8.857169e-01 1.007450e+00 1.075847e+00 1.106179e+00 5.677692e-01 4.537941e-01 3.698510e-01 3.227296e-01 1.836920e-01 1.264697e+00 1.541175e+00 1.575812e+00 1.541175e+00 1.264697e+00 1.836920e-01 3.227296e-01 3.698510e-01 4.537941e-01 5.677692e-01 1.106179e+00 1.075847e+00 1.007450e+00 8.857169e-01 6.374039e-01 4.787783e-01 4.499394e-01 5.629209e-01 
8.517913e-01 7.244041e-01 5.352777e-01 4.631111e-01 6.389560e-01 9.653815e-01 1.108374e+00 1.198303e+00 1.374892e+00 5.909525e-01 4.772007e-01 5.739398e-01 1.014772e+00 1.592903e+00 1.451160e+00 8.002552e-01 2.865988e-01 8.002552e-01 1.451160e+00 1.592903e+00 1.014772e+00 5.739398e-01 4.772007e-01 5.909525e-01 1.374892e+00 1.198303e+00 1.108374e+00 9.653815e-01 6.389560e-01 4.631111e-01 5.352777e-01 7.244041e-01 
1.027802e+00 8.740755e-01 6.155715e-01 3.945535e-01 5.728836e-01 1.010088e+00 1.105078e+00 1.602351e+00 1.820193e+00 4.386150e-01 1.130686e+00 8.396774e-01 9.460142e-01 7.462515e-01 5.948067e-01 2.562640e-01 1.697654e-01 2.562640e-01 5.948067e-01 7.462515e-01 9.460142e-01 8.396774e-01 1.130686e+00 4.386150e-01 1.820193e+00 1.602351e+00 1.105078e+00 1.010088e+00 5.728836e-01 3.945535e-01 6.155715e-01 8.740755e-01 
1.125400e+00 9.645801e-01 6.789285e-01 2.765842e-01 4.332242e-01 9.524408e-01 1.003426e+00 1.888101e+00 1.784849e+00 1.167073e+00 8.166088e-01 3.230453e-01 6.113926e-01 5.081066e-01 4.771669e-01 2.196580e-01 1.660499e-01 2.196580e-01 4.771669e-01 5.081066e-01 6.113926e-01 3.230453e-01 8.166088e-01 1.167073e+00 1.784849e+00 1.888101e+00 1.003426e+00 9.524408e-01 4.332242e-01 2.765842e-01 6.789285e-01 9.645801e-01 
1.116930e+00 9.883202e-01 7.359690e-01 3.274555e-01 1.839477e-01 6.786505e-01 1.199349e+00 2.402645e+00 1.290504e+00 1.386722e+00 3.437701e-01 4.368798e-01 5.715054e-01 4.656357e-01 4.473622e-01 2.421328e-01 2.264798e-01 2.421328e-01 4.473622e-01 4.656357e-01 5.715054e-01 4.368798e-01 3.437701e-01 1.386722e+00 1.290504e+00 2.402645e+00 1.199349e+00 6.786505e-01 1.839477e-01 3.274555e-01 7.359690e-01 9.883202e-01 
9.267688e-01 8.877766e-01 8.031043e-01 6.765642e-01 4.161128e-01 5.243482e-01 1.447986e+00 2.068133e+00 1.165454e+00 9.828173e-01 4.440855e-01 6.075736e-01 4.690895e-01 4.262912e-01 3.345082e-01 1.946220e-01 1.815757e-01 1.946220e-01 3.345082e-01 4.262912e-01 4.690895e-01 6.075736e-01 4.440855e-01 9.828173e-01 1.165454e+00 2.068133e+00 1.447986e+00 5.243482e-01 4.161128e-01 6.765642e-01 8.031043e-01 8.877766e-01 
5.766296e-01 7.123802e-01 9.658279e-01 1.183480e+00 1.267683e+00 1.207664e+00 1.476400e+00 1.148874e+00 1.149380e+00 5.194747e-01 5.846150e-01 7.442857e-01 5.439102e-01 4.595705e-01 2.773462e-01 1.607547e-01 1.285307e-01 1.607547e-01 2.773462e-01 4.595705e-01 5.439102e-01 7.442857e-01 5.846150e-01 5.194747e-01 1.149380e+00 1.148874e+00 1.476400e+00 1.207664e+00 1.267683e+00 1.183480e+00 9.658279e-01 7.123802e-01 
3.148074e-14 5.766296e-01 1.082147e+00 1.509704e+00 1.761042e+00 1.636529e+00 1.064463e+00 7.600488e-01 1.159943e+00 6.538616e-01 9.292693e-01 9.678955e-01 6.925096e-01 5.356755e-01 2.653273e-01 1.285307e-01 1.477132e-14 1.285307e-01 2.653273e-01 5.356755e-01 6.925096e-01 9.678955e-01 9.292693e-01 6.538616e-01 1.159943e+00 7.600488e-01 1.064463e+00 1.636529e+00 1.761042e+00 1.509704e+00 1.082147e+00 5.766296e-01 
5.766296e-01 7.123802e-01 9.658279e-01 1.183480e+00 1.267683e+00 1.207664e+00 1.476400e+00 1.148874e+00 1.149380e+00 5.194747e-01 5.846150e-01 7.442857e-01 5.439102e-01 4.595705e-01 2.773462e-01 1.607547e-01 1.285307e-01 1.607547e-01 2.773462e-01 4.595705e-01 5.439102e-01 7.442857e-01 5.846150e-01 5.194747e-01 1.149380e+00 1.148874e+00 1.476400e+00 1.207664e+00 1.267683e+00 1.183480e+00 9.658279e-01 7.123802e-01 
9.267688e-01 8.877766e-01 8.031043e-01 6.765642e-01 4.161128e-01 5.243482e-01 1.447986e+00 2.068133e+00 1.165454e+00 9.828173e-01 4.440855e-01 6.075736e-01 4.690895e-01 4.262912e-01 3.345082e-01 1.946220e-01 1.815757e-01 1.946220e-01 3.345082e-01 4.262912e-01 4.690895e-01 6.075736e-01 4.440855e-01 9.828173e-01 1.165454e+00 2.068133e+00 1.447986e+00 5.243482e-01 4.161128e-01 6.765642e-01 8.031043e-01 8.877766e-01 
1.116930e+00 9.883202e-01 7.359690e-01 3.274555e-01 1.839477e-01 6.786505e-01 1.199349e+00 2.402645e+00 1.290504e+00 1.386722e+00 3.437701e-01 4.368798e-01 5.715054e-01 4.656357e-01 4.473622e-01 2.421328e-01 2.264798e-01 2.421328e-01 4.473622e-01 4.656357e-01 5.715054e-01 4.368798e-01 3.437701e-01 1.386722e+00 1.290504e+00 2.402645e+00 1.199349e+00 6.786505e-01 1.839477e-01 3.274555e-01 7.359690e-01 9.883202e-01 
1.125400e+00 9.645801e-01 6.789285e-01 2.765842e-01 4.332242e-01 9.524408e-01 1.003426e+00 1.888101e+00 1.784849e+00 1.167073e+00 8.166088e-01 3.230453e-01 6.113926e-01 5.081066e-01 4.771669e-01 2.196580e-01 1.660499e-01 2.196580e-01 4.771669e-01 5.081066e-01 6.113926e-01 3.230453e-01 8.166088e-01 1.167073e+00 1.784849e+00 1.888101e+00 1.003426e+00 9.524408e-01 4.332242e-01 2.765842e-01 6.789285e-01 9.645801e-01 
1.027802e+00 8.740755e-01 6.155715e-01 3.945535e-01 5.728836e-01 1.010088e+00 1.105078e+00 1.602351e+00 1.820193e+00 4.386150e-01 1.130686e+00 8.396774e-01 9.460142e-01 7.462515e-01 5.948067e-01 2.562640e-01 1.697654e-01 2.562640e-01 5.948067e-01 7.462515e-01 9.460142e-01 8.396774e-01 1.130686e+00 4.386150e-01 1.820193e+00 1.602351e+00 1.105078e+00 1.010088e+00 5.728836e-01 3.945535e-01 6.155715e-01 8.740755e-01 
8.517913e-01 7.244041e-01 5.352777e-01 4.631111e-01 6.389560e-01 9.653815e-01 1.108374e+00 1.198303e+00 1.374892e+00 5.909525e-01 4.772007e-01 5.739398e-01 1.014772e+00 1.592903e+00 1.451160e+00 8.002552e-01 2.865988e-01 8.002552e-01 1.451160e+00 1.592903e+00 1.014772e+00 5.739398e-01 4.772007e-01 5.909525e-01 1.374892e+00 1.198303e+00 1.108374e+00 9.653815e-01 6.389560e-01 4.631111e-01 5.352777e-01 7.244041e-01 
6.557892e-01 5.629209e-01 4.499394e-01 4.787783e-01 6.374039e-01 8.857169e-01 1.007450e+00 1.075847e+00 1.106179e+00 5.677692e-01 4.537941e-01 3.698510e-01 3.227296e-01 1.836920e-01 1.264697e+00 1.541175e+00 1.575812e+00 1.541175e+00 1.264697e+00 1.836920e-01 3.227296e-01 3.698510e-01 4.537941e-01 5.677692e-01 1.106179e+00 1.075847e+00 1.007450e+00 8.857169e-01 6.374039e-01 4.787783e-01 4.499394e-01 5.629209e-01 
4.532333e-01 3.955714e-01 3.599724e-01 4.573614e-01 6.053378e-01 7.999431e-01 9.138226e-01 9.908644e-01 1.046442e+00 7.777678e-01 4.337178e-01 1.342105e+00 9.084362e-01 7.691425e-01 9.892948e-01 1.070298e+00 1.356648e+00 1.070298e+00 9.892948e-01 7.691425e-01 9.084362e-01 1.342105e+00 4.337178e-01 7.777678e-01 1.046442e+00 9.908644e-01 9.138226e-01 7.999431e-01 6.053378e-01 4.573614e-01 3.599724e-01 3.955714e-01 
2.798125e-01 2.541001e-01 2.787321e-01 4.066073e-01 5.409102e-01 7.010824e-01 8.076258e-01 8.739485e-01 9.229585e-01 8.551094e-01 5.400095e-01 6.921293e-01 1.895007e+00 1.803192e+00 9.587989e-01 5.238489e-01 6.205532e-01 5.238489e-01 9.587989e-01 1.803192e+00 1.895007e+00 6.921293e-01 5.400095e-01 8.551094e-01 9.229585e-01 8.739485e-01 8.076258e-01 7.010824e-01 5.409102e-01 4.066073e-01 2.787321e-01 2.541001e-01 
1.341441e-01 1.423895e-01 2.140959e-01 3.497669e-01 4.721108e-01 6.105737e-01 7.153340e-01 7.826459e-01 8.131808e-01 7.416303e-01 5.883929e-01 2.602165e-01 4.425485e-01 1.347502e+00 1.804811e+00 1.490630e+00 1.325610e+00 1.490630e+00 1.804811e+00 1.347502e+00 4.425485e-01 2.602165e-01 5.883929e-01 7.416303e-01 8.131808e-01 7.826459e-01 7.153340e-01 6.105737e-01 4.721108e-01 3.497669e-01 2.140959e-01 1.423895e-01 
3.433687e-02 8.301253e-02 1.680278e-01 2.897899e-01 4.013310e-01 5.262668e-01 6.355744e-01 7.077924e-01 7.433083e-01 6.732867e-01 5.276703e-01 2.741407e-01 3.541212e-01 7.816789e-01 1.242627e+00 1.505831e+00 1.578370e+00 1.505831e+00 1.242627e+00 7.816789e-01 3.541212e-01 2.741407e-01 5.276703e-01 6.732867e-01 7.433083e-01 7.077924e-01 6.355744e-01 5.262668e-01 4.013310e-01 2.897899e-01 1.680278e-01 8.301253e-02 
3.038534e-02 7.752177e-02 1.442183e-01 2.436524e-01 3.453724e-01 4.626440e-01 5.791444e-01 6.684017e-01 7.270813e-01 7.073214e-01 6.251902e-01 4.803187e-01 3.712589e-01 6.832898e-01 1.250742e+00 1.610646e+00 1.699592e+00 1.610646e+00 1.250742e+00 6.832898e-01 3.712589e-01 4.803187e-01 6.251902e-01 7.073214e-01 7.270813e-01 6.684017e-01 5.791444e-01 4.626440e-01 3.453724e-01 2.436524e-01 1.442183e-01 7.752177e-02 
5.551302e-02 7.918791e-02 1.245193e-01 2.025539e-01 2.980212e-01 4.112064e-01 5.393677e-01 6.518394e-01 7.520091e-01 8.001779e-01 8.126823e-01 7.887011e-01 7.712971e-01 8.561919e-01 1.111183e+00 1.435571e+00 1.561298e+00 1.435571e+00 1.111183e+00 8.561919e-01 7.712971e-01 7.887011e-01 8.126823e-01 8.001779e-01 7.520091e-01 6.518394e-01 5.393677e-01 4.112064e-01 2.980212e-01 2.025539e-01 1.245193e-01 7.918791e-02 
5.501563e-02 7.059803e-02 1.071540e-01 1.726566e-01 2.665059e-01 3.827716e-01 5.290454e-01 6.799999e-01 8.386372e-01 9.739530e-01 1.078239e+00 1.135252e+00 1.131138e+00 1.100543e+00 1.121540e+00 1.209016e+00 1.264983e+00 1.209016e+00 1.121540e+00 1.100543e+00 1.131138e+00 1.135252e+00 1.078239e+00 9.739530e-01 8.386372e-01 6.799999e-01 5.290454e-01 3.827716e-01 2.665059e-01 1.726566e-01 1.071540e-01 7.059803e-02 
3.227614e-02 4.806469e-02 8.851061e-02 1.510767e-01 2.491692e-01 3.726522e-01 5.397997e-01 7.275033e-01 9.408404e-01 1.145897e+00 1.326324e+00 1.451618e+00 1.489045e+00 1.414849e+00 1.195575e+00 8.744708e-01 6.902244e-01 8.744708e-01 1.195575e+00 1.414849e+00 1.489045e+00 1.451618e+00 1.326324e+00 1.145897e+00 9.408404e-01 7.275033e-01 5.397997e-01 3.726522e-01 2.491692e-01 1.510767e-01 8.851061e-02 4.806469e-02 
