# vtk DataFile Version 2.0
Comment goes here
ASCII

DATASET STRUCTURED_POINTS
FIELD FieldData 1
TIME 1 1 double
0.92000000
DIMENSIONS    32   32   1

ORIGIN    0.000   0.000   0.000
SPACING   0.03125 0.03125   1.000

POINT_DATA   1024
SCALARS uMag double
LOOKUP_TABLE default

5.719132e-15 3.172008e-02 7.954772e-02 1.505623e-01 2.609057e-01 4.070662e-01 5.966195e-01 8.176389e-01 1.053470e+00 1.287614e+00 1.475146e+00 1.606250e+00 1.622855e+00 1.513321e+00 1.220102e+00 7.126810e-01 2.306648e-14 7.126810e-01 1.220102e+00 1.513321e+00 1.622855e+00 1.606250e+00 1.475146e+00 1.287614e+00 1.053470e+00 8.176389e-01 5.966195e-01 4.070662e-01 2.609057e-01 1.505623e-01 7.954772e-02 3.172008e-02 
3.172008e-02 4.645157e-02 8.753523e-02 1.561873e-01 2.620749e-01 3.998846e-01 5.762597e-01 7.761755e-01 9.874908e-01 1.192797e+00 1.355697e+00 1.470144e+00 1.485463e+00 1.406129e+00 1.197888e+00 8.958989e-01 7.126810e-01 8.958989e-01 1.197888e+00 1.406129e+00 1.485463e+00 1.470144e+00 1.355697e+00 1.192797e+00 9.874908e-01 7.761755e-01 5.762597e-01 3.998846e-01 2.620749e-01 1.561873e-01 8.753523e-02 4.645157e-02 
4.799117e-02 6.458386e-02 1.075432e-01 1.813159e-01 2.861182e-01 4.144793e-01 5.704073e-01 7.319777e-01 8.944249e-01 1.040652e+00 1.145380e+00 1.219588e+00 1.220766e+00 1.187529e+00 1.169717e+00 1.238926e+00 1.312209e+00 1.238926e+00 1.169717e+00 1.187529e+00 1.220766e+00 1.219588e+00 1.145380e+00 1.040652e+00 8.944249e-01 7.319777e-01 5.704073e-01 4.144793e-01 2.861182e-01 1.813159e-01 1.075432e-01 6.458386e-02 
4.429478e-02 7.399460e-02 1.325928e-01 2.225151e-01 3.312338e-01 4.532570e-01 5.864394e-01 6.974653e-01 7.915148e-01 8.360898e-01 8.363229e-01 8.173127e-01 7.815383e-01 8.755590e-01 1.171119e+00 1.547795e+00 1.732992e+00 1.547795e+00 1.171119e+00 8.755590e-01 7.815383e-01 8.173127e-01 8.363229e-01 8.360898e-01 7.915148e-01 6.974653e-01 5.864394e-01 4.532570e-01 3.312338e-01 2.225151e-01 1.325928e-01 7.399460e-02 
7.337554e-04 7.065881e-02 1.526429e-01 2.657967e-01 3.839531e-01 5.084791e-01 6.284544e-01 7.063860e-01 7.531672e-01 7.200859e-01 6.336581e-01 5.449378e-01 4.979870e-01 6.730056e-01 1.176190e+00 1.700243e+00 1.900636e+00 1.700243e+00 1.176190e+00 6.730056e-01 4.979870e-01 5.449378e-01 6.336581e-01 7.200859e-01 7.531672e-01 7.063860e-01 6.284544e-01 5.084791e-01 3.839531e-01 2.657967e-01 1.526429e-01 7.065881e-02 
7.535471e-02 1.030705e-01 1.901390e-01 3.278298e-01 4.622964e-01 6.018347e-01 7.214393e-01 7.845864e-01 8.137232e-01 7.165694e-01 5.729182e-01 3.284505e-01 2.882365e-01 7.484735e-01 1.331271e+00 1.755073e+00 1.872998e+00 1.755073e+00 1.331271e+00 7.484735e-01 2.882365e-01 3.284505e-01 5.729182e-01 7.165694e-01 8.137232e-01 7.845864e-01 7.214393e-01 6.018347e-01 4.622964e-01 3.278298e-01 1.901390e-01 1.030705e-01 
1.997459e-01 1.915087e-01 2.415790e-01 3.837349e-01 5.303034e-01 6.861129e-01 8.006468e-01 8.512476e-01 8.626834e-01 7.310274e-01 5.447323e-01 3.283393e-01 4.316965e-01 7.445843e-01 1.329576e+00 1.689826e+00 1.717939e+00 1.689826e+00 1.329576e+00 7.445843e-01 4.316965e-01 3.283393e-01 5.447323e-01 7.310274e-01 8.626834e-01 8.512476e-01 8.006468e-01 6.861129e-01 5.303034e-01 3.837349e-01 2.415790e-01 1.915087e-01 
3.543339e-01 3.153282e-01 3.086353e-01 4.341764e-01 5.969264e-01 7.885379e-01 9.166861e-01 9.807285e-01 1.018000e+00 8.587531e-01 7.917015e-01 2.301953e-01 9.616411e-01 1.706747e+00 1.794623e+00 1.439818e+00 1.133450e+00 1.439818e+00 1.794623e+00 1.706747e+00 9.616411e-01 2.301953e-01 7.917015e-01 8.587531e-01 1.018000e+00 9.807285e-01 9.166861e-01 7.885379e-01 5.969264e-01 4.341764e-01 3.086353e-01 3.153282e-01 
5.410842e-01 4.698558e-01 3.921718e-01 4.654199e-01 6.430437e-01 8.790397e-01 1.023949e+00 1.098994e+00 1.159775e+00 1.012597e+00 4.823742e-01 1.158022e+00 1.856792e+00 1.208268e+00 7.557877e-01 7.421064e-01 6.219040e-01 7.421064e-01 7.557877e-01 1.208268e+00 1.856792e+00 1.158022e+00 4.823742e-01 1.012597e+00 1.159775e+00 1.098994e+00 1.023949e+00 8.790397e-01 6.430437e-01 4.654199e-01 3.921718e-01 4.698558e-01 
7.357819e-01 6.319396e-01 4.747953e-01 4.607626e-01 6.463501e-01 9.532427e-01 1.124075e+00 1.300481e+00 1.366336e+00 7.877737e-01 3.101624e-01 8.497072e-01 5.503362e-01 5.985150e-01 8.576504e-01 1.460451e+00 1.538693e+00 1.460451e+00 8.576504e-01 5.985150e-01 5.503362e-01 8.497072e-01 3.101624e-01 7.877737e-01 1.366336e+00 1.300481e+00 1.124075e+00 9.532427e-01 6.463501e-01 4.607626e-01 4.747953e-01 6.319396e-01 
9.253990e-01 7.885034e-01 5.555787e-01 4.194932e-01 6.336822e-01 1.032208e+00 1.277860e+00 1.448483e+00 1.622401e+00 8.312015e-01 4.499528e-01 3.770277e-01 7.090363e-01 1.320446e+00 1.631754e+00 1.352447e+00 9.504708e-01 1.352447e+00 1.631754e+00 1.320446e+00 7.090363e-01 3.770277e-01 4.499528e-01 8.312015e-01 1.622401e+00 1.448483e+00 1.277860e+00 1.032208e+00 6.336822e-01 4.194932e-01 5.555787e-01 7.885034e-01 
1.076143e+00 9.189402e-01 6.214664e-01 3.337582e-01 5.371018e-01 1.024259e+00 1.221081e+00 1.761409e+00 2.130393e+00 4.970406e-01 1.268333e+00 1.150136e+00 1.576028e+00 1.223001e+00 8.760568e-01 4.270215e-01 6.658927e-02 4.270215e-01 8.760568e-01 1.223001e+00 1.576028e+00 1.150136e+00 1.268333e+00 4.970406e-01 2.130393e+00 1.761409e+00 1.221081e+00 1.024259e+00 5.371018e-01 3.337582e-01 6.214664e-01 9.189402e-01 
1.158927e+00 9.940203e-01 6.737766e-01 2.028489e-01 3.474949e-01 9.468218e-01 1.151871e+00 2.311228e+00 2.092309e+00 1.475808e+00 1.234907e+00 7.685189e-01 7.288641e-01 5.321441e-01 5.583218e-01 4.462619e-01 3.445241e-01 4.462619e-01 5.583218e-01 5.321441e-01 7.288641e-01 7.685189e-01 1.234907e+00 1.475808e+00 2.092309e+00 2.311228e+00 1.151871e+00 9.468218e-01 3.474949e-01 2.028489e-01 6.737766e-01 9.940203e-01 
1.112139e+00 9.823448e-01 7.057826e-01 3.215462e-01 1.499309e-01 6.789249e-01 1.285663e+00 2.682324e+00 1.222864e+00 1.792189e+00 4.910774e-01 6.204717e-01 6.370591e-01 5.402793e-01 4.377904e-01 2.589127e-01 1.637436e-01 2.589127e-01 4.377904e-01 5.402793e-01 6.370591e-01 6.204717e-01 4.910774e-01 1.792189e+00 1.222864e+00 2.682324e+00 1.285663e+00 6.789249e-01 1.499309e-01 3.215462e-01 7.057826e-01 9.823448e-01 
9.123493e-01 8.764029e-01 7.828162e-01 7.000025e-01 4.892378e-01 5.206547e-01 1.424715e+00 2.504565e+00 1.362423e+00 1.175841e+00 4.422100e-01 6.088370e-01 4.719977e-01 4.285228e-01 3.500018e-01 2.671030e-01 2.246007e-01 2.671030e-01 3.500018e-01 4.285228e-01 4.719977e-01 6.088370e-01 4.422100e-01 1.175841e+00 1.362423e+00 2.504565e+00 1.424715e+00 5.206547e-01 4.892378e-01 7.000025e-01 7.828162e-01 8.764029e-01 
5.214279e-01 6.639592e-01 9.070853e-01 1.097850e+00 1.179406e+00 1.043580e+00 1.447234e+00 1.420752e+00 1.592433e+00 7.440560e-01 8.407617e-01 7.640272e-01 6.487680e-01 4.933218e-01 3.219849e-01 1.728017e-01 1.037298e-01 1.728017e-01 3.219849e-01 4.933218e-01 6.487680e-01 7.640272e-01 8.407617e-01 7.440560e-01 1.592433e+00 1.420752e+00 1.447234e+00 1.043580e+00 1.179406e+00 1.097850e+00 9.070853e-01 6.639592e-01 
2.668052e-14 5.214279e-01 9.648761e-01 1.274970e+00 1.498425e+00 1.327092e+00 1.187713e+00 9.624590e-01 1.543306e+00 5.467878e-01 9.959922e-01 8.804833e-01 7.053064e-01 4.683156e-01 2.626714e-01 1.037298e-01 2.426254e-14 1.037298e-01 2.626714e-01 4.683156e-01 7.053064e-01 8.804833e-01 9.959922e-01 5.467878e-01 1.543306e+00 9.624590e-01 1.187713e+00 1.327092e+00 1.498425e+00 1.274970e+00 9.648761e-01 5.214279e-01 
5.214279e-01 6.639592e-01 9.070853e-01 1.097850e+00 1.179406e+00 1.043580e+00 1.447234e+00 1.420752e+00 1.592433e+00 7.440560e-01 8.407617e-01 7.640272e-01 6.487680e-01 4.933218e-01 3.219849e-01 1.728017e-01 1.037298e-01 1.728017e-01 3.219849e-01 4.933218e-01 6.487680e-01 7.640272e-01 8.407617e-01 7.440560e-01 1.592433e+00 1.420752e+00 1.447234e+00 1.043580e+00 1.179406e+00 1.097850e+00 9.070853e-01 6.639592e-01 
9.123493e-01 8.764029e-01 7.828162e-01 7.000025e-01 4.892378e-01 5.206547e-01 1.424715e+00 2.504565e+00 1.362423e+00 1.175841e+00 4.422100e-01 6.088370e-01 4.719977e-01 4.285228e-01 3.500018e-01 2.671030e-01 2.246007e-01 2.671030e-01 3.500018e-01 4.285228e-01 4.719977e-01 6.088370e-01 4.422100e-01 1.175841e+00 1.362423e+00 2.504565e+00 1.424715e+00 5.206547e-01 4.892378e-01 7.000025e-01 7.828162e-01 8.764029e-01 
1.112139e+00 9.823448e-01 7.057826e-01 3.215462e-01 1.499309e-01 6.789249e-01 1.285663e+00 2.682324e+00 1.222864e+00 1.792189e+00 4.910774e-01 6.204717e-01 6.370591e-01 5.402793e-01 4.377904e-01 2.589127e-01 1.637436e-01 2.589127e-01 4.377904e-01 5.402793e-01 6.370591e-01 6.204717e-01 4.910774e-01 1.792189e+00 1.222864e+00 2.682324e+00 1.285663e+00 6.789249e-01 1.499309e-01 3.215462e-01 7.057826e-01 9.823448e-01 
1.158927e+00 9.940203e-01 6.737766e-01 2.028489e-01 3.474949e-01 9.468218e-01 1.151871e+00 2.311228e+00 2.092309e+00 1.475808e+00 1.234907e+00 7.685189e-01 7.288641e-01 5.321441e-01 5.583218e-01 4.462619e-01 3.445241e-01 4.462619e-01 5.583218e-01 5.321441e-01 7.288641e-01 7.685189e-01 1.234907e+00 1.475808e+00 2.092309e+00 2.311228e+00 1.151871e+00 9.468218e-01 3.474949e-01 2.028489e-01 6.737766e-01 9.940203e-01 
1.076143e+00 9.189402e-01 6.214664e-01 3.337582e-01 5.371018e-01 1.024259e+00 1.221081e+00 1.761409e+00 2.130393e+00 4.970406e-01 1.268333e+00 1.150136e+00 1.576028e+00 1.223001e+00 8.760568e-01 4.270215e-01 6.658927e-02 4.270215e-01 8.760568e-01 1.223001e+00 1.576028e+00 1.150136e+00 1.268333e+00 4.970406e-01 2.130393e+00 1.761409e+00 1.221081e+00 1.024259e+00 5.371018e-01 3.337582e-01 6.214664e-01 9.189402e-01 
9.253990e-01 7.885034e-01 5.555787e-01 4.194932e-01 6.336822e-01 1.032208e+00 1.277860e+00 1.448483e+00 1.622401e+00 8.312015e-01 4.499528e-01 3.770277e-01 7.090363e-01 1.320446e+00 1.631754e+00 1.352447e+00 9.504708e-01 1.352447e+00 1.631754e+00 1.320446e+00 7.090363e-01 3.770277e-01 4.499528e-01 8.312015e-01 1.622401e+00 1.448483e+00 1.277860e+00 1.032208e+00 6.336822e-01 4.194932e-01 5.555787e-01 7.885034e-01 
7.357819e-01 6.319396e-01 4.747953e-01 4.607626e-01 6.463501e-01 9.532427e-01 1.124075e+00 1.300481e+00 1.366336e+00 7.877737e-01 3.101624e-01 8.497072e-01 5.503362e-01 5.985150e-01 8.576504e-01 1.460451e+00 1.538693e+00 1.460451e+00 8.576504e-01 5.985150e-01 5.503362e-01 8.497072e-01 3.101624e-01 7.877737e-01 1.366336e+00 1.300481e+00 1.124075e+00 9.532427e-01 6.463501e-01 4.607626e-01 4.747953e-01 6.319396e-01 
5.410842e-01 4.698558e-01 3.921718e-01 4.654199e-01 6.430437e-01 8.790397e-01 1.023949e+00 1.098994e+00 1.159775e+00 1.012597e+00 4.823742e-01 1.158022e+00 1.856792e+00 1.208268e+00 7.557877e-01 7.421064e-01 6.219040e-01 7.421064e-01 7.557877e-01 1.208268e+00 1.856792e+00 1.158022e+00 4.823742e-01 1.012597e+00 1.159775e+00 1.098994e+00 1.023949e+00 8.790397e-01 6.430437e-01 4.654199e-01 3.921718e-01 4.698558e-01 
3.543339e-01 3.153282e-01 3.086353e-01 4.341764e-01 5.969264e-01 7.885379e-01 9.166861e-01 9.807285e-01 1.018000e+00 8.587531e-01 7.917015e-01 2.301953e-01 9.616411e-01 1.706747e+00 1.794623e+00 1.439818e+00 1.133450e+00 1.439818e+00 1.794623e+00 1.706747e+00 9.616411e-01 2.301953e-01 7.917015e-01 8.587531e-01 1.018000e+00 9.807285e-01 9.166861e-01 7.885379e-01 5.969264e-01 4.341764e-01 3.086353e-01 3.153282e-01 
1.997459e-01 1.915087e-01 2.415790e-01 3.837349e-01 5.303034e-01 6.861129e-01 8.006468e-01 8.512476e-01 8.626834e-01 7.310274e-01 5.447323e-01 3.283393e-01 4.316965e-01 7.445843e-01 1.329576e+00 1.689826e+00 1.717939e+00 1.689826e+00 1.329576e+00 7.445843e-01 4.316965e-01 3.283393e-01 5.447323e-01 7.310274e-01 8.626834e-01 8.512476e-01 8.006468e-01 6.861129e-01 5.303034e-01 3.837349e-01 2.415790e-01 1.915087e-01 
7.535471e-02 1.030705e-01 1.901390e-01 3.278298e-01 4.622964e-01 6.018347e-01 7.214393e-01 7.845864e-01 8.137232e-01 7.165694e-01 5.729182e-01 3.284505e-01 2.882365e-01 7.484735e-01 1.331271e+00 1.755073e+00 1.872998e+00 1.755073e+00 1.331271e+00 7.484735e-01 2.882365e-01 3.284505e-01 5.729182e-01 7.165694e-01 8.137232e-01 7.845864e-01 7.214393e-01 6.018347e-01 4.622964e-01 3.278298e-01 1.901390e-01 1.030705e-01 
7.337554e-04 7.065881e-02 1.526429e-01 2.657967e-01 3.839531e-01 5.084791e-01 6.284544e-01 7.063860e-01 7.531672e-01 7.200859e-01 6.336581e-01 5.449378e-01 4.979870e-01 6.730056e-01 1.176190e+00 1.700243e+00 1.900636e+00 1.700243e+00 1.176190e+00 6.730056e-01 4.979870e-01 5.449378e-01 6.336581e-01 7.200859e-01 7.531672e-01 7.063860e-01 6.284544e-01 5.084791e-01 3.839531e-01 2.657967e-01 1.526429e-01 7.065881e-02 
4.429478e-02 7.399460e-02 1.325928e-01 2.225151e-01 3.312338e-01 4.532570e-01 5.864394e-01 6.974653e-01 7.915148e-01 8.360898e-01 8.363229e-01 8.173127e-01 7.815383e-01 8.755590e-01 1.171119e+00 1.547795e+00 1.732992e+00 1.547795e+00 1.171119e+00 8.755590e-01 7.815383e-01 8.173127e-01 8.363229e-01 8.360898e-01 7.915148e-01 6.974653e-01 5.864394e-01 4.532570e-01 3.312338e-01 2.225151e-01 1.325928e-01 7.399460e-02 
4.799117e-02 6.458386e-02 1.075432e-01 1.813159e-01 2.861182e-01 4.144793e-01 5.704073e-01 7.319777e-01 8.944249e-01 1.040652e+00 1.145380e+00 1.219588e+00 1.220766e+00 1.187529e+00 1.169717e+00 1.238926e+00 1.312209e+00 1.238926e+00 1.169717e+00 1.187529e+00 1.220766e+00 1.219588e+00 1.145380e+00 1.040652e+00 8.944249e-01 7.319777e-01 5.704073e-01 4.144793e-01 2.861182e-01 1.813159e-01 1.075432e-01 6.458386e-02 
3.172008e-02 4.645157e-02 8.753523e-02 1.561873e-01 2.620749e-01 3.998846e-01 5.762597e-01 7.761755e-01 9.874908e-01 1.192797e+00 1.355697e+00 1.470144e+00 1.485463e+00 1.406129e+00 1.197888e+00 8.958989e-01 7.126810e-01 8.958989e-01 1.197888e+00 1.406129e+00 1.485463e+00 1.470144e+00 1.355697e+00 1.192797e+00 9.874908e-01 7.761755e-01 5.762597e-01 3.998846e-01 2.620749e-01 1.561873e-01 8.753523e-02 4.645157e-02 
