# vtk DataFile Version 2.0
Comment goes here
ASCII

DATASET STRUCTURED_POINTS
FIELD FieldData 1
TIME 1 1 double
0.58000000
DIMENSIONS    32   32   1

ORIGIN    0.000   0.000   0.000
SPACING   0.03125 0.03125   1.000

POINT_DATA   1024
SCALARS uX double
LOOKUP_TABLE default

-5.208121e-15 -2.612939e-02 -5.628607e-02 -1.048022e-01 -1.589394e-01 -2.507698e-01 -3.391513e-01 -4.912981e-01 -6.209011e-01 -8.375306e-01 -9.854964e-01 -1.203504e+00 -1.268174e+00 -1.320267e+00 -1.120252e+00 -7.568685e-01 1.581372e-14 7.568685e-01 1.120252e+00 1.320267e+00 1.268174e+00 1.203504e+00 9.854964e-01 8.375306e-01 6.209011e-01 4.912981e-01 3.391513e-01 2.507698e-01 1.589394e-01 1.048022e-01 5.628607e-02 2.612939e-02 
-4.594716e-15 -2.254139e-02 -5.000460e-02 -9.456106e-02 -1.463372e-01 -2.319962e-01 -3.145207e-01 -4.536410e-01 -5.679085e-01 -7.617486e-01 -8.866592e-01 -1.083681e+00 -1.140054e+00 -1.200615e+00 -1.030530e+00 -6.989171e-01 1.171443e-14 6.989171e-01 1.030530e+00 1.200615e+00 1.140054e+00 1.083681e+00 8.866592e-01 7.617486e-01 5.679085e-01 4.536410e-01 3.145207e-01 2.319962e-01 1.463372e-01 9.456106e-02 5.000460e-02 2.254139e-02 
-1.414268e-15 -1.405836e-02 -3.520507e-02 -7.359908e-02 -1.221931e-01 -2.015470e-01 -2.759938e-01 -3.985708e-01 -4.862565e-01 -6.459709e-01 -7.259385e-01 -8.990413e-01 -9.277798e-01 -9.916483e-01 -8.534870e-01 -5.623482e-01 1.716341e-14 5.623482e-01 8.534870e-01 9.916483e-01 9.277798e-01 8.990413e-01 7.259385e-01 6.459709e-01 4.862565e-01 3.985708e-01 2.759938e-01 2.015470e-01 1.221931e-01 7.359908e-02 3.520507e-02 1.405836e-02 
-1.942333e-15 1.384259e-03 -9.094196e-03 -3.555467e-02 -8.065445e-02 -1.482027e-01 -2.149102e-01 -3.123352e-01 -3.670650e-01 -4.716287e-01 -4.718650e-01 -5.689866e-01 -5.182388e-01 -5.671532e-01 -4.762088e-01 -2.787211e-01 3.013759e-14 2.787211e-01 4.762088e-01 5.671532e-01 5.182388e-01 5.689866e-01 4.718650e-01 4.716287e-01 3.670650e-01 3.123352e-01 2.149102e-01 1.482027e-01 8.065445e-02 3.555467e-02 9.094196e-03 -1.384259e-03 
2.403203e-16 2.351172e-02 2.765540e-02 1.429373e-02 -3.069509e-02 -9.346728e-02 -1.627258e-01 -2.504914e-01 -2.900404e-01 -3.588330e-01 -3.021633e-01 -3.889709e-01 -2.545767e-01 -2.655949e-01 -1.204083e-01 1.212368e-02 3.530415e-14 -1.212368e-02 1.204083e-01 2.655949e-01 2.545767e-01 3.889709e-01 3.021633e-01 3.588330e-01 2.900404e-01 2.504914e-01 1.627258e-01 9.346728e-02 3.069509e-02 -1.429373e-02 -2.765540e-02 -2.351172e-02 
-1.904896e-15 5.198431e-02 7.339856e-02 7.584402e-02 2.502664e-02 -3.519526e-02 -1.228828e-01 -2.128475e-01 -2.674645e-01 -3.252438e-01 -2.089573e-01 -2.192323e-01 7.207181e-02 9.501361e-02 3.425599e-01 3.271566e-01 2.068080e-14 -3.271566e-01 -3.425599e-01 -9.501361e-02 -7.207181e-02 2.192323e-01 2.089573e-01 3.252438e-01 2.674645e-01 2.128475e-01 1.228828e-01 3.519526e-02 -2.502664e-02 -7.584402e-02 -7.339856e-02 -5.198431e-02 
-1.236012e-15 8.854500e-02 1.317376e-01 1.528382e-01 9.168014e-02 2.580985e-02 -9.377226e-02 -2.079985e-01 -2.903468e-01 -3.273097e-01 -2.270879e-01 -3.896194e-01 -9.108874e-02 3.995105e-02 4.915571e-01 3.944986e-01 7.570336e-16 -3.944986e-01 -4.915571e-01 -3.995105e-02 9.108874e-02 3.896194e-01 2.270879e-01 3.273097e-01 2.903468e-01 2.079985e-01 9.377226e-02 -2.580985e-02 -9.168014e-02 -1.528382e-01 -1.317376e-01 -8.854500e-02 
-9.725168e-16 1.247712e-01 1.883605e-01 2.282955e-01 1.507763e-01 8.160063e-02 -8.806187e-02 -2.422692e-01 -4.432881e-01 -6.263294e-01 -5.647858e-01 -3.203620e-01 3.982903e-01 6.650453e-01 6.393365e-01 2.776128e-01 -4.482279e-15 -2.776128e-01 -6.393365e-01 -6.650453e-01 -3.982903e-01 3.203620e-01 5.647858e-01 6.263294e-01 4.432881e-01 2.422692e-01 8.806187e-02 -8.160063e-02 -1.507763e-01 -2.282955e-01 -1.883605e-01 -1.247712e-01 
2.605389e-15 1.626731e-01 2.468545e-01 3.135367e-01 2.193821e-01 1.489059e-01 -9.362779e-02 -3.692669e-01 -6.866531e-01 -5.991326e-01 -1.573846e-01 4.889923e-01 5.835057e-01 5.251008e-01 6.334954e-02 -1.404961e-02 -2.923732e-14 1.404961e-02 -6.334954e-02 -5.251008e-01 -5.835057e-01 -4.889923e-01 1.573846e-01 5.991326e-01 6.866531e-01 3.692669e-01 9.362779e-02 -1.489059e-01 -2.193821e-01 -3.135367e-01 -2.468545e-01 -1.626731e-01 
1.131527e-14 1.817964e-01 2.757322e-01 3.601544e-01 2.527634e-01 2.122405e-01 -8.107869e-02 -3.796249e-01 -7.019035e-01 -1.294422e-01 8.271468e-02 3.966225e-02 -5.250988e-01 -4.483524e-01 -3.278357e-01 -4.850657e-02 -1.666585e-14 4.850657e-02 3.278357e-01 4.483524e-01 5.250988e-01 -3.966225e-02 -8.271468e-02 1.294422e-01 7.019035e-01 3.796249e-01 8.107869e-02 -2.122405e-01 -2.527634e-01 -3.601544e-01 -2.757322e-01 -1.817964e-01 
2.053752e-14 1.886051e-01 2.847029e-01 4.088097e-01 3.069993e-01 3.738936e-01 1.526864e-02 -5.030481e-01 -2.096747e-01 3.579934e-01 2.278501e-01 3.677625e-01 6.524899e-01 1.002932e+00 1.006213e+00 5.582758e-01 -8.531059e-15 -5.582758e-01 -1.006213e+00 -1.002932e+00 -6.524899e-01 -3.677625e-01 -2.278501e-01 -3.579934e-01 2.096747e-01 5.030481e-01 -1.526864e-02 -3.738936e-01 -3.069993e-01 -4.088097e-01 -2.847029e-01 -1.886051e-01 
4.140729e-14 1.474597e-01 2.249322e-01 3.370949e-01 2.238148e-01 3.014476e-01 -4.751119e-01 -1.043006e+00 4.736608e-01 6.162196e-01 9.380195e-01 1.093844e+00 1.053484e+00 9.240475e-01 6.491725e-01 3.273363e-01 -1.157445e-14 -3.273363e-01 -6.491725e-01 -9.240475e-01 -1.053484e+00 -1.093844e+00 -9.380195e-01 -6.162196e-01 -4.736608e-01 1.043006e+00 4.751119e-01 -3.014476e-01 -2.238148e-01 -3.370949e-01 -2.249322e-01 -1.474597e-01 
4.774665e-14 6.398991e-02 1.001910e-01 2.092670e-01 9.894914e-02 3.256889e-01 -1.112349e+00 -1.420033e-01 1.638553e+00 8.831876e-01 8.545731e-01 4.484854e-01 2.098450e-01 3.162435e-02 -5.676833e-02 -1.885785e-02 -1.114656e-14 1.885785e-02 5.676833e-02 -3.162435e-02 -2.098450e-01 -4.484854e-01 -8.545731e-01 -8.831876e-01 -1.638553e+00 1.420033e-01 1.112349e+00 -3.256889e-01 -9.894914e-02 -2.092670e-01 -1.001910e-01 -6.398991e-02 
6.837723e-14 -7.505429e-02 -8.391189e-02 -6.353246e-02 7.204531e-02 8.099085e-02 -5.914750e-01 1.709491e+00 1.828055e+00 8.969942e-01 4.255040e-01 2.566551e-01 1.950267e-01 1.684795e-01 6.299533e-02 2.522160e-02 -7.748183e-15 -2.522160e-02 -6.299533e-02 -1.684795e-01 -1.950267e-01 -2.566551e-01 -4.255040e-01 -8.969942e-01 -1.828055e+00 -1.709491e+00 5.914750e-01 -8.099085e-02 -7.204531e-02 6.353246e-02 8.391189e-02 7.505429e-02 
4.474101e-14 -2.708366e-01 -3.599664e-01 -5.419570e-01 -1.189563e-01 -5.495719e-01 8.429211e-01 1.784389e+00 5.563144e-01 6.249900e-01 3.722125e-01 4.804494e-01 1.879537e-01 1.228174e-01 -3.253093e-02 -2.094586e-02 -1.771781e-14 2.094586e-02 3.253093e-02 -1.228174e-01 -1.879537e-01 -4.804494e-01 -3.722125e-01 -6.249900e-01 -5.563144e-01 -1.784389e+00 -8.429211e-01 5.495719e-01 1.189563e-01 5.419570e-01 3.599664e-01 2.708366e-01 
4.198055e-14 -4.098002e-01 -6.194129e-01 -8.077407e-01 -4.974348e-01 -2.608854e-01 1.888041e+00 9.342334e-01 4.591422e-02 8.011788e-01 6.860291e-01 8.021004e-01 4.645191e-01 3.635351e-01 1.405104e-01 6.881747e-02 -1.270870e-14 -6.881747e-02 -1.405104e-01 -3.635351e-01 -4.645191e-01 -8.021004e-01 -6.860291e-01 -8.011788e-01 -4.591422e-02 -9.342334e-01 -1.888041e+00 2.608854e-01 4.974348e-01 8.077407e-01 6.194129e-01 4.098002e-01 
-2.644585e-15 -4.587302e-01 -7.356538e-01 -8.615765e-01 -7.313930e-01 1.913457e-01 2.099708e+00 6.652787e-01 1.571098e-01 9.676809e-01 9.013735e-01 9.873884e-01 5.474764e-01 3.899013e-01 1.244016e-01 5.947540e-02 -2.736380e-14 -5.947540e-02 -1.244016e-01 -3.899013e-01 -5.474764e-01 -9.873884e-01 -9.013735e-01 -9.676809e-01 -1.571098e-01 -6.652787e-01 -2.099708e+00 -1.913457e-01 7.313930e-01 8.615765e-01 7.356538e-01 4.587302e-01 
-4.564815e-14 -4.098002e-01 -6.194129e-01 -8.077407e-01 -4.974348e-01 -2.608854e-01 1.888041e+00 9.342334e-01 4.591422e-02 8.011788e-01 6.860291e-01 8.021004e-01 4.645191e-01 3.635351e-01 1.405104e-01 6.881747e-02 -2.327514e-14 -6.881747e-02 -1.405104e-01 -3.635351e-01 -4.645191e-01 -8.021004e-01 -6.860291e-01 -8.011788e-01 -4.591422e-02 -9.342334e-01 -1.888041e+00 2.608854e-01 4.974348e-01 8.077407e-01 6.194129e-01 4.098002e-01 
-4.859867e-14 -2.708366e-01 -3.599664e-01 -5.419570e-01 -1.189563e-01 -5.495719e-01 8.429211e-01 1.784389e+00 5.563144e-01 6.249900e-01 3.722125e-01 4.804494e-01 1.879537e-01 1.228174e-01 -3.253093e-02 -2.094586e-02 -3.752440e-14 2.094586e-02 3.253093e-02 -1.228174e-01 -1.879537e-01 -4.804494e-01 -3.722125e-01 -6.249900e-01 -5.563144e-01 -1.784389e+00 -8.429211e-01 5.495719e-01 1.189563e-01 5.419570e-01 3.599664e-01 2.708366e-01 
-3.330384e-14 -7.505429e-02 -8.391189e-02 -6.353246e-02 7.204531e-02 8.099085e-02 -5.914750e-01 1.709491e+00 1.828055e+00 8.969942e-01 4.255040e-01 2.566551e-01 1.950267e-01 1.684795e-01 6.299533e-02 2.522160e-02 -3.571848e-14 -2.522160e-02 -6.299533e-02 -1.684795e-01 -1.950267e-01 -2.566551e-01 -4.255040e-01 -8.969942e-01 -1.828055e+00 -1.709491e+00 5.914750e-01 -8.099085e-02 -7.204531e-02 6.353246e-02 8.391189e-02 7.505429e-02 
-2.375428e-14 6.398991e-02 1.001910e-01 2.092670e-01 9.894914e-02 3.256889e-01 -1.112349e+00 -1.420033e-01 1.638553e+00 8.831876e-01 8.545731e-01 4.484854e-01 2.098450e-01 3.162435e-02 -5.676833e-02 -1.885785e-02 -3.530392e-14 1.885785e-02 5.676833e-02 -3.162435e-02 -2.098450e-01 -4.484854e-01 -8.545731e-01 -8.831876e-01 -1.638553e+00 1.420033e-01 1.112349e+00 -3.256889e-01 -9.894914e-02 -2.092670e-01 -1.001910e-01 -6.398991e-02 
-1.815914e-14 1.474597e-01 2.249322e-01 3.370949e-01 2.238148e-01 3.014476e-01 -4.751119e-01 -1.043006e+00 4.736608e-01 6.162196e-01 9.380195e-01 1.093844e+00 1.053484e+00 9.240475e-01 6.491725e-01 3.273363e-01 -4.273128e-15 -3.273363e-01 -6.491725e-01 -9.240475e-01 -1.053484e+00 -1.093844e+00 -9.380195e-01 -6.162196e-01 -4.736608e-01 1.043006e+00 4.751119e-01 -3.014476e-01 -2.238148e-01 -3.370949e-01 -2.249322e-01 -1.474597e-01 
-2.710701e-15 1.886051e-01 2.847029e-01 4.088097e-01 3.069993e-01 3.738936e-01 1.526864e-02 -5.030481e-01 -2.096747e-01 3.579934e-01 2.278501e-01 3.677625e-01 6.524899e-01 1.002932e+00 1.006213e+00 5.582758e-01 1.143806e-13 -5.582758e-01 -1.006213e+00 -1.002932e+00 -6.524899e-01 -3.677625e-01 -2.278501e-01 -3.579934e-01 2.096747e-01 5.030481e-01 -1.526864e-02 -3.738936e-01 -3.069993e-01 -4.088097e-01 -2.847029e-01 -1.886051e-01 
-7.669064e-15 1.817964e-01 2.757322e-01 3.601544e-01 2.527634e-01 2.122405e-01 -8.107869e-02 -3.796249e-01 -7.019035e-01 -1.294422e-01 8.271468e-02 3.966225e-02 -5.250988e-01 -4.483524e-01 -3.278357e-01 -4.850657e-02 9.525748e-14 4.850657e-02 3.278357e-01 4.483524e-01 5.250988e-01 -3.966225e-02 -8.271468e-02 1.294422e-01 7.019035e-01 3.796249e-01 8.107869e-02 -2.122405e-01 -2.527634e-01 -3.601544e-01 -2.757322e-01 -1.817964e-01 
2.872669e-16 1.626731e-01 2.468545e-01 3.135367e-01 2.193821e-01 1.489059e-01 -9.362779e-02 -3.692669e-01 -6.866531e-01 -5.991326e-01 -1.573846e-01 4.889923e-01 5.835057e-01 5.251008e-01 6.334954e-02 -1.404961e-02 -2.460662e-15 1.404961e-02 -6.334954e-02 -5.251008e-01 -5.835057e-01 -4.889923e-01 1.573846e-01 5.991326e-01 6.866531e-01 3.692669e-01 9.362779e-02 -1.489059e-01 -2.193821e-01 -3.135367e-01 -2.468545e-01 -1.626731e-01 
-8.374959e-15 1.247712e-01 1.883605e-01 2.282955e-01 1.507763e-01 8.160063e-02 -8.806187e-02 -2.422692e-01 -4.432881e-01 -6.263294e-01 -5.647858e-01 -3.203620e-01 3.982903e-01 6.650453e-01 6.393365e-01 2.776128e-01 -1.218300e-13 -2.776128e-01 -6.393365e-01 -6.650453e-01 -3.982903e-01 3.203620e-01 5.647858e-01 6.263294e-01 4.432881e-01 2.422692e-01 8.806187e-02 -8.160063e-02 -1.507763e-01 -2.282955e-01 -1.883605e-01 -1.247712e-01 
-5.878351e-15 8.854500e-02 1.317376e-01 1.528382e-01 9.168014e-02 2.580985e-02 -9.377226e-02 -2.079985e-01 -2.903468e-01 -3.273097e-01 -2.270879e-01 -3.896194e-01 -9.108874e-02 3.995105e-02 4.915571e-01 3.944986e-01 -1.183258e-13 -3.944986e-01 -4.915571e-01 -3.995105e-02 9.108874e-02 3.896194e-01 2.270879e-01 3.273097e-01 2.903468e-01 2.079985e-01 9.377226e-02 -2.580985e-02 -9.168014e-02 -1.528382e-01 -1.317376e-01 -8.854500e-02 
-1.308687e-14 5.198431e-02 7.339856e-02 7.584402e-02 2.502664e-02 -3.519526e-02 -1.228828e-01 -2.128475e-01 -2.674645e-01 -3.252438e-01 -2.089573e-01 -2.192323e-01 7.207181e-02 9.501361e-02 3.425599e-01 3.271566e-01 -2.574144e-14 -3.271566e-01 -3.425599e-01 -9.501361e-02 -7.207181e-02 2.192323e-01 2.089573e-01 3.252438e-01 2.674645e-01 2.128475e-01 1.228828e-01 3.519526e-02 -2.502664e-02 -7.584402e-02 -7.339856e-02 -5.198431e-02 
-1.108743e-14 2.351172e-02 2.765540e-02 1.429373e-02 -3.069509e-02 -9.346728e-02 -1.627258e-01 -2.504914e-01 -2.900404e-01 -3.588330e-01 -3.021633e-01 -3.889709e-01 -2.545767e-01 -2.655949e-01 -1.204083e-01 1.212368e-02 4.888653e-14 -1.212368e-02 1.204083e-01 2.655949e-01 2.545767e-01 3.889709e-01 3.021633e-01 3.588330e-01 2.900404e-01 2.504914e-01 1.627258e-01 9.346728e-02 3.069509e-02 -1.429373e-02 -2.765540e-02 -2.351172e-02 
-1.334728e-14 1.384259e-03 -9.094196e-03 -3.555467e-02 -8.065445e-02 -1.482027e-01 -2.149102e-01 -3.123352e-01 -3.670650e-01 -4.716287e-01 -4.718650e-01 -5.689866e-01 -5.182388e-01 -5.671532e-01 -4.762088e-01 -2.787211e-01 7.523716e-14 2.787211e-01 4.762088e-01 5.671532e-01 5.182388e-01 5.689866e-01 4.718650e-01 4.716287e-01 3.670650e-01 3.123352e-01 2.149102e-01 1.482027e-01 8.065445e-02 3.555467e-02 9.094196e-03 -1.384259e-03 
-9.443278e-15 -1.405836e-02 -3.520507e-02 -7.359908e-02 -1.221931e-01 -2.015470e-01 -2.759938e-01 -3.985708e-01 -4.862565e-01 -6.459709e-01 -7.259385e-01 -8.990413e-01 -9.277798e-01 -9.916483e-01 -8.534870e-01 -5.623482e-01 5.948834e-14 5.623482e-01 8.534870e-01 9.916483e-01 9.277798e-01 8.990413e-01 7.259385e-01 6.459709e-01 4.862565e-01 3.985708e-01 2.759938e-01 2.015470e-01 1.221931e-01 7.359908e-02 3.520507e-02 1.405836e-02 
-9.522301e-15 -2.254139e-02 -5.000460e-02 -9.456106e-02 -1.463372e-01 -2.319962e-01 -3.145207e-01 -4.536410e-01 -5.679085e-01 -7.617486e-01 -8.866592e-01 -1.083681e+00 -1.140054e+00 -1.200615e+00 -1.030530e+00 -6.989171e-01 3.554445e-14 6.989171e-01 1.030530e+00 1.200615e+00 1.140054e+00 1.083681e+00 8.866592e-01 7.617486e-01 5.679085e-01 4.536410e-01 3.145207e-01 2.319962e-01 1.463372e-01 9.456106e-02 5.000460e-02 2.254139e-02 
