# vtk DataFile Version 2.0
Comment goes here
ASCII

DATASET STRUCTURED_POINTS
FIELD FieldData 1
TIME 1 1 double
0.44000000
DIMENSIONS    32   32   1

ORIGIN    0.000   0.000   0.000
SPACING   0.03125 0.03125   1.000

POINT_DATA   1024
SCALARS uX double
LOOKUP_TABLE default

-1.166366e-15 -8.701162e-02 -1.789448e-01 -2.759512e-01 -3.840382e-01 -5.000283e-01 -6.273132e-01 -7.646160e-01 -9.108651e-01 -1.068591e+00 -1.222539e+00 -1.365859e+00 -1.443598e+00 -1.431112e+00 -1.234151e+00 -7.868046e-01 -4.460528e-15 7.868046e-01 1.234151e+00 1.431112e+00 1.443598e+00 1.365859e+00 1.222539e+00 1.068591e+00 9.108651e-01 7.646160e-01 6.273132e-01 5.000283e-01 3.840382e-01 2.759512e-01 1.789448e-01 8.701162e-02 
-2.567619e-15 -8.463987e-02 -1.748660e-01 -2.694458e-01 -3.763040e-01 -4.891695e-01 -6.133301e-01 -7.436853e-01 -8.797522e-01 -1.020960e+00 -1.155172e+00 -1.277359e+00 -1.344852e+00 -1.331726e+00 -1.147054e+00 -7.187683e-01 -1.814686e-15 7.187683e-01 1.147054e+00 1.331726e+00 1.344852e+00 1.277359e+00 1.155172e+00 1.020960e+00 8.797522e-01 7.436853e-01 6.133301e-01 4.891695e-01 3.763040e-01 2.694458e-01 1.748660e-01 8.463987e-02 
1.541726e-15 -8.006267e-02 -1.669493e-01 -2.601982e-01 -3.675202e-01 -4.826116e-01 -6.081982e-01 -7.374794e-01 -8.649655e-01 -9.853866e-01 -1.084726e+00 -1.161385e+00 -1.171953e+00 -1.117689e+00 -9.245548e-01 -5.305893e-01 6.334445e-15 5.305893e-01 9.245548e-01 1.117689e+00 1.171953e+00 1.161385e+00 1.084726e+00 9.853866e-01 8.649655e-01 7.374794e-01 6.081982e-01 4.826116e-01 3.675202e-01 2.601982e-01 1.669493e-01 8.006267e-02 
-9.949897e-16 -7.051696e-02 -1.511534e-01 -2.391599e-01 -3.472081e-01 -4.620663e-01 -5.898100e-01 -7.150583e-01 -8.288586e-01 -9.154459e-01 -9.549981e-01 -9.498659e-01 -8.865749e-01 -7.910580e-01 -5.825734e-01 -2.605109e-01 1.936855e-14 2.605109e-01 5.825734e-01 7.910580e-01 8.865749e-01 9.498659e-01 9.549981e-01 9.154459e-01 8.288586e-01 7.150583e-01 5.898100e-01 4.620663e-01 3.472081e-01 2.391599e-01 1.511534e-01 7.051696e-02 
2.690196e-15 -5.578916e-02 -1.263691e-01 -2.097227e-01 -3.208660e-01 -4.450818e-01 -5.865161e-01 -7.283649e-01 -8.562399e-01 -9.444507e-01 -9.754340e-01 -9.321800e-01 -7.668126e-01 -5.733720e-01 -2.566602e-01 -2.429404e-02 2.231323e-14 2.429404e-02 2.566602e-01 5.733720e-01 7.668126e-01 9.321800e-01 9.754340e-01 9.444507e-01 8.562399e-01 7.283649e-01 5.865161e-01 4.450818e-01 3.208660e-01 2.097227e-01 1.263691e-01 5.578916e-02 
1.344552e-18 -3.443666e-02 -9.230754e-02 -1.679081e-01 -2.876756e-01 -4.242671e-01 -5.926713e-01 -7.666383e-01 -9.304464e-01 -1.045025e+00 -1.054712e+00 -9.406518e-01 -7.165562e-01 -4.752062e-01 -6.451377e-02 4.889590e-02 2.718818e-14 -4.889590e-02 6.451377e-02 4.752062e-01 7.165562e-01 9.406518e-01 1.054712e+00 1.045025e+00 9.304464e-01 7.666383e-01 5.926713e-01 4.242671e-01 2.876756e-01 1.679081e-01 9.230754e-02 3.443666e-02 
3.409638e-15 -1.385865e-03 -3.715270e-02 -1.014784e-01 -2.279951e-01 -3.864057e-01 -5.888074e-01 -8.201720e-01 -1.058961e+00 -1.272579e+00 -1.440062e+00 -1.347933e+00 -9.089207e-01 -4.206540e-01 4.218504e-02 3.052562e-02 2.025895e-14 -3.052562e-02 -4.218504e-02 4.206540e-01 9.089207e-01 1.347933e+00 1.440062e+00 1.272579e+00 1.058961e+00 8.201720e-01 5.888074e-01 3.864057e-01 2.279951e-01 1.014784e-01 3.715270e-02 1.385865e-03 
1.239329e-17 4.028876e-02 3.066507e-02 -1.596958e-02 -1.564884e-01 -3.342566e-01 -5.960928e-01 -9.399024e-01 -1.378346e+00 -1.701667e+00 -1.496428e+00 -7.826858e-01 -1.383002e-01 1.963771e-01 2.828733e-01 8.534257e-02 -3.642063e-15 -8.534257e-02 -2.828733e-01 -1.963771e-01 1.383002e-01 7.826858e-01 1.496428e+00 1.701667e+00 1.378346e+00 9.399024e-01 5.960928e-01 3.342566e-01 1.564884e-01 1.596958e-02 -3.066507e-02 -4.028876e-02 
2.909713e-15 9.759261e-02 1.295465e-01 1.159131e-01 -2.312407e-02 -2.227584e-01 -5.332389e-01 -1.008563e+00 -1.391219e+00 -1.070472e+00 -2.450995e-01 4.046673e-01 4.928267e-01 3.138462e-01 1.024480e-01 4.197680e-02 -3.758825e-14 -4.197680e-02 -1.024480e-01 -3.138462e-01 -4.928267e-01 -4.046673e-01 2.450995e-01 1.070472e+00 1.391219e+00 1.008563e+00 5.332389e-01 2.227584e-01 2.312407e-02 -1.159131e-01 -1.295465e-01 -9.759261e-02 
2.383968e-15 1.542584e-01 2.318393e-01 2.658037e-01 1.320805e-01 -4.069457e-02 -3.903689e-01 -8.190113e-01 -8.019610e-01 2.270980e-01 7.549531e-01 6.813835e-01 6.697126e-01 7.577087e-01 6.240463e-01 4.520653e-01 -5.899723e-14 -4.520653e-01 -6.240463e-01 -7.577087e-01 -6.697126e-01 -6.813835e-01 -7.549531e-01 -2.270980e-01 8.019610e-01 8.190113e-01 3.903689e-01 4.069457e-02 -1.320805e-01 -2.658037e-01 -2.318393e-01 -1.542584e-01 
5.392716e-15 2.116766e-01 3.432536e-01 4.667466e-01 3.868417e-01 3.346327e-01 1.419938e-01 -5.903568e-01 2.281436e-01 1.070388e+00 1.281781e+00 1.611995e+00 1.814589e+00 1.833958e+00 1.409679e+00 8.024442e-01 -3.614861e-14 -8.024442e-01 -1.409679e+00 -1.833958e+00 -1.814589e+00 -1.611995e+00 -1.281781e+00 -1.070388e+00 -2.281436e-01 5.903568e-01 -1.419938e-01 -3.346327e-01 -3.868417e-01 -4.667466e-01 -3.432536e-01 -2.116766e-01 
1.260617e-14 2.303821e-01 4.075450e-01 6.124598e-01 5.891768e-01 7.576517e-01 3.303161e-01 -2.703072e-01 1.482085e+00 1.740022e+00 1.762097e+00 1.514420e+00 1.088062e+00 7.629615e-01 4.529260e-01 2.323038e-01 -4.613696e-15 -2.323038e-01 -4.529260e-01 -7.629615e-01 -1.088062e+00 -1.514420e+00 -1.762097e+00 -1.740022e+00 -1.482085e+00 2.703072e-01 -3.303161e-01 -7.576517e-01 -5.891768e-01 -6.124598e-01 -4.075450e-01 -2.303821e-01 
1.282199e-14 2.011097e-01 3.765727e-01 6.771005e-01 6.849232e-01 1.280200e+00 -2.329390e-01 9.801577e-01 2.269240e+00 1.640808e+00 1.209511e+00 5.079112e-01 1.922213e-01 2.711454e-02 -4.168897e-02 -2.410235e-02 -2.954646e-15 2.410235e-02 4.168897e-02 -2.711454e-02 -1.922213e-01 -5.079112e-01 -1.209511e+00 -1.640808e+00 -2.269240e+00 -9.801577e-01 2.329390e-01 -1.280200e+00 -6.849232e-01 -6.771005e-01 -3.765727e-01 -2.011097e-01 
3.174740e-14 8.399135e-02 2.480315e-01 4.641636e-01 9.040045e-01 1.034682e+00 1.493593e-02 2.397316e+00 1.995440e+00 1.158658e+00 7.755497e-01 4.923297e-01 4.173769e-01 2.653665e-01 1.131063e-01 2.814100e-02 -5.403446e-16 -2.814100e-02 -1.131063e-01 -2.653665e-01 -4.173769e-01 -4.923297e-01 -7.755497e-01 -1.158658e+00 -1.995440e+00 -2.397316e+00 -1.493593e-02 -1.034682e+00 -9.040045e-01 -4.641636e-01 -2.480315e-01 -8.399135e-02 
9.574724e-15 -1.095179e-01 -2.705765e-02 -3.807046e-02 6.592667e-01 3.778362e-02 1.407019e+00 2.384811e+00 1.317554e+00 1.171392e+00 1.040695e+00 8.436664e-01 5.366798e-01 3.061384e-01 1.127256e-01 2.745906e-02 3.682981e-15 -2.745906e-02 -1.127256e-01 -3.061384e-01 -5.366798e-01 -8.436664e-01 -1.040695e+00 -1.171392e+00 -1.317554e+00 -2.384811e+00 -1.407019e+00 -3.778362e-02 -6.592667e-01 3.807046e-02 2.705765e-02 1.095179e-01 
5.013586e-14 -3.193271e-01 -4.997540e-01 -6.499437e-01 -4.575856e-01 -4.187972e-02 2.437021e+00 1.857286e+00 1.341838e+00 1.557320e+00 1.368710e+00 1.262429e+00 9.111313e-01 6.155764e-01 3.211894e-01 1.325307e-01 1.377101e-15 -1.325307e-01 -3.211894e-01 -6.155764e-01 -9.111313e-01 -1.262429e+00 -1.368710e+00 -1.557320e+00 -1.341838e+00 -1.857286e+00 -2.437021e+00 4.187972e-02 4.575856e-01 6.499437e-01 4.997540e-01 3.193271e-01 
-1.637174e-14 -4.402351e-01 -8.047434e-01 -1.024630e+00 -1.199014e+00 2.685116e-01 2.628687e+00 1.804550e+00 1.623762e+00 1.849190e+00 1.649207e+00 1.512376e+00 1.066335e+00 6.924290e-01 3.458842e-01 1.399647e-01 6.931869e-15 -1.399647e-01 -3.458842e-01 -6.924290e-01 -1.066335e+00 -1.512376e+00 -1.649207e+00 -1.849190e+00 -1.623762e+00 -1.804550e+00 -2.628687e+00 -2.685116e-01 1.199014e+00 1.024630e+00 8.047434e-01 4.402351e-01 
-3.319362e-14 -3.193271e-01 -4.997540e-01 -6.499437e-01 -4.575856e-01 -4.187972e-02 2.437021e+00 1.857286e+00 1.341838e+00 1.557320e+00 1.368710e+00 1.262429e+00 9.111313e-01 6.155764e-01 3.211894e-01 1.325307e-01 6.770229e-15 -1.325307e-01 -3.211894e-01 -6.155764e-01 -9.111313e-01 -1.262429e+00 -1.368710e+00 -1.557320e+00 -1.341838e+00 -1.857286e+00 -2.437021e+00 4.187972e-02 4.575856e-01 6.499437e-01 4.997540e-01 3.193271e-01 
-4.886254e-15 -1.095179e-01 -2.705765e-02 -3.807046e-02 6.592667e-01 3.778362e-02 1.407019e+00 2.384811e+00 1.317554e+00 1.171392e+00 1.040695e+00 8.436664e-01 5.366798e-01 3.061384e-01 1.127256e-01 2.745906e-02 1.552802e-14 -2.745906e-02 -1.127256e-01 -3.061384e-01 -5.366798e-01 -8.436664e-01 -1.040695e+00 -1.171392e+00 -1.317554e+00 -2.384811e+00 -1.407019e+00 -3.778362e-02 -6.592667e-01 3.807046e-02 2.705765e-02 1.095179e-01 
-1.375800e-14 8.399135e-02 2.480315e-01 4.641636e-01 9.040045e-01 1.034682e+00 1.493593e-02 2.397316e+00 1.995440e+00 1.158658e+00 7.755497e-01 4.923297e-01 4.173769e-01 2.653665e-01 1.131063e-01 2.814100e-02 2.053442e-14 -2.814100e-02 -1.131063e-01 -2.653665e-01 -4.173769e-01 -4.923297e-01 -7.755497e-01 -1.158658e+00 -1.995440e+00 -2.397316e+00 -1.493593e-02 -1.034682e+00 -9.040045e-01 -4.641636e-01 -2.480315e-01 -8.399135e-02 
2.542573e-15 2.011097e-01 3.765727e-01 6.771005e-01 6.849232e-01 1.280200e+00 -2.329390e-01 9.801577e-01 2.269240e+00 1.640808e+00 1.209511e+00 5.079112e-01 1.922213e-01 2.711454e-02 -4.168897e-02 -2.410235e-02 1.997528e-14 2.410235e-02 4.168897e-02 -2.711454e-02 -1.922213e-01 -5.079112e-01 -1.209511e+00 -1.640808e+00 -2.269240e+00 -9.801577e-01 2.329390e-01 -1.280200e+00 -6.849232e-01 -6.771005e-01 -3.765727e-01 -2.011097e-01 
2.626786e-15 2.303821e-01 4.075450e-01 6.124598e-01 5.891768e-01 7.576517e-01 3.303161e-01 -2.703072e-01 1.482085e+00 1.740022e+00 1.762097e+00 1.514420e+00 1.088062e+00 7.629615e-01 4.529260e-01 2.323038e-01 9.795655e-15 -2.323038e-01 -4.529260e-01 -7.629615e-01 -1.088062e+00 -1.514420e+00 -1.762097e+00 -1.740022e+00 -1.482085e+00 2.703072e-01 -3.303161e-01 -7.576517e-01 -5.891768e-01 -6.124598e-01 -4.075450e-01 -2.303821e-01 
9.086640e-15 2.116766e-01 3.432536e-01 4.667466e-01 3.868417e-01 3.346327e-01 1.419938e-01 -5.903568e-01 2.281436e-01 1.070388e+00 1.281781e+00 1.611995e+00 1.814589e+00 1.833958e+00 1.409679e+00 8.024442e-01 -5.176063e-14 -8.024442e-01 -1.409679e+00 -1.833958e+00 -1.814589e+00 -1.611995e+00 -1.281781e+00 -1.070388e+00 -2.281436e-01 5.903568e-01 -1.419938e-01 -3.346327e-01 -3.868417e-01 -4.667466e-01 -3.432536e-01 -2.116766e-01 
1.351476e-15 1.542584e-01 2.318393e-01 2.658037e-01 1.320805e-01 -4.069457e-02 -3.903689e-01 -8.190113e-01 -8.019610e-01 2.270980e-01 7.549531e-01 6.813835e-01 6.697126e-01 7.577087e-01 6.240463e-01 4.520653e-01 -1.859305e-13 -4.520653e-01 -6.240463e-01 -7.577087e-01 -6.697126e-01 -6.813835e-01 -7.549531e-01 -2.270980e-01 8.019610e-01 8.190113e-01 3.903689e-01 4.069457e-02 -1.320805e-01 -2.658037e-01 -2.318393e-01 -1.542584e-01 
5.597688e-15 9.759261e-02 1.295465e-01 1.159131e-01 -2.312407e-02 -2.227584e-01 -5.332389e-01 -1.008563e+00 -1.391219e+00 -1.070472e+00 -2.450995e-01 4.046673e-01 4.928267e-01 3.138462e-01 1.024480e-01 4.197680e-02 -1.367216e-13 -4.197680e-02 -1.024480e-01 -3.138462e-01 -4.928267e-01 -4.046673e-01 2.450995e-01 1.070472e+00 1.391219e+00 1.008563e+00 5.332389e-01 2.227584e-01 2.312407e-02 -1.159131e-01 -1.295465e-01 -9.759261e-02 
-4.591215e-15 4.028876e-02 3.066507e-02 -1.596958e-02 -1.564884e-01 -3.342566e-01 -5.960928e-01 -9.399024e-01 -1.378346e+00 -1.701667e+00 -1.496428e+00 -7.826858e-01 -1.383002e-01 1.963771e-01 2.828733e-01 8.534257e-02 5.571853e-14 -8.534257e-02 -2.828733e-01 -1.963771e-01 1.383002e-01 7.826858e-01 1.496428e+00 1.701667e+00 1.378346e+00 9.399024e-01 5.960928e-01 3.342566e-01 1.564884e-01 1.596958e-02 -3.066507e-02 -4.028876e-02 
-7.619375e-16 -1.385865e-03 -3.715270e-02 -1.014784e-01 -2.279951e-01 -3.864057e-01 -5.888074e-01 -8.201720e-01 -1.058961e+00 -1.272579e+00 -1.440062e+00 -1.347933e+00 -9.089207e-01 -4.206540e-01 4.218504e-02 3.052562e-02 1.150640e-13 -3.052562e-02 -4.218504e-02 4.206540e-01 9.089207e-01 1.347933e+00 1.440062e+00 1.272579e+00 1.058961e+00 8.201720e-01 5.888074e-01 3.864057e-01 2.279951e-01 1.014784e-01 3.715270e-02 1.385865e-03 
-8.059182e-15 -3.443666e-02 -9.230754e-02 -1.679081e-01 -2.876756e-01 -4.242671e-01 -5.926713e-01 -7.666383e-01 -9.304464e-01 -1.045025e+00 -1.054712e+00 -9.406518e-01 -7.165562e-01 -4.752062e-01 -6.451377e-02 4.889590e-02 8.963523e-14 -4.889590e-02 6.451377e-02 4.752062e-01 7.165562e-01 9.406518e-01 1.054712e+00 1.045025e+00 9.304464e-01 7.666383e-01 5.926713e-01 4.242671e-01 2.876756e-01 1.679081e-01 9.230754e-02 3.443666e-02 
-3.696477e-15 -5.578916e-02 -1.263691e-01 -2.097227e-01 -3.208660e-01 -4.450818e-01 -5.865161e-01 -7.283649e-01 -8.562399e-01 -9.444507e-01 -9.754340e-01 -9.321800e-01 -7.668126e-01 -5.733720e-01 -2.566602e-01 -2.429404e-02 5.862137e-14 2.429404e-02 2.566602e-01 5.733720e-01 7.668126e-01 9.321800e-01 9.754340e-01 9.444507e-01 8.562399e-01 7.283649e-01 5.865161e-01 4.450818e-01 3.208660e-01 2.097227e-01 1.263691e-01 5.578916e-02 
-8.020598e-15 -7.051696e-02 -1.511534e-01 -2.391599e-01 -3.472081e-01 -4.620663e-01 -5.898100e-01 -7.150583e-01 -8.288586e-01 -9.154459e-01 -9.549981e-01 -9.498659e-01 -8.865749e-01 -7.910580e-01 -5.825734e-01 -2.605109e-01 4.074235e-14 2.605109e-01 5.825734e-01 7.910580e-01 8.865749e-01 9.498659e-01 9.549981e-01 9.154459e-01 8.288586e-01 7.150583e-01 5.898100e-01 4.620663e-01 3.472081e-01 2.391599e-01 1.511534e-01 7.051696e-02 
-3.919902e-15 -8.006267e-02 -1.669493e-01 -2.601982e-01 -3.675202e-01 -4.826116e-01 -6.081982e-01 -7.374794e-01 -8.649655e-01 -9.853866e-01 -1.084726e+00 -1.161385e+00 -1.171953e+00 -1.117689e+00 -9.245548e-01 -5.305893e-01 2.568911e-14 5.305893e-01 9.245548e-01 1.117689e+00 1.171953e+00 1.161385e+00 1.084726e+00 9.853866e-01 8.649655e-01 7.374794e-01 6.081982e-01 4.826116e-01 3.675202e-01 2.601982e-01 1.669493e-01 8.006267e-02 
-5.567088e-15 -8.463987e-02 -1.748660e-01 -2.694458e-01 -3.763040e-01 -4.891695e-01 -6.133301e-01 -7.436853e-01 -8.797522e-01 -1.020960e+00 -1.155172e+00 -1.277359e+00 -1.344852e+00 -1.331726e+00 -1.147054e+00 -7.187683e-01 8.521358e-15 7.187683e-01 1.147054e+00 1.331726e+00 1.344852e+00 1.277359e+00 1.155172e+00 1.020960e+00 8.797522e-01 7.436853e-01 6.133301e-01 4.891695e-01 3.763040e-01 2.694458e-01 1.748660e-01 8.463987e-02 
