# vtk DataFile Version 2.0
Comment goes here
ASCII

DATASET STRUCTURED_POINTS
FIELD FieldData 1
TIME 1 1 double
0.92000000
DIMENSIONS    32   32   1

ORIGIN    0.000   0.000   0.000
SPACING   0.03125 0.03125   1.000

POINT_DATA   1024
SCALARS uX double
LOOKUP_TABLE default

7.384168e-16 -3.172008e-02 -7.954772e-02 -1.505623e-01 -2.609057e-01 -4.070662e-01 -5.966195e-01 -8.176389e-01 -1.053470e+00 -1.287614e+00 -1.475146e+00 -1.606250e+00 -1.622855e+00 -1.513321e+00 -1.220102e+00 -7.126810e-01 1.360989e-14 7.126810e-01 1.220102e+00 1.513321e+00 1.622855e+00 1.606250e+00 1.475146e+00 1.287614e+00 1.053470e+00 8.176389e-01 5.966195e-01 4.070662e-01 2.609057e-01 1.505623e-01 7.954772e-02 3.172008e-02 
-3.179507e-15 -2.399559e-02 -6.427709e-02 -1.271684e-01 -2.285491e-01 -3.629487e-01 -5.384540e-01 -7.418021e-01 -9.591240e-01 -1.174015e+00 -1.346303e+00 -1.468288e+00 -1.484736e+00 -1.391634e+00 -1.129017e+00 -6.561043e-01 3.850259e-14 6.561043e-01 1.129017e+00 1.391634e+00 1.484736e+00 1.468288e+00 1.346303e+00 1.174015e+00 9.591240e-01 7.418021e-01 5.384540e-01 3.629487e-01 2.285491e-01 1.271684e-01 6.427709e-02 2.399559e-02 
1.410716e-15 -6.287354e-03 -3.034665e-02 -7.674734e-02 -1.620842e-01 -2.752308e-01 -4.264206e-01 -5.990226e-01 -7.830631e-01 -9.659444e-01 -1.106932e+00 -1.211706e+00 -1.218357e+00 -1.133000e+00 -9.095240e-01 -5.101555e-01 4.804805e-14 5.101555e-01 9.095240e-01 1.133000e+00 1.218357e+00 1.211706e+00 1.106932e+00 9.659444e-01 7.830631e-01 5.990226e-01 4.264206e-01 2.752308e-01 1.620842e-01 7.674734e-02 3.034665e-02 6.287354e-03 
-4.593844e-15 2.362871e-02 2.667832e-02 6.621723e-03 -5.440421e-02 -1.365681e-01 -2.529576e-01 -3.796758e-01 -5.140048e-01 -6.427552e-01 -7.316737e-01 -7.960349e-01 -7.714495e-01 -7.115402e-01 -5.697846e-01 -2.942135e-01 3.698928e-14 2.942135e-01 5.697846e-01 7.115402e-01 7.714495e-01 7.960349e-01 7.316737e-01 6.427552e-01 5.140048e-01 3.796758e-01 2.529576e-01 1.365681e-01 5.440421e-02 -6.621723e-03 -2.667832e-02 -2.362871e-02 
1.528552e-15 5.982474e-02 9.410988e-02 1.022206e-01 6.165802e-02 4.601461e-03 -9.010616e-02 -1.850483e-01 -2.895331e-01 -3.907466e-01 -4.485746e-01 -5.149746e-01 -4.711923e-01 -3.771732e-01 -2.331189e-01 -7.000296e-02 -3.225389e-15 7.000296e-02 2.331189e-01 3.771732e-01 4.711923e-01 5.149746e-01 4.485746e-01 3.907466e-01 2.895331e-01 1.850483e-01 9.010616e-02 -4.601461e-03 -6.165802e-02 -1.022206e-01 -9.410988e-02 -5.982474e-02 
-2.149890e-15 1.002399e-01 1.688170e-01 2.061904e-01 1.834154e-01 1.455974e-01 6.248863e-02 -1.201108e-02 -9.957621e-02 -1.793995e-01 -2.192456e-01 -2.542803e-01 -1.180078e-01 -1.687548e-02 4.992869e-02 9.134863e-02 -2.897829e-14 -9.134863e-02 -4.992869e-02 1.687548e-02 1.180078e-01 2.542803e-01 2.192456e-01 1.793995e-01 9.957621e-02 1.201108e-02 -6.248863e-02 -1.455974e-01 -1.834154e-01 -2.061904e-01 -1.688170e-01 -1.002399e-01 
1.241477e-14 1.394896e-01 2.411595e-01 3.066009e-01 2.966580e-01 2.731764e-01 1.825004e-01 1.124913e-01 2.119980e-03 -9.734461e-02 -1.542608e-01 -3.191899e-01 -1.658826e-01 1.682736e-01 4.212463e-01 3.697737e-01 -5.520504e-14 -3.697737e-01 -4.212463e-01 -1.682736e-01 1.658826e-01 3.191899e-01 1.542608e-01 9.734461e-02 -2.119980e-03 -1.124913e-01 -1.825004e-01 -2.731764e-01 -2.966580e-01 -3.066009e-01 -2.411595e-01 -1.394896e-01 
1.414510e-14 1.706691e-01 2.981870e-01 3.856952e-01 3.830920e-01 3.666432e-01 2.587395e-01 1.756271e-01 3.365511e-02 -1.213939e-01 -2.501209e-01 -6.929144e-02 6.013317e-01 1.062855e+00 9.349633e-01 5.480172e-01 -1.178891e-13 -5.480172e-01 -9.349633e-01 -1.062855e+00 -6.013317e-01 6.929144e-02 2.501209e-01 1.213939e-01 -3.365511e-02 -1.756271e-01 -2.587395e-01 -3.666432e-01 -3.830920e-01 -3.856952e-01 -2.981870e-01 -1.706691e-01 
3.609005e-14 1.907240e-01 3.368670e-01 4.419764e-01 4.507521e-01 4.523169e-01 3.262431e-01 2.555643e-01 1.307124e-02 -9.326101e-02 1.071142e-01 8.609261e-01 1.051016e+00 5.818344e-01 -1.197346e-01 -2.026214e-01 -1.623664e-13 2.026214e-01 1.197346e-01 -5.818344e-01 -1.051016e+00 -8.609261e-01 -1.071142e-01 9.326101e-02 -1.307124e-02 -2.555643e-01 -3.262431e-01 -4.523169e-01 -4.507521e-01 -4.419764e-01 -3.368670e-01 -1.907240e-01 
3.269450e-14 1.921574e-01 3.405144e-01 4.527632e-01 4.664410e-01 4.816236e-01 3.246711e-01 2.405167e-01 1.354638e-02 -2.211793e-01 2.344736e-01 4.441532e-01 -2.840858e-01 -5.754188e-01 -4.207009e-01 -1.642834e-01 6.580799e-15 1.642834e-01 4.207009e-01 5.754188e-01 2.840858e-01 -4.441532e-01 -2.344736e-01 2.211793e-01 -1.354638e-02 -2.405167e-01 -3.246711e-01 -4.816236e-01 -4.664410e-01 -4.527632e-01 -3.405144e-01 -1.921574e-01 
4.797405e-14 1.701807e-01 3.094759e-01 4.190197e-01 4.656867e-01 5.133426e-01 4.058641e-01 4.401438e-01 5.703659e-02 -2.663657e-01 4.055021e-01 2.768639e-01 4.914069e-01 9.449195e-01 1.150259e+00 7.360520e-01 1.351750e-13 -7.360520e-01 -1.150259e+00 -9.449195e-01 -4.914069e-01 -2.768639e-01 -4.055021e-01 2.663657e-01 -5.703659e-02 -4.401438e-01 -4.058641e-01 -5.133426e-01 -4.656867e-01 -4.190197e-01 -3.094759e-01 -1.701807e-01 
2.005904e-14 1.167642e-01 2.239379e-01 3.261784e-01 4.047068e-01 5.199942e-01 4.123113e-01 6.751617e-01 -4.921009e-01 2.844194e-01 1.025553e+00 8.162401e-01 1.088868e+00 9.041886e-01 6.910002e-01 3.029734e-01 8.789650e-14 -3.029734e-01 -6.910002e-01 -9.041886e-01 -1.088868e+00 -8.162401e-01 -1.025553e+00 -2.844194e-01 4.921009e-01 -6.751617e-01 -4.123113e-01 -5.199942e-01 -4.047068e-01 -3.261784e-01 -2.239379e-01 -1.167642e-01 
1.856468e-14 1.799795e-02 6.308564e-02 1.235992e-01 2.551187e-01 3.287855e-01 4.588690e-01 3.511043e-01 -5.736287e-01 1.282454e+00 9.983611e-01 6.990774e-01 4.151510e-01 9.005160e-02 4.904902e-02 -4.857716e-02 8.422323e-14 4.857716e-02 -4.904902e-02 -9.005160e-02 -4.151510e-01 -6.990774e-01 -9.983611e-01 -1.282454e+00 5.736287e-01 -3.511043e-01 -4.588690e-01 -3.287855e-01 -2.551187e-01 -1.235992e-01 -6.308564e-02 -1.799795e-02 
-3.125084e-14 -1.232891e-01 -1.687228e-01 -1.853365e-01 2.441659e-02 1.760992e-02 6.186255e-01 -3.501446e-01 4.387925e-01 1.362420e+00 4.632762e-01 5.774262e-01 3.529133e-01 2.875341e-01 1.781980e-01 5.996169e-02 4.409182e-14 -5.996169e-02 -1.781980e-01 -2.875341e-01 -3.529133e-01 -5.774262e-01 -4.632762e-01 -1.362420e+00 -4.387925e-01 3.501446e-01 -6.186255e-01 -1.760992e-02 -2.441659e-02 1.853365e-01 1.687228e-01 1.232891e-01 
-3.370072e-14 -2.953557e-01 -4.921393e-01 -6.039031e-01 -4.881241e-01 -4.299130e-01 3.521631e-02 -4.476428e-01 1.329079e+00 9.016211e-01 4.383672e-01 5.718865e-01 3.566326e-01 2.475964e-01 1.205380e-01 3.000689e-02 2.523787e-14 -3.000689e-02 -1.205380e-01 -2.475964e-01 -3.566326e-01 -5.718865e-01 -4.383672e-01 -9.016211e-01 -1.329079e+00 4.476428e-01 -3.521631e-02 4.299130e-01 4.881241e-01 6.039031e-01 4.921393e-01 2.953557e-01 
-4.112269e-14 -4.561747e-01 -8.251346e-01 -1.064944e+00 -1.179118e+00 -1.031952e+00 -8.854245e-01 3.923281e-01 1.578812e+00 6.919041e-01 8.240401e-01 7.500754e-01 6.151661e-01 4.408910e-01 2.654121e-01 1.123003e-01 1.094423e-16 -1.123003e-01 -2.654121e-01 -4.408910e-01 -6.151661e-01 -7.500754e-01 -8.240401e-01 -6.919041e-01 -1.578812e+00 -3.923281e-01 8.854245e-01 1.031952e+00 1.179118e+00 1.064944e+00 8.251346e-01 4.561747e-01 
-2.349377e-14 -5.214279e-01 -9.648761e-01 -1.274970e+00 -1.498425e+00 -1.327092e+00 -1.187713e+00 9.624590e-01 1.543306e+00 5.467878e-01 9.959922e-01 8.804833e-01 7.053064e-01 4.683156e-01 2.626714e-01 1.037298e-01 -2.426195e-14 -1.037298e-01 -2.626714e-01 -4.683156e-01 -7.053064e-01 -8.804833e-01 -9.959922e-01 -5.467878e-01 -1.543306e+00 -9.624590e-01 1.187713e+00 1.327092e+00 1.498425e+00 1.274970e+00 9.648761e-01 5.214279e-01 
2.625434e-14 -4.561747e-01 -8.251346e-01 -1.064944e+00 -1.179118e+00 -1.031952e+00 -8.854245e-01 3.923281e-01 1.578812e+00 6.919041e-01 8.240401e-01 7.500754e-01 6.151661e-01 4.408910e-01 2.654121e-01 1.123003e-01 -3.722433e-14 -1.123003e-01 -2.654121e-01 -4.408910e-01 -6.151661e-01 -7.500754e-01 -8.240401e-01 -6.919041e-01 -1.578812e+00 -3.923281e-01 8.854245e-01 1.031952e+00 1.179118e+00 1.064944e+00 8.251346e-01 4.561747e-01 
1.164346e-14 -2.953557e-01 -4.921393e-01 -6.039031e-01 -4.881241e-01 -4.299130e-01 3.521631e-02 -4.476428e-01 1.329079e+00 9.016211e-01 4.383672e-01 5.718865e-01 3.566326e-01 2.475964e-01 1.205380e-01 3.000689e-02 -7.456498e-14 -3.000689e-02 -1.205380e-01 -2.475964e-01 -3.566326e-01 -5.718865e-01 -4.383672e-01 -9.016211e-01 -1.329079e+00 4.476428e-01 -3.521631e-02 4.299130e-01 4.881241e-01 6.039031e-01 4.921393e-01 2.953557e-01 
3.341175e-14 -1.232891e-01 -1.687228e-01 -1.853365e-01 2.441659e-02 1.760992e-02 6.186255e-01 -3.501446e-01 4.387925e-01 1.362420e+00 4.632762e-01 5.774262e-01 3.529133e-01 2.875341e-01 1.781980e-01 5.996169e-02 -1.025057e-13 -5.996169e-02 -1.781980e-01 -2.875341e-01 -3.529133e-01 -5.774262e-01 -4.632762e-01 -1.362420e+00 -4.387925e-01 3.501446e-01 -6.186255e-01 -1.760992e-02 -2.441659e-02 1.853365e-01 1.687228e-01 1.232891e-01 
-2.093675e-14 1.799795e-02 6.308564e-02 1.235992e-01 2.551187e-01 3.287855e-01 4.588690e-01 3.511043e-01 -5.736287e-01 1.282454e+00 9.983611e-01 6.990774e-01 4.151510e-01 9.005160e-02 4.904902e-02 -4.857716e-02 -1.391666e-13 4.857716e-02 -4.904902e-02 -9.005160e-02 -4.151510e-01 -6.990774e-01 -9.983611e-01 -1.282454e+00 5.736287e-01 -3.511043e-01 -4.588690e-01 -3.287855e-01 -2.551187e-01 -1.235992e-01 -6.308564e-02 -1.799795e-02 
-1.073114e-14 1.167642e-01 2.239379e-01 3.261784e-01 4.047068e-01 5.199942e-01 4.123113e-01 6.751617e-01 -4.921009e-01 2.844194e-01 1.025553e+00 8.162401e-01 1.088868e+00 9.041886e-01 6.910002e-01 3.029734e-01 -1.695888e-13 -3.029734e-01 -6.910002e-01 -9.041886e-01 -1.088868e+00 -8.162401e-01 -1.025553e+00 -2.844194e-01 4.921009e-01 -6.751617e-01 -4.123113e-01 -5.199942e-01 -4.047068e-01 -3.261784e-01 -2.239379e-01 -1.167642e-01 
-4.084968e-14 1.701807e-01 3.094759e-01 4.190197e-01 4.656867e-01 5.133426e-01 4.058641e-01 4.401438e-01 5.703659e-02 -2.663657e-01 4.055021e-01 2.768639e-01 4.914069e-01 9.449195e-01 1.150259e+00 7.360520e-01 -1.223620e-13 -7.360520e-01 -1.150259e+00 -9.449195e-01 -4.914069e-01 -2.768639e-01 -4.055021e-01 2.663657e-01 -5.703659e-02 -4.401438e-01 -4.058641e-01 -5.133426e-01 -4.656867e-01 -4.190197e-01 -3.094759e-01 -1.701807e-01 
-2.725984e-14 1.921574e-01 3.405144e-01 4.527632e-01 4.664410e-01 4.816236e-01 3.246711e-01 2.405167e-01 1.354638e-02 -2.211793e-01 2.344736e-01 4.441532e-01 -2.840858e-01 -5.754188e-01 -4.207009e-01 -1.642834e-01 1.924362e-13 1.642834e-01 4.207009e-01 5.754188e-01 2.840858e-01 -4.441532e-01 -2.344736e-01 2.211793e-01 -1.354638e-02 -2.405167e-01 -3.246711e-01 -4.816236e-01 -4.664410e-01 -4.527632e-01 -3.405144e-01 -1.921574e-01 
-2.598072e-14 1.907240e-01 3.368670e-01 4.419764e-01 4.507521e-01 4.523169e-01 3.262431e-01 2.555643e-01 1.307124e-02 -9.326101e-02 1.071142e-01 8.609261e-01 1.051016e+00 5.818344e-01 -1.197346e-01 -2.026214e-01 2.272641e-13 2.026214e-01 1.197346e-01 -5.818344e-01 -1.051016e+00 -8.609261e-01 -1.071142e-01 9.326101e-02 -1.307124e-02 -2.555643e-01 -3.262431e-01 -4.523169e-01 -4.507521e-01 -4.419764e-01 -3.368670e-01 -1.907240e-01 
-1.316844e-14 1.706691e-01 2.981870e-01 3.856952e-01 3.830920e-01 3.666432e-01 2.587395e-01 1.756271e-01 3.365511e-02 -1.213939e-01 -2.501209e-01 -6.929144e-02 6.013317e-01 1.062855e+00 9.349633e-01 5.480172e-01 -3.196622e-14 -5.480172e-01 -9.349633e-01 -1.062855e+00 -6.013317e-01 6.929144e-02 2.501209e-01 1.213939e-01 -3.365511e-02 -1.756271e-01 -2.587395e-01 -3.666432e-01 -3.830920e-01 -3.856952e-01 -2.981870e-01 -1.706691e-01 
-4.995728e-15 1.394896e-01 2.411595e-01 3.066009e-01 2.966580e-01 2.731764e-01 1.825004e-01 1.124913e-01 2.119980e-03 -9.734461e-02 -1.542608e-01 -3.191899e-01 -1.658826e-01 1.682736e-01 4.212463e-01 3.697737e-01 -4.900844e-14 -3.697737e-01 -4.212463e-01 -1.682736e-01 1.658826e-01 3.191899e-01 1.542608e-01 9.734461e-02 -2.119980e-03 -1.124913e-01 -1.825004e-01 -2.731764e-01 -2.966580e-01 -3.066009e-01 -2.411595e-01 -1.394896e-01 
-2.926382e-15 1.002399e-01 1.688170e-01 2.061904e-01 1.834154e-01 1.455974e-01 6.248863e-02 -1.201108e-02 -9.957621e-02 -1.793995e-01 -2.192456e-01 -2.542803e-01 -1.180078e-01 -1.687548e-02 4.992869e-02 9.134863e-02 2.026222e-14 -9.134863e-02 -4.992869e-02 1.687548e-02 1.180078e-01 2.542803e-01 2.192456e-01 1.793995e-01 9.957621e-02 1.201108e-02 -6.248863e-02 -1.455974e-01 -1.834154e-01 -2.061904e-01 -1.688170e-01 -1.002399e-01 
1.028877e-15 5.982474e-02 9.410988e-02 1.022206e-01 6.165802e-02 4.601461e-03 -9.010616e-02 -1.850483e-01 -2.895331e-01 -3.907466e-01 -4.485746e-01 -5.149746e-01 -4.711923e-01 -3.771732e-01 -2.331189e-01 -7.000296e-02 6.442794e-14 7.000296e-02 2.331189e-01 3.771732e-01 4.711923e-01 5.149746e-01 4.485746e-01 3.907466e-01 2.895331e-01 1.850483e-01 9.010616e-02 -4.601461e-03 -6.165802e-02 -1.022206e-01 -9.410988e-02 -5.982474e-02 
-3.309023e-15 2.362871e-02 2.667832e-02 6.621723e-03 -5.440421e-02 -1.365681e-01 -2.529576e-01 -3.796758e-01 -5.140048e-01 -6.427552e-01 -7.316737e-01 -7.960349e-01 -7.714495e-01 -7.115402e-01 -5.697846e-01 -2.942135e-01 4.226945e-14 2.942135e-01 5.697846e-01 7.115402e-01 7.714495e-01 7.960349e-01 7.316737e-01 6.427552e-01 5.140048e-01 3.796758e-01 2.529576e-01 1.365681e-01 5.440421e-02 -6.621723e-03 -2.667832e-02 -2.362871e-02 
-9.677672e-17 -6.287354e-03 -3.034665e-02 -7.674734e-02 -1.620842e-01 -2.752308e-01 -4.264206e-01 -5.990226e-01 -7.830631e-01 -9.659444e-01 -1.106932e+00 -1.211706e+00 -1.218357e+00 -1.133000e+00 -9.095240e-01 -5.101555e-01 1.351413e-14 5.101555e-01 9.095240e-01 1.133000e+00 1.218357e+00 1.211706e+00 1.106932e+00 9.659444e-01 7.830631e-01 5.990226e-01 4.264206e-01 2.752308e-01 1.620842e-01 7.674734e-02 3.034665e-02 6.287354e-03 
-4.335966e-15 -2.399559e-02 -6.427709e-02 -1.271684e-01 -2.285491e-01 -3.629487e-01 -5.384540e-01 -7.418021e-01 -9.591240e-01 -1.174015e+00 -1.346303e+00 -1.468288e+00 -1.484736e+00 -1.391634e+00 -1.129017e+00 -6.561043e-01 1.551266e-15 6.561043e-01 1.129017e+00 1.391634e+00 1.484736e+00 1.468288e+00 1.346303e+00 1.174015e+00 9.591240e-01 7.418021e-01 5.384540e-01 3.629487e-01 2.285491e-01 1.271684e-01 6.427709e-02 2.399559e-02 
