# vtk DataFile Version 2.0
Comment goes here
ASCII

DATASET STRUCTURED_POINTS
FIELD FieldData 1
TIME 1 1 double
0.26000000
DIMENSIONS    32   32   1

ORIGIN    0.000   0.000   0.000
SPACING   0.03125 0.03125   1.000

POINT_DATA   1024
SCALARS uX double
LOOKUP_TABLE default

-1.822525e-15 -5.873333e-02 -1.137005e-01 -1.762815e-01 -2.272058e-01 -2.880113e-01 -3.303743e-01 -3.806255e-01 -4.108671e-01 -4.527953e-01 -4.828778e-01 -5.475521e-01 -6.127187e-01 -7.204631e-01 -7.473981e-01 -6.422825e-01 -9.213911e-15 6.422825e-01 7.473981e-01 7.204631e-01 6.127187e-01 5.475521e-01 4.828778e-01 4.527953e-01 4.108671e-01 3.806255e-01 3.303743e-01 2.880113e-01 2.272058e-01 1.762815e-01 1.137005e-01 5.873333e-02 
-1.417188e-15 -5.973435e-02 -1.151103e-01 -1.802141e-01 -2.317593e-01 -2.965118e-01 -3.395174e-01 -3.933635e-01 -4.218313e-01 -4.622845e-01 -4.819741e-01 -5.323852e-01 -5.850144e-01 -6.804095e-01 -7.163939e-01 -6.048332e-01 -5.328993e-15 6.048332e-01 7.163939e-01 6.804095e-01 5.850144e-01 5.323852e-01 4.819741e-01 4.622845e-01 4.218313e-01 3.933635e-01 3.395174e-01 2.965118e-01 2.317593e-01 1.802141e-01 1.151103e-01 5.973435e-02 
1.552587e-15 -5.863921e-02 -1.137487e-01 -1.792195e-01 -2.327446e-01 -2.985221e-01 -3.437210e-01 -3.942044e-01 -4.188186e-01 -4.439738e-01 -4.483093e-01 -4.747357e-01 -5.076463e-01 -5.795196e-01 -6.195341e-01 -4.646571e-01 -4.811341e-15 4.646571e-01 6.195341e-01 5.795196e-01 5.076463e-01 4.747357e-01 4.483093e-01 4.439738e-01 4.188186e-01 3.942044e-01 3.437210e-01 2.985221e-01 2.327446e-01 1.792195e-01 1.137487e-01 5.863921e-02 
1.036102e-15 -5.868573e-02 -1.136665e-01 -1.849197e-01 -2.423628e-01 -3.196158e-01 -3.719158e-01 -4.321505e-01 -4.550601e-01 -4.707167e-01 -4.348552e-01 -3.933951e-01 -3.334169e-01 -3.072009e-01 -3.360460e-01 -1.586805e-01 -6.407118e-15 1.586805e-01 3.360460e-01 3.072009e-01 3.334169e-01 3.933951e-01 4.348552e-01 4.707167e-01 4.550601e-01 4.321505e-01 3.719158e-01 3.196158e-01 2.423628e-01 1.849197e-01 1.136665e-01 5.868573e-02 
4.322101e-15 -5.552007e-02 -1.095101e-01 -1.858305e-01 -2.517585e-01 -3.427218e-01 -4.099041e-01 -4.777079e-01 -4.936443e-01 -4.762759e-01 -4.029306e-01 -3.151760e-01 -1.555028e-01 -6.766869e-02 -3.952656e-02 1.371837e-01 8.620603e-15 -1.371837e-01 3.952656e-02 6.766869e-02 1.555028e-01 3.151760e-01 4.029306e-01 4.762759e-01 4.936443e-01 4.777079e-01 4.099041e-01 3.427218e-01 2.517585e-01 1.858305e-01 1.095101e-01 5.552007e-02 
1.801182e-15 -5.004103e-02 -1.005730e-01 -1.882095e-01 -2.657811e-01 -3.876160e-01 -4.836093e-01 -5.848488e-01 -6.218943e-01 -6.300752e-01 -5.292512e-01 -3.942743e-01 -1.431424e-01 1.399299e-02 2.631564e-01 3.769707e-01 2.441081e-14 -3.769707e-01 -2.631564e-01 -1.399299e-02 1.431424e-01 3.942743e-01 5.292512e-01 6.300752e-01 6.218943e-01 5.848488e-01 4.836093e-01 3.876160e-01 2.657811e-01 1.882095e-01 1.005730e-01 5.004103e-02 
5.704529e-15 -3.701404e-02 -8.154776e-02 -1.818815e-01 -2.819059e-01 -4.483663e-01 -5.961315e-01 -7.414885e-01 -7.988502e-01 -7.796839e-01 -7.313399e-01 -6.574850e-01 -3.729050e-01 -1.081744e-01 2.982075e-01 2.851922e-01 3.529041e-14 -2.851922e-01 -2.982075e-01 1.081744e-01 3.729050e-01 6.574850e-01 7.313399e-01 7.796839e-01 7.988502e-01 7.414885e-01 5.961315e-01 4.483663e-01 2.819059e-01 1.818815e-01 8.154776e-02 3.701404e-02 
7.796476e-16 -1.399336e-02 -4.400904e-02 -1.607185e-01 -2.779586e-01 -5.063177e-01 -7.143727e-01 -9.366494e-01 -1.214032e+00 -1.443311e+00 -1.374099e+00 -1.023003e+00 -5.638075e-01 -2.650328e-01 3.514270e-03 -5.211964e-02 5.793377e-14 5.211964e-02 -3.514270e-03 2.650328e-01 5.638075e-01 1.023003e+00 1.374099e+00 1.443311e+00 1.214032e+00 9.366494e-01 7.143727e-01 5.063177e-01 2.779586e-01 1.607185e-01 4.400904e-02 1.399336e-02 
4.148124e-15 2.535084e-02 1.958761e-02 -1.070160e-01 -2.493995e-01 -5.768636e-01 -9.678468e-01 -1.462946e+00 -1.748888e+00 -1.455725e+00 -1.130156e+00 -8.843675e-01 -7.275214e-01 -6.328483e-01 -3.952884e-01 -2.259946e-01 -4.494502e-14 2.259946e-01 3.952884e-01 6.328483e-01 7.275214e-01 8.843675e-01 1.130156e+00 1.455725e+00 1.748888e+00 1.462946e+00 9.678468e-01 5.768636e-01 2.493995e-01 1.070160e-01 -1.958761e-02 -2.535084e-02 
-1.618722e-15 7.747605e-02 1.075550e-01 -1.867250e-02 -1.555452e-01 -6.335042e-01 -1.102507e+00 -1.379047e+00 -1.080968e+00 -5.763523e-01 -5.477432e-01 -5.268634e-01 -6.408324e-01 -5.337114e-01 -2.649347e-01 -2.879233e-02 -1.591119e-13 2.879233e-02 2.649347e-01 5.337114e-01 6.408324e-01 5.268634e-01 5.477432e-01 5.763523e-01 1.080968e+00 1.379047e+00 1.102507e+00 6.335042e-01 1.555452e-01 1.867250e-02 -1.075550e-01 -7.747605e-02 
2.086373e-15 1.387758e-01 2.216185e-01 1.481472e-01 8.512527e-02 -4.806406e-01 -9.900318e-01 -5.949666e-01 4.527224e-02 8.914022e-02 6.369565e-02 5.194107e-01 7.842222e-01 1.017534e+00 8.851415e-01 5.471505e-01 -8.334153e-14 -5.471505e-01 -8.851415e-01 -1.017534e+00 -7.842222e-01 -5.194107e-01 -6.369565e-02 -8.914022e-02 -4.527224e-02 5.949666e-01 9.900318e-01 4.806406e-01 -8.512527e-02 -1.481472e-01 -2.216185e-01 -1.387758e-01 
1.894251e-15 1.868666e-01 2.989664e-01 3.416125e-01 3.722294e-01 -5.207879e-01 -5.851228e-01 3.379467e-01 6.737974e-01 1.184605e+00 1.515064e+00 1.560484e+00 1.436734e+00 1.274412e+00 8.783680e-01 4.358540e-01 6.825361e-15 -4.358540e-01 -8.783680e-01 -1.274412e+00 -1.436734e+00 -1.560484e+00 -1.515064e+00 -1.184605e+00 -6.737974e-01 -3.379467e-01 5.851228e-01 5.207879e-01 -3.722294e-01 -3.416125e-01 -2.989664e-01 -1.868666e-01 
3.988506e-15 1.851882e-01 2.849403e-01 4.954469e-01 3.257072e-01 -9.292256e-01 7.174018e-01 1.668179e+00 1.492711e+00 1.214448e+00 9.854306e-01 6.935134e-01 4.263884e-01 2.882336e-01 1.151633e-01 3.994748e-02 1.224373e-14 -3.994748e-02 -1.151633e-01 -2.882336e-01 -4.263884e-01 -6.935134e-01 -9.854306e-01 -1.214448e+00 -1.492711e+00 -1.668179e+00 -7.174018e-01 9.292256e-01 -3.257072e-01 -4.954469e-01 -2.849403e-01 -1.851882e-01 
2.066086e-14 1.351675e-01 7.424007e-02 6.716901e-01 -3.113155e-01 -2.129190e-01 2.341609e+00 1.998765e+00 1.531798e+00 6.918517e-01 4.072133e-01 2.329841e-01 1.438203e-01 1.029463e-01 1.271741e-02 -1.075250e-02 1.096865e-14 1.075250e-02 -1.271741e-02 -1.029463e-01 -1.438203e-01 -2.329841e-01 -4.072133e-01 -6.918517e-01 -1.531798e+00 -1.998765e+00 -2.341609e+00 2.129190e-01 3.113155e-01 -6.716901e-01 -7.424007e-02 -1.351675e-01 
4.618516e-15 -4.941144e-03 -1.012352e-01 4.627942e-01 -1.978067e-01 1.983353e+00 2.560979e+00 1.463661e+00 1.272799e+00 1.059997e+00 1.005755e+00 6.948505e-01 4.010840e-01 1.759323e-01 1.097927e-02 -3.486566e-02 5.916212e-15 3.486566e-02 -1.097927e-02 -1.759323e-01 -4.010840e-01 -6.948505e-01 -1.005755e+00 -1.059997e+00 -1.272799e+00 -1.463661e+00 -2.560979e+00 -1.983353e+00 1.978067e-01 -4.627942e-01 1.012352e-01 4.941144e-03 
3.074534e-14 -2.170556e-01 -1.074027e-01 -2.805684e-01 1.112493e+00 2.877272e+00 1.255437e+00 1.389347e+00 1.588190e+00 1.706283e+00 1.445645e+00 1.076453e+00 6.856596e-01 3.950032e-01 1.596185e-01 4.235338e-02 4.370220e-15 -4.235338e-02 -1.596185e-01 -3.950032e-01 -6.856596e-01 -1.076453e+00 -1.445645e+00 -1.706283e+00 -1.588190e+00 -1.389347e+00 -1.255437e+00 -2.877272e+00 -1.112493e+00 2.805684e-01 1.074027e-01 2.170556e-01 
-1.881305e-15 -3.276674e-01 -1.265087e-01 -7.286000e-01 1.832771e+00 2.473985e+00 3.888829e-01 1.459572e+00 1.709705e+00 2.036942e+00 1.798585e+00 1.395531e+00 9.164808e-01 5.334858e-01 2.371131e-01 7.436945e-02 5.048189e-15 -7.436945e-02 -2.371131e-01 -5.334858e-01 -9.164808e-01 -1.395531e+00 -1.798585e+00 -2.036942e+00 -1.709705e+00 -1.459572e+00 -3.888829e-01 -2.473985e+00 -1.832771e+00 7.286000e-01 1.265087e-01 3.276674e-01 
-1.154262e-14 -2.170556e-01 -1.074027e-01 -2.805684e-01 1.112493e+00 2.877272e+00 1.255437e+00 1.389347e+00 1.588190e+00 1.706283e+00 1.445645e+00 1.076453e+00 6.856596e-01 3.950032e-01 1.596185e-01 4.235338e-02 6.734453e-15 -4.235338e-02 -1.596185e-01 -3.950032e-01 -6.856596e-01 -1.076453e+00 -1.445645e+00 -1.706283e+00 -1.588190e+00 -1.389347e+00 -1.255437e+00 -2.877272e+00 -1.112493e+00 2.805684e-01 1.074027e-01 2.170556e-01 
5.203870e-15 -4.941144e-03 -1.012352e-01 4.627942e-01 -1.978067e-01 1.983353e+00 2.560979e+00 1.463661e+00 1.272799e+00 1.059997e+00 1.005755e+00 6.948505e-01 4.010840e-01 1.759323e-01 1.097927e-02 -3.486566e-02 1.162228e-14 3.486566e-02 -1.097927e-02 -1.759323e-01 -4.010840e-01 -6.948505e-01 -1.005755e+00 -1.059997e+00 -1.272799e+00 -1.463661e+00 -2.560979e+00 -1.983353e+00 1.978067e-01 -4.627942e-01 1.012352e-01 4.941144e-03 
-7.953307e-15 1.351675e-01 7.424007e-02 6.716901e-01 -3.113155e-01 -2.129190e-01 2.341609e+00 1.998765e+00 1.531798e+00 6.918517e-01 4.072133e-01 2.329841e-01 1.438203e-01 1.029463e-01 1.271741e-02 -1.075250e-02 8.009721e-15 1.075250e-02 -1.271741e-02 -1.029463e-01 -1.438203e-01 -2.329841e-01 -4.072133e-01 -6.918517e-01 -1.531798e+00 -1.998765e+00 -2.341609e+00 2.129190e-01 3.113155e-01 -6.716901e-01 -7.424007e-02 -1.351675e-01 
-6.352778e-15 1.851882e-01 2.849403e-01 4.954469e-01 3.257072e-01 -9.292256e-01 7.174018e-01 1.668179e+00 1.492711e+00 1.214448e+00 9.854306e-01 6.935134e-01 4.263884e-01 2.882336e-01 1.151633e-01 3.994748e-02 3.368095e-15 -3.994748e-02 -1.151633e-01 -2.882336e-01 -4.263884e-01 -6.935134e-01 -9.854306e-01 -1.214448e+00 -1.492711e+00 -1.668179e+00 -7.174018e-01 9.292256e-01 -3.257072e-01 -4.954469e-01 -2.849403e-01 -1.851882e-01 
-5.857521e-15 1.868666e-01 2.989664e-01 3.416125e-01 3.722294e-01 -5.207879e-01 -5.851228e-01 3.379467e-01 6.737974e-01 1.184605e+00 1.515064e+00 1.560484e+00 1.436734e+00 1.274412e+00 8.783680e-01 4.358540e-01 -1.952479e-14 -4.358540e-01 -8.783680e-01 -1.274412e+00 -1.436734e+00 -1.560484e+00 -1.515064e+00 -1.184605e+00 -6.737974e-01 -3.379467e-01 5.851228e-01 5.207879e-01 -3.722294e-01 -3.416125e-01 -2.989664e-01 -1.868666e-01 
-6.342024e-15 1.387758e-01 2.216185e-01 1.481472e-01 8.512527e-02 -4.806406e-01 -9.900318e-01 -5.949666e-01 4.527224e-02 8.914022e-02 6.369565e-02 5.194107e-01 7.842222e-01 1.017534e+00 8.851415e-01 5.471505e-01 -8.326823e-14 -5.471505e-01 -8.851415e-01 -1.017534e+00 -7.842222e-01 -5.194107e-01 -6.369565e-02 -8.914022e-02 -4.527224e-02 5.949666e-01 9.900318e-01 4.806406e-01 -8.512527e-02 -1.481472e-01 -2.216185e-01 -1.387758e-01 
-9.727889e-15 7.747605e-02 1.075550e-01 -1.867250e-02 -1.555452e-01 -6.335042e-01 -1.102507e+00 -1.379047e+00 -1.080968e+00 -5.763523e-01 -5.477432e-01 -5.268634e-01 -6.408324e-01 -5.337114e-01 -2.649347e-01 -2.879233e-02 9.762810e-15 2.879233e-02 2.649347e-01 5.337114e-01 6.408324e-01 5.268634e-01 5.477432e-01 5.763523e-01 1.080968e+00 1.379047e+00 1.102507e+00 6.335042e-01 1.555452e-01 1.867250e-02 -1.075550e-01 -7.747605e-02 
-8.567665e-15 2.535084e-02 1.958761e-02 -1.070160e-01 -2.493995e-01 -5.768636e-01 -9.678468e-01 -1.462946e+00 -1.748888e+00 -1.455725e+00 -1.130156e+00 -8.843675e-01 -7.275214e-01 -6.328483e-01 -3.952884e-01 -2.259946e-01 1.136605e-13 2.259946e-01 3.952884e-01 6.328483e-01 7.275214e-01 8.843675e-01 1.130156e+00 1.455725e+00 1.748888e+00 1.462946e+00 9.678468e-01 5.768636e-01 2.493995e-01 1.070160e-01 -1.958761e-02 -2.535084e-02 
-1.158615e-14 -1.399336e-02 -4.400904e-02 -1.607185e-01 -2.779586e-01 -5.063177e-01 -7.143727e-01 -9.366494e-01 -1.214032e+00 -1.443311e+00 -1.374099e+00 -1.023003e+00 -5.638075e-01 -2.650328e-01 3.514270e-03 -5.211964e-02 1.625069e-14 5.211964e-02 -3.514270e-03 2.650328e-01 5.638075e-01 1.023003e+00 1.374099e+00 1.443311e+00 1.214032e+00 9.366494e-01 7.143727e-01 5.063177e-01 2.779586e-01 1.607185e-01 4.400904e-02 1.399336e-02 
-9.161701e-15 -3.701404e-02 -8.154776e-02 -1.818815e-01 -2.819059e-01 -4.483663e-01 -5.961315e-01 -7.414885e-01 -7.988502e-01 -7.796839e-01 -7.313399e-01 -6.574850e-01 -3.729050e-01 -1.081744e-01 2.982075e-01 2.851922e-01 -4.994542e-15 -2.851922e-01 -2.982075e-01 1.081744e-01 3.729050e-01 6.574850e-01 7.313399e-01 7.796839e-01 7.988502e-01 7.414885e-01 5.961315e-01 4.483663e-01 2.819059e-01 1.818815e-01 8.154776e-02 3.701404e-02 
-1.098771e-14 -5.004103e-02 -1.005730e-01 -1.882095e-01 -2.657811e-01 -3.876160e-01 -4.836093e-01 -5.848488e-01 -6.218943e-01 -6.300752e-01 -5.292512e-01 -3.942743e-01 -1.431424e-01 1.399299e-02 2.631564e-01 3.769707e-01 3.423099e-14 -3.769707e-01 -2.631564e-01 -1.399299e-02 1.431424e-01 3.942743e-01 5.292512e-01 6.300752e-01 6.218943e-01 5.848488e-01 4.836093e-01 3.876160e-01 2.657811e-01 1.882095e-01 1.005730e-01 5.004103e-02 
-8.670182e-15 -5.552007e-02 -1.095101e-01 -1.858305e-01 -2.517585e-01 -3.427218e-01 -4.099041e-01 -4.777079e-01 -4.936443e-01 -4.762759e-01 -4.029306e-01 -3.151760e-01 -1.555028e-01 -6.766869e-02 -3.952656e-02 1.371837e-01 1.904863e-14 -1.371837e-01 3.952656e-02 6.766869e-02 1.555028e-01 3.151760e-01 4.029306e-01 4.762759e-01 4.936443e-01 4.777079e-01 4.099041e-01 3.427218e-01 2.517585e-01 1.858305e-01 1.095101e-01 5.552007e-02 
-8.627004e-15 -5.868573e-02 -1.136665e-01 -1.849197e-01 -2.423628e-01 -3.196158e-01 -3.719158e-01 -4.321505e-01 -4.550601e-01 -4.707167e-01 -4.348552e-01 -3.933951e-01 -3.334169e-01 -3.072009e-01 -3.360460e-01 -1.586805e-01 2.898564e-15 1.586805e-01 3.360460e-01 3.072009e-01 3.334169e-01 3.933951e-01 4.348552e-01 4.707167e-01 4.550601e-01 4.321505e-01 3.719158e-01 3.196158e-01 2.423628e-01 1.849197e-01 1.136665e-01 5.868573e-02 
-5.653184e-15 -5.863921e-02 -1.137487e-01 -1.792195e-01 -2.327446e-01 -2.985221e-01 -3.437210e-01 -3.942044e-01 -4.188186e-01 -4.439738e-01 -4.483093e-01 -4.747357e-01 -5.076463e-01 -5.795196e-01 -6.195341e-01 -4.646571e-01 -1.070822e-15 4.646571e-01 6.195341e-01 5.795196e-01 5.076463e-01 4.747357e-01 4.483093e-01 4.439738e-01 4.188186e-01 3.942044e-01 3.437210e-01 2.985221e-01 2.327446e-01 1.792195e-01 1.137487e-01 5.863921e-02 
-4.602126e-15 -5.973435e-02 -1.151103e-01 -1.802141e-01 -2.317593e-01 -2.965118e-01 -3.395174e-01 -3.933635e-01 -4.218313e-01 -4.622845e-01 -4.819741e-01 -5.323852e-01 -5.850144e-01 -6.804095e-01 -7.163939e-01 -6.048332e-01 -9.026086e-15 6.048332e-01 7.163939e-01 6.804095e-01 5.850144e-01 5.323852e-01 4.819741e-01 4.622845e-01 4.218313e-01 3.933635e-01 3.395174e-01 2.965118e-01 2.317593e-01 1.802141e-01 1.151103e-01 5.973435e-02 
