# vtk DataFile Version 2.0
Comment goes here
ASCII

DATASET STRUCTURED_POINTS
FIELD FieldData 1
TIME 1 1 double
0.62000000
DIMENSIONS    32   32   1

ORIGIN    0.000   0.000   0.000
SPACING   0.03125 0.03125   1.000

POINT_DATA   1024
SCALARS uX double
LOOKUP_TABLE default

-2.849435e-15 -5.475238e-02 -1.169250e-01 -1.958793e-01 -2.935777e-01 -4.228989e-01 -5.761724e-01 -7.743283e-01 -9.827324e-01 -1.227973e+00 -1.422500e+00 -1.610328e+00 -1.646646e+00 -1.604997e+00 -1.291989e+00 -7.767444e-01 3.098017e-14 7.767444e-01 1.291989e+00 1.604997e+00 1.646646e+00 1.610328e+00 1.422500e+00 1.227973e+00 9.827324e-01 7.743283e-01 5.761724e-01 4.228989e-01 2.935777e-01 1.958793e-01 1.169250e-01 5.475238e-02 
-5.647366e-15 -5.176671e-02 -1.112669e-01 -1.872462e-01 -2.820862e-01 -4.064223e-01 -5.536670e-01 -7.414590e-01 -9.382103e-01 -1.168928e+00 -1.348508e+00 -1.522000e+00 -1.539764e+00 -1.484557e+00 -1.164453e+00 -6.801710e-01 2.195096e-14 6.801710e-01 1.164453e+00 1.484557e+00 1.539764e+00 1.522000e+00 1.348508e+00 1.168928e+00 9.382103e-01 7.414590e-01 5.536670e-01 4.064223e-01 2.820862e-01 1.872462e-01 1.112669e-01 5.176671e-02 
-1.757724e-16 -4.008318e-02 -8.904948e-02 -1.544409e-01 -2.392647e-01 -3.491365e-01 -4.782670e-01 -6.372386e-01 -7.982110e-01 -9.829112e-01 -1.112794e+00 -1.235412e+00 -1.200124e+00 -1.135429e+00 -8.461414e-01 -4.619959e-01 2.357759e-14 4.619959e-01 8.461414e-01 1.135429e+00 1.200124e+00 1.235412e+00 1.112794e+00 9.829112e-01 7.982110e-01 6.372386e-01 4.782670e-01 3.491365e-01 2.392647e-01 1.544409e-01 8.904948e-02 4.008318e-02 
-3.939890e-15 -2.280962e-02 -5.692170e-02 -1.083628e-01 -1.820315e-01 -2.755451e-01 -3.879005e-01 -5.163379e-01 -6.447697e-01 -7.832567e-01 -8.663119e-01 -9.479634e-01 -8.546184e-01 -7.656498e-01 -4.620952e-01 -2.071961e-01 2.639380e-14 2.071961e-01 4.620952e-01 7.656498e-01 8.546184e-01 9.479634e-01 8.663119e-01 7.832567e-01 6.447697e-01 5.163379e-01 3.879005e-01 2.755451e-01 1.820315e-01 1.083628e-01 5.692170e-02 2.280962e-02 
1.175644e-16 3.340706e-03 -9.194695e-03 -4.240882e-02 -1.045106e-01 -1.836971e-01 -2.857182e-01 -3.931412e-01 -5.025078e-01 -6.113861e-01 -6.718509e-01 -7.162752e-01 -5.349810e-01 -4.552066e-01 -2.105083e-01 -8.736873e-02 2.151128e-14 8.736873e-02 2.105083e-01 4.552066e-01 5.349810e-01 7.162752e-01 6.718509e-01 6.113861e-01 5.025078e-01 3.931412e-01 2.857182e-01 1.836971e-01 1.045106e-01 4.240882e-02 9.194695e-03 -3.340706e-03 
-5.303795e-15 3.487083e-02 4.754316e-02 3.301113e-02 -2.002880e-02 -8.980011e-02 -1.935900e-01 -2.931980e-01 -4.194499e-01 -5.343076e-01 -6.352066e-01 -7.241069e-01 -4.575504e-01 -2.361518e-01 1.362448e-01 1.745989e-01 -4.932431e-15 -1.745989e-01 -1.362448e-01 2.361518e-01 4.575504e-01 7.241069e-01 6.352066e-01 5.343076e-01 4.194499e-01 2.931980e-01 1.935900e-01 8.980011e-02 2.002880e-02 -3.301113e-02 -4.754316e-02 -3.487083e-02 
-2.324459e-15 7.551222e-02 1.200905e-01 1.280728e-01 8.241825e-02 1.660092e-02 -1.020496e-01 -2.112871e-01 -3.732787e-01 -5.451370e-01 -7.276004e-01 -5.133585e-01 2.813864e-01 7.724773e-01 7.275235e-01 4.284851e-01 -2.008575e-14 -4.284851e-01 -7.275235e-01 -7.724773e-01 -2.813864e-01 5.133585e-01 7.276004e-01 5.451370e-01 3.732787e-01 2.112871e-01 1.020496e-01 -1.660092e-02 -8.241825e-02 -1.280728e-01 -1.200905e-01 -7.551222e-02 
-6.798345e-15 1.173929e-01 1.962557e-01 2.258454e-01 1.905916e-01 1.283538e-01 -2.059988e-04 -1.114144e-01 -3.416011e-01 -4.678418e-01 -4.130945e-01 5.224207e-01 9.192095e-01 6.346785e-01 4.684470e-02 -1.122662e-01 5.507439e-14 1.122662e-01 -4.684470e-02 -6.346785e-01 -9.192095e-01 -5.224207e-01 4.130945e-01 4.678418e-01 3.416011e-01 1.114144e-01 2.059988e-04 -1.283538e-01 -1.905916e-01 -2.258454e-01 -1.962557e-01 -1.173929e-01 
-1.839760e-15 1.614980e-01 2.791546e-01 3.377870e-01 3.190683e-01 2.644401e-01 1.104926e-01 -6.334015e-03 -2.070077e-01 -2.202364e-01 2.285618e-01 7.358597e-01 6.191131e-03 -4.430462e-01 -3.800380e-01 -1.344886e-01 6.615575e-14 1.344886e-01 3.800380e-01 4.430462e-01 -6.191131e-03 -7.358597e-01 -2.285618e-01 2.202364e-01 2.070077e-01 6.334015e-03 -1.104926e-01 -2.644401e-01 -3.190683e-01 -3.377870e-01 -2.791546e-01 -1.614980e-01 
1.716769e-15 1.907674e-01 3.404647e-01 4.199737e-01 4.280378e-01 3.655914e-01 2.095382e-01 1.181651e-01 1.693533e-02 4.043015e-02 6.243868e-01 4.570642e-01 2.687655e-01 8.713095e-01 1.008417e+00 6.935188e-01 -8.633963e-15 -6.935188e-01 -1.008417e+00 -8.713095e-01 -2.687655e-01 -4.570642e-01 -6.243868e-01 -4.043015e-02 -1.693533e-02 -1.181651e-01 -2.095382e-01 -3.655914e-01 -4.280378e-01 -4.199737e-01 -3.404647e-01 -1.907674e-01 
1.192784e-14 2.016403e-01 3.777448e-01 4.890057e-01 5.600873e-01 5.640535e-01 4.675583e-01 6.291559e-01 -2.182787e-02 4.292195e-01 8.885723e-01 7.794080e-01 1.133172e+00 1.328919e+00 1.077765e+00 5.662196e-01 -2.294716e-14 -5.662196e-01 -1.077765e+00 -1.328919e+00 -1.133172e+00 -7.794080e-01 -8.885723e-01 -4.292195e-01 2.182787e-02 -6.291559e-01 -4.675583e-01 -5.640535e-01 -5.600873e-01 -4.890057e-01 -3.777448e-01 -2.016403e-01 
2.875645e-14 1.746697e-01 3.500995e-01 4.769171e-01 6.193387e-01 6.025404e-01 6.651670e-01 5.930083e-01 -2.542376e-01 1.084755e+00 1.170115e+00 7.106296e-01 6.397368e-01 2.578679e-01 1.023536e-01 1.256114e-02 8.174060e-15 -1.256114e-02 -1.023536e-01 -2.578679e-01 -6.397368e-01 -7.106296e-01 -1.170115e+00 -1.084755e+00 2.542376e-01 -5.930083e-01 -6.651670e-01 -6.025404e-01 -6.193387e-01 -4.769171e-01 -3.500995e-01 -1.746697e-01 
3.743227e-14 9.635832e-02 2.320818e-01 3.438524e-01 5.672736e-01 4.968038e-01 9.281653e-01 -1.957921e-01 2.984650e-01 1.368459e+00 8.661178e-01 5.392487e-01 2.254691e-01 1.021119e-01 -3.376027e-02 -4.689296e-02 -7.477683e-15 4.689296e-02 3.376027e-02 -1.021119e-01 -2.254691e-01 -5.392487e-01 -8.661178e-01 -1.368459e+00 -2.984650e-01 1.957921e-01 -9.281653e-01 -4.968038e-01 -5.672736e-01 -3.438524e-01 -2.320818e-01 -9.635832e-02 
5.666204e-14 -2.757141e-02 1.250035e-02 1.288220e-01 3.751593e-01 5.796695e-01 7.579029e-01 -2.983066e-01 1.339698e+00 1.175679e+00 5.343795e-01 6.185822e-01 3.109643e-01 2.189910e-01 5.971423e-02 2.376862e-03 5.263410e-16 -2.376862e-03 -5.971423e-02 -2.189910e-01 -3.109643e-01 -6.185822e-01 -5.343795e-01 -1.175679e+00 -1.339698e+00 2.983066e-01 -7.579029e-01 -5.796695e-01 -3.751593e-01 -1.288220e-01 -1.250035e-02 2.757141e-02 
3.572909e-14 -2.045758e-01 -3.403302e-01 -3.018033e-01 -2.212722e-01 1.161991e-01 -1.868715e-01 4.545306e-01 1.527394e+00 8.350226e-01 6.713371e-01 7.053332e-01 4.802218e-01 3.353192e-01 1.449197e-01 5.328090e-02 -1.703895e-14 -5.328090e-02 -1.449197e-01 -3.353192e-01 -4.802218e-01 -7.053332e-01 -6.713371e-01 -8.350226e-01 -1.527394e+00 -4.545306e-01 1.868715e-01 -1.161991e-01 2.212722e-01 3.018033e-01 3.403302e-01 2.045758e-01 
4.346698e-14 -4.155531e-01 -7.786748e-01 -9.889603e-01 -1.128981e+00 -9.043878e-01 -4.972446e-01 1.249543e+00 1.241635e+00 6.534703e-01 9.342396e-01 8.853734e-01 7.132572e-01 5.035113e-01 2.729735e-01 1.165776e-01 -1.188033e-14 -1.165776e-01 -2.729735e-01 -5.035113e-01 -7.132572e-01 -8.853734e-01 -9.342396e-01 -6.534703e-01 -1.241635e+00 -1.249543e+00 4.972446e-01 9.043878e-01 1.128981e+00 9.889603e-01 7.786748e-01 4.155531e-01 
-2.923069e-14 -5.326286e-01 -1.024070e+00 -1.404250e+00 -1.634022e+00 -1.427629e+00 -3.304475e-01 1.494542e+00 1.136680e+00 6.819122e-01 1.137812e+00 1.020720e+00 8.639740e-01 5.947044e-01 3.324683e-01 1.422655e-01 -2.206625e-14 -1.422655e-01 -3.324683e-01 -5.947044e-01 -8.639740e-01 -1.020720e+00 -1.137812e+00 -6.819122e-01 -1.136680e+00 -1.494542e+00 3.304475e-01 1.427629e+00 1.634022e+00 1.404250e+00 1.024070e+00 5.326286e-01 
-4.767440e-14 -4.155531e-01 -7.786748e-01 -9.889603e-01 -1.128981e+00 -9.043878e-01 -4.972446e-01 1.249543e+00 1.241635e+00 6.534703e-01 9.342396e-01 8.853734e-01 7.132572e-01 5.035113e-01 2.729735e-01 1.165776e-01 -3.345965e-14 -1.165776e-01 -2.729735e-01 -5.035113e-01 -7.132572e-01 -8.853734e-01 -9.342396e-01 -6.534703e-01 -1.241635e+00 -1.249543e+00 4.972446e-01 9.043878e-01 1.128981e+00 9.889603e-01 7.786748e-01 4.155531e-01 
-6.432586e-14 -2.045758e-01 -3.403302e-01 -3.018033e-01 -2.212722e-01 1.161991e-01 -1.868715e-01 4.545306e-01 1.527394e+00 8.350226e-01 6.713371e-01 7.053332e-01 4.802218e-01 3.353192e-01 1.449197e-01 5.328090e-02 -2.473597e-14 -5.328090e-02 -1.449197e-01 -3.353192e-01 -4.802218e-01 -7.053332e-01 -6.713371e-01 -8.350226e-01 -1.527394e+00 -4.545306e-01 1.868715e-01 -1.161991e-01 2.212722e-01 3.018033e-01 3.403302e-01 2.045758e-01 
-4.944859e-14 -2.757141e-02 1.250035e-02 1.288220e-01 3.751593e-01 5.796695e-01 7.579029e-01 -2.983066e-01 1.339698e+00 1.175679e+00 5.343795e-01 6.185822e-01 3.109643e-01 2.189910e-01 5.971423e-02 2.376862e-03 -5.947569e-14 -2.376862e-03 -5.971423e-02 -2.189910e-01 -3.109643e-01 -6.185822e-01 -5.343795e-01 -1.175679e+00 -1.339698e+00 2.983066e-01 -7.579029e-01 -5.796695e-01 -3.751593e-01 -1.288220e-01 -1.250035e-02 2.757141e-02 
-3.575748e-14 9.635832e-02 2.320818e-01 3.438524e-01 5.672736e-01 4.968038e-01 9.281653e-01 -1.957921e-01 2.984650e-01 1.368459e+00 8.661178e-01 5.392487e-01 2.254691e-01 1.021119e-01 -3.376027e-02 -4.689296e-02 -5.882068e-14 4.689296e-02 3.376027e-02 -1.021119e-01 -2.254691e-01 -5.392487e-01 -8.661178e-01 -1.368459e+00 -2.984650e-01 1.957921e-01 -9.281653e-01 -4.968038e-01 -5.672736e-01 -3.438524e-01 -2.320818e-01 -9.635832e-02 
-2.178875e-14 1.746697e-01 3.500995e-01 4.769171e-01 6.193387e-01 6.025404e-01 6.651670e-01 5.930083e-01 -2.542376e-01 1.084755e+00 1.170115e+00 7.106296e-01 6.397368e-01 2.578679e-01 1.023536e-01 1.256114e-02 -1.095046e-13 -1.256114e-02 -1.023536e-01 -2.578679e-01 -6.397368e-01 -7.106296e-01 -1.170115e+00 -1.084755e+00 2.542376e-01 -5.930083e-01 -6.651670e-01 -6.025404e-01 -6.193387e-01 -4.769171e-01 -3.500995e-01 -1.746697e-01 
1.138322e-15 2.016403e-01 3.777448e-01 4.890057e-01 5.600873e-01 5.640535e-01 4.675583e-01 6.291559e-01 -2.182787e-02 4.292195e-01 8.885723e-01 7.794080e-01 1.133172e+00 1.328919e+00 1.077765e+00 5.662196e-01 -7.797259e-14 -5.662196e-01 -1.077765e+00 -1.328919e+00 -1.133172e+00 -7.794080e-01 -8.885723e-01 -4.292195e-01 2.182787e-02 -6.291559e-01 -4.675583e-01 -5.640535e-01 -5.600873e-01 -4.890057e-01 -3.777448e-01 -2.016403e-01 
-3.863691e-15 1.907674e-01 3.404647e-01 4.199737e-01 4.280378e-01 3.655914e-01 2.095382e-01 1.181651e-01 1.693533e-02 4.043015e-02 6.243868e-01 4.570642e-01 2.687655e-01 8.713095e-01 1.008417e+00 6.935188e-01 -3.847157e-14 -6.935188e-01 -1.008417e+00 -8.713095e-01 -2.687655e-01 -4.570642e-01 -6.243868e-01 -4.043015e-02 -1.693533e-02 -1.181651e-01 -2.095382e-01 -3.655914e-01 -4.280378e-01 -4.199737e-01 -3.404647e-01 -1.907674e-01 
9.606155e-15 1.614980e-01 2.791546e-01 3.377870e-01 3.190683e-01 2.644401e-01 1.104926e-01 -6.334015e-03 -2.070077e-01 -2.202364e-01 2.285618e-01 7.358597e-01 6.191131e-03 -4.430462e-01 -3.800380e-01 -1.344886e-01 4.079257e-14 1.344886e-01 3.800380e-01 4.430462e-01 -6.191131e-03 -7.358597e-01 -2.285618e-01 2.202364e-01 2.070077e-01 6.334015e-03 -1.104926e-01 -2.644401e-01 -3.190683e-01 -3.377870e-01 -2.791546e-01 -1.614980e-01 
-3.863981e-15 1.173929e-01 1.962557e-01 2.258454e-01 1.905916e-01 1.283538e-01 -2.059988e-04 -1.114144e-01 -3.416011e-01 -4.678418e-01 -4.130945e-01 5.224207e-01 9.192095e-01 6.346785e-01 4.684470e-02 -1.122662e-01 4.082509e-14 1.122662e-01 -4.684470e-02 -6.346785e-01 -9.192095e-01 -5.224207e-01 4.130945e-01 4.678418e-01 3.416011e-01 1.114144e-01 2.059988e-04 -1.283538e-01 -1.905916e-01 -2.258454e-01 -1.962557e-01 -1.173929e-01 
3.034768e-15 7.551222e-02 1.200905e-01 1.280728e-01 8.241825e-02 1.660092e-02 -1.020496e-01 -2.112871e-01 -3.732787e-01 -5.451370e-01 -7.276004e-01 -5.133585e-01 2.813864e-01 7.724773e-01 7.275235e-01 4.284851e-01 -4.990624e-14 -4.284851e-01 -7.275235e-01 -7.724773e-01 -2.813864e-01 5.133585e-01 7.276004e-01 5.451370e-01 3.732787e-01 2.112871e-01 1.020496e-01 -1.660092e-02 -8.241825e-02 -1.280728e-01 -1.200905e-01 -7.551222e-02 
-9.400079e-15 3.487083e-02 4.754316e-02 3.301113e-02 -2.002880e-02 -8.980011e-02 -1.935900e-01 -2.931980e-01 -4.194499e-01 -5.343076e-01 -6.352066e-01 -7.241069e-01 -4.575504e-01 -2.361518e-01 1.362448e-01 1.745989e-01 -5.745561e-14 -1.745989e-01 -1.362448e-01 2.361518e-01 4.575504e-01 7.241069e-01 6.352066e-01 5.343076e-01 4.194499e-01 2.931980e-01 1.935900e-01 8.980011e-02 2.002880e-02 -3.301113e-02 -4.754316e-02 -3.487083e-02 
-4.245858e-15 3.340706e-03 -9.194695e-03 -4.240882e-02 -1.045106e-01 -1.836971e-01 -2.857182e-01 -3.931412e-01 -5.025078e-01 -6.113861e-01 -6.718509e-01 -7.162752e-01 -5.349810e-01 -4.552066e-01 -2.105083e-01 -8.736873e-02 -7.704151e-15 8.736873e-02 2.105083e-01 4.552066e-01 5.349810e-01 7.162752e-01 6.718509e-01 6.113861e-01 5.025078e-01 3.931412e-01 2.857182e-01 1.836971e-01 1.045106e-01 4.240882e-02 9.194695e-03 -3.340706e-03 
-1.107346e-14 -2.280962e-02 -5.692170e-02 -1.083628e-01 -1.820315e-01 -2.755451e-01 -3.879005e-01 -5.163379e-01 -6.447697e-01 -7.832567e-01 -8.663119e-01 -9.479634e-01 -8.546184e-01 -7.656498e-01 -4.620952e-01 -2.071961e-01 6.084537e-14 2.071961e-01 4.620952e-01 7.656498e-01 8.546184e-01 9.479634e-01 8.663119e-01 7.832567e-01 6.447697e-01 5.163379e-01 3.879005e-01 2.755451e-01 1.820315e-01 1.083628e-01 5.692170e-02 2.280962e-02 
-5.265947e-15 -4.008318e-02 -8.904948e-02 -1.544409e-01 -2.392647e-01 -3.491365e-01 -4.782670e-01 -6.372386e-01 -7.982110e-01 -9.829112e-01 -1.112794e+00 -1.235412e+00 -1.200124e+00 -1.135429e+00 -8.461414e-01 -4.619959e-01 7.870881e-14 4.619959e-01 8.461414e-01 1.135429e+00 1.200124e+00 1.235412e+00 1.112794e+00 9.829112e-01 7.982110e-01 6.372386e-01 4.782670e-01 3.491365e-01 2.392647e-01 1.544409e-01 8.904948e-02 4.008318e-02 
-8.876320e-15 -5.176671e-02 -1.112669e-01 -1.872462e-01 -2.820862e-01 -4.064223e-01 -5.536670e-01 -7.414590e-01 -9.382103e-01 -1.168928e+00 -1.348508e+00 -1.522000e+00 -1.539764e+00 -1.484557e+00 -1.164453e+00 -6.801710e-01 6.294740e-14 6.801710e-01 1.164453e+00 1.484557e+00 1.539764e+00 1.522000e+00 1.348508e+00 1.168928e+00 9.382103e-01 7.414590e-01 5.536670e-01 4.064223e-01 2.820862e-01 1.872462e-01 1.112669e-01 5.176671e-02 
