# vtk DataFile Version 2.0
Comment goes here
ASCII

DATASET STRUCTURED_POINTS
FIELD FieldData 1
TIME 1 1 double
0.40000000
DIMENSIONS    32   32   1

ORIGIN    0.000   0.000   0.000
SPACING   0.03125 0.03125   1.000

POINT_DATA   1024
SCALARS uX double
LOOKUP_TABLE default

4.691846e-15 4.809640e-02 9.008906e-02 1.275540e-01 1.483705e-01 1.605796e-01 1.468704e-01 1.174175e-01 4.911190e-02 -4.788955e-02 -2.009071e-01 -3.832217e-01 -5.898850e-01 -7.362366e-01 -7.570657e-01 -5.689059e-01 -2.512069e-14 5.689059e-01 7.570657e-01 7.362366e-01 5.898850e-01 3.832217e-01 2.009071e-01 4.788955e-02 -4.911190e-02 -1.174175e-01 -1.468704e-01 -1.605796e-01 -1.483705e-01 -1.275540e-01 -9.008906e-02 -4.809640e-02 
3.932679e-15 5.079121e-02 9.543766e-02 1.351762e-01 1.587302e-01 1.733520e-01 1.641674e-01 1.395467e-01 8.101330e-02 -3.060701e-03 -1.386802e-01 -2.998243e-01 -5.001296e-01 -6.477448e-01 -7.028045e-01 -5.466955e-01 -1.580093e-14 5.466955e-01 7.028045e-01 6.477448e-01 5.001296e-01 2.998243e-01 1.386802e-01 3.060701e-03 -8.101330e-02 -1.395467e-01 -1.641674e-01 -1.733520e-01 -1.587302e-01 -1.351762e-01 -9.543766e-02 -5.079121e-02 
7.396492e-15 5.610926e-02 1.051869e-01 1.493247e-01 1.759506e-01 1.954819e-01 1.915547e-01 1.769267e-01 1.338145e-01 7.463811e-02 -2.509472e-02 -1.498625e-01 -3.209091e-01 -4.602756e-01 -5.721967e-01 -4.779649e-01 -9.046065e-15 4.779649e-01 5.721967e-01 4.602756e-01 3.209091e-01 1.498625e-01 2.509472e-02 -7.463811e-02 -1.338145e-01 -1.769267e-01 -1.915547e-01 -1.954819e-01 -1.759506e-01 -1.493247e-01 -1.051869e-01 -5.610926e-02 
5.944048e-15 6.692012e-02 1.252888e-01 1.774553e-01 2.105587e-01 2.370618e-01 2.430111e-01 2.402124e-01 2.231347e-01 1.972872e-01 1.570269e-01 1.075105e-01 -1.256102e-02 -1.313475e-01 -3.518915e-01 -2.714419e-01 3.859495e-15 2.714419e-01 3.518915e-01 1.313475e-01 1.256102e-02 -1.075105e-01 -1.570269e-01 -1.972872e-01 -2.231347e-01 -2.402124e-01 -2.430111e-01 -2.370618e-01 -2.105587e-01 -1.774553e-01 -1.252888e-01 -6.692012e-02 
8.652755e-15 8.084750e-02 1.502001e-01 2.111188e-01 2.487200e-01 2.819442e-01 2.929530e-01 3.016957e-01 3.034559e-01 3.072186e-01 3.118784e-01 3.015161e-01 2.769301e-01 2.107868e-01 1.563141e-02 1.373704e-01 3.496404e-15 -1.373704e-01 -1.563141e-02 -2.107868e-01 -2.769301e-01 -3.015161e-01 -3.118784e-01 -3.072186e-01 -3.034559e-01 -3.016957e-01 -2.929530e-01 -2.819442e-01 -2.487200e-01 -2.111188e-01 -1.502001e-01 -8.084750e-02 
6.758147e-15 1.011234e-01 1.856650e-01 2.572676e-01 2.981182e-01 3.356350e-01 3.475578e-01 3.568463e-01 3.813409e-01 3.851843e-01 4.586578e-01 5.503343e-01 5.350294e-01 4.719787e-01 6.023597e-01 6.930402e-01 -1.157969e-15 -6.930402e-01 -6.023597e-01 -4.719787e-01 -5.350294e-01 -5.503343e-01 -4.586578e-01 -3.851843e-01 -3.813409e-01 -3.568463e-01 -3.475578e-01 -3.356350e-01 -2.981182e-01 -2.572676e-01 -1.856650e-01 -1.011234e-01 
8.057550e-15 1.250305e-01 2.267437e-01 3.070560e-01 3.475083e-01 3.868508e-01 3.934394e-01 4.105346e-01 4.513906e-01 4.797225e-01 4.952640e-01 4.110367e-01 4.539014e-01 8.286039e-01 1.257562e+00 9.460433e-01 -2.367574e-14 -9.460433e-01 -1.257562e+00 -8.286039e-01 -4.539014e-01 -4.110367e-01 -4.952640e-01 -4.797225e-01 -4.513906e-01 -4.105346e-01 -3.934394e-01 -3.868508e-01 -3.475083e-01 -3.070560e-01 -2.267437e-01 -1.250305e-01 
5.164687e-15 1.544764e-01 2.763678e-01 3.664740e-01 4.027196e-01 4.466463e-01 4.372876e-01 4.572776e-01 4.448950e-01 2.519780e-01 2.398313e-01 5.119670e-01 9.675474e-01 1.213911e+00 1.045371e+00 4.215476e-01 2.070085e-14 -4.215476e-01 -1.045371e+00 -1.213911e+00 -9.675474e-01 -5.119670e-01 -2.398313e-01 -2.519780e-01 -4.448950e-01 -4.572776e-01 -4.372876e-01 -4.466463e-01 -4.027196e-01 -3.664740e-01 -2.763678e-01 -1.544764e-01 
6.008214e-15 1.804679e-01 3.212716e-01 4.132537e-01 4.462496e-01 4.936045e-01 4.624910e-01 4.247967e-01 2.738214e-01 2.216729e-01 4.200892e-01 4.570358e-01 3.459983e-01 -7.018185e-02 -2.760748e-01 -3.289189e-01 5.282478e-14 3.289189e-01 2.760748e-01 7.018185e-02 -3.459983e-01 -4.570358e-01 -4.200892e-01 -2.216729e-01 -2.738214e-01 -4.247967e-01 -4.624910e-01 -4.936045e-01 -4.462496e-01 -4.132537e-01 -3.212716e-01 -1.804679e-01 
3.610806e-15 1.977735e-01 3.518335e-01 4.420329e-01 4.772793e-01 5.515785e-01 4.415609e-01 3.092686e-01 8.132415e-02 6.797133e-02 -1.104428e-01 -6.671032e-01 -9.267061e-01 -9.010750e-01 -4.745807e-01 -1.998074e-01 -2.650499e-14 1.998074e-01 4.745807e-01 9.010750e-01 9.267061e-01 6.671032e-01 1.104428e-01 -6.797133e-02 -8.132415e-02 -3.092686e-01 -4.415609e-01 -5.515785e-01 -4.772793e-01 -4.420329e-01 -3.518335e-01 -1.977735e-01 
4.657894e-15 1.866997e-01 3.364514e-01 3.995589e-01 4.493998e-01 5.253522e-01 1.230068e-01 -3.112586e-01 -3.660590e-01 -5.622732e-01 -7.685579e-01 -4.172486e-01 1.363473e-01 4.731155e-01 5.061590e-01 3.377062e-01 -6.202293e-14 -3.377062e-01 -5.061590e-01 -4.731155e-01 -1.363473e-01 4.172486e-01 7.685579e-01 5.622732e-01 3.660590e-01 3.112586e-01 -1.230068e-01 -5.253522e-01 -4.493998e-01 -3.995589e-01 -3.364514e-01 -1.866997e-01 
7.094244e-15 1.333459e-01 2.495891e-01 2.498735e-01 3.259903e-01 1.897745e-01 -7.404221e-01 -9.210509e-01 -5.194913e-01 -4.528916e-01 -2.633141e-01 -2.736359e-03 3.070170e-01 3.729089e-01 2.682999e-01 1.533429e-01 -2.365414e-14 -1.533429e-01 -2.682999e-01 -3.729089e-01 -3.070170e-01 2.736359e-03 2.633141e-01 4.528916e-01 5.194913e-01 9.210509e-01 7.404221e-01 -1.897745e-01 -3.259903e-01 -2.498735e-01 -2.495891e-01 -1.333459e-01 
5.266995e-15 1.507746e-02 4.964975e-02 -8.550581e-02 1.933700e-02 -7.173366e-01 -1.338208e+00 -3.015861e-01 -1.705925e-01 -4.218993e-01 -5.010518e-01 -4.862718e-01 -3.655199e-01 -3.261472e-01 -2.204816e-01 -1.153890e-01 -1.600271e-14 1.153890e-01 2.204816e-01 3.261472e-01 3.655199e-01 4.862718e-01 5.010518e-01 4.218993e-01 1.705925e-01 3.015861e-01 1.338208e+00 7.173366e-01 -1.933700e-02 8.550581e-02 -4.964975e-02 -1.507746e-02 
1.330685e-14 -1.649393e-01 -2.709067e-01 -5.290928e-01 -4.497385e-01 -1.394656e+00 -6.969260e-01 4.657801e-01 -3.248013e-01 -5.269220e-01 -7.209882e-01 -4.643667e-01 -4.004518e-01 -3.340747e-01 -2.618707e-01 -1.579972e-01 -2.457258e-15 1.579972e-01 2.618707e-01 3.340747e-01 4.004518e-01 4.643667e-01 7.209882e-01 5.269220e-01 3.248013e-01 -4.657801e-01 6.969260e-01 1.394656e+00 4.497385e-01 5.290928e-01 2.709067e-01 1.649393e-01 
-1.133155e-14 -3.629879e-01 -6.717967e-01 -8.613751e-01 -9.889234e-01 -1.073238e+00 -2.165808e-02 -1.303438e-01 -5.720053e-01 -2.285786e-01 -1.928001e-01 -1.806430e-01 -3.270933e-01 -3.049799e-01 -2.885870e-01 -1.770805e-01 -3.667966e-16 1.770805e-01 2.885870e-01 3.049799e-01 3.270933e-01 1.806430e-01 1.928001e-01 2.285786e-01 5.720053e-01 1.303438e-01 2.165808e-02 1.073238e+00 9.889234e-01 8.613751e-01 6.717967e-01 3.629879e-01 
2.425666e-14 -5.394912e-01 -1.013275e+00 -1.099187e+00 -1.423658e+00 -5.393923e-01 -1.962366e-01 -1.047881e+00 -3.674155e-01 8.045337e-02 3.779094e-01 2.642188e-01 3.025455e-02 -4.455642e-02 -1.248832e-01 -9.198861e-02 3.834392e-15 9.198861e-02 1.248832e-01 4.455642e-02 -3.025455e-02 -2.642188e-01 -3.779094e-01 -8.045337e-02 3.674155e-01 1.047881e+00 1.962366e-01 5.393923e-01 1.423658e+00 1.099187e+00 1.013275e+00 5.394912e-01 
-3.222576e-14 -6.105852e-01 -1.125502e+00 -1.194417e+00 -1.544854e+00 -3.458975e-01 -3.540289e-01 -1.258948e+00 -1.567631e-01 3.068876e-01 7.214529e-01 5.120962e-01 1.905755e-01 3.439319e-02 -8.695854e-02 -7.462726e-02 9.018773e-15 7.462726e-02 8.695854e-02 -3.439319e-02 -1.905755e-01 -5.120962e-01 -7.214529e-01 -3.068876e-01 1.567631e-01 1.258948e+00 3.540289e-01 3.458975e-01 1.544854e+00 1.194417e+00 1.125502e+00 6.105852e-01 
-3.694395e-14 -5.394912e-01 -1.013275e+00 -1.099187e+00 -1.423658e+00 -5.393923e-01 -1.962366e-01 -1.047881e+00 -3.674155e-01 8.045337e-02 3.779094e-01 2.642188e-01 3.025455e-02 -4.455642e-02 -1.248832e-01 -9.198861e-02 1.131425e-14 9.198861e-02 1.248832e-01 4.455642e-02 -3.025455e-02 -2.642188e-01 -3.779094e-01 -8.045337e-02 3.674155e-01 1.047881e+00 1.962366e-01 5.393923e-01 1.423658e+00 1.099187e+00 1.013275e+00 5.394912e-01 
-2.252825e-14 -3.629879e-01 -6.717967e-01 -8.613751e-01 -9.889234e-01 -1.073238e+00 -2.165808e-02 -1.303438e-01 -5.720053e-01 -2.285786e-01 -1.928001e-01 -1.806430e-01 -3.270933e-01 -3.049799e-01 -2.885870e-01 -1.770805e-01 2.973971e-14 1.770805e-01 2.885870e-01 3.049799e-01 3.270933e-01 1.806430e-01 1.928001e-01 2.285786e-01 5.720053e-01 1.303438e-01 2.165808e-02 1.073238e+00 9.889234e-01 8.613751e-01 6.717967e-01 3.629879e-01 
-2.587103e-14 -1.649393e-01 -2.709067e-01 -5.290928e-01 -4.497385e-01 -1.394656e+00 -6.969260e-01 4.657801e-01 -3.248013e-01 -5.269220e-01 -7.209882e-01 -4.643667e-01 -4.004518e-01 -3.340747e-01 -2.618707e-01 -1.579972e-01 3.289959e-14 1.579972e-01 2.618707e-01 3.340747e-01 4.004518e-01 4.643667e-01 7.209882e-01 5.269220e-01 3.248013e-01 -4.657801e-01 6.969260e-01 1.394656e+00 4.497385e-01 5.290928e-01 2.709067e-01 1.649393e-01 
-3.785311e-15 1.507746e-02 4.964975e-02 -8.550581e-02 1.933700e-02 -7.173366e-01 -1.338208e+00 -3.015861e-01 -1.705925e-01 -4.218993e-01 -5.010518e-01 -4.862718e-01 -3.655199e-01 -3.261472e-01 -2.204816e-01 -1.153890e-01 4.996523e-14 1.153890e-01 2.204816e-01 3.261472e-01 3.655199e-01 4.862718e-01 5.010518e-01 4.218993e-01 1.705925e-01 3.015861e-01 1.338208e+00 7.173366e-01 -1.933700e-02 8.550581e-02 -4.964975e-02 -1.507746e-02 
-5.098488e-15 1.333459e-01 2.495891e-01 2.498735e-01 3.259903e-01 1.897745e-01 -7.404221e-01 -9.210509e-01 -5.194913e-01 -4.528916e-01 -2.633141e-01 -2.736359e-03 3.070170e-01 3.729089e-01 2.682999e-01 1.533429e-01 2.761479e-14 -1.533429e-01 -2.682999e-01 -3.729089e-01 -3.070170e-01 2.736359e-03 2.633141e-01 4.528916e-01 5.194913e-01 9.210509e-01 7.404221e-01 -1.897745e-01 -3.259903e-01 -2.498735e-01 -2.495891e-01 -1.333459e-01 
8.299821e-15 1.866997e-01 3.364514e-01 3.995589e-01 4.493998e-01 5.253522e-01 1.230068e-01 -3.112586e-01 -3.660590e-01 -5.622732e-01 -7.685579e-01 -4.172486e-01 1.363473e-01 4.731155e-01 5.061590e-01 3.377062e-01 -8.889014e-14 -3.377062e-01 -5.061590e-01 -4.731155e-01 -1.363473e-01 4.172486e-01 7.685579e-01 5.622732e-01 3.660590e-01 3.112586e-01 -1.230068e-01 -5.253522e-01 -4.493998e-01 -3.995589e-01 -3.364514e-01 -1.866997e-01 
1.306133e-15 1.977735e-01 3.518335e-01 4.420329e-01 4.772793e-01 5.515785e-01 4.415609e-01 3.092686e-01 8.132415e-02 6.797133e-02 -1.104428e-01 -6.671032e-01 -9.267061e-01 -9.010750e-01 -4.745807e-01 -1.998074e-01 -1.681211e-13 1.998074e-01 4.745807e-01 9.010750e-01 9.267061e-01 6.671032e-01 1.104428e-01 -6.797133e-02 -8.132415e-02 -3.092686e-01 -4.415609e-01 -5.515785e-01 -4.772793e-01 -4.420329e-01 -3.518335e-01 -1.977735e-01 
8.151843e-15 1.804679e-01 3.212716e-01 4.132537e-01 4.462496e-01 4.936045e-01 4.624910e-01 4.247967e-01 2.738214e-01 2.216729e-01 4.200892e-01 4.570358e-01 3.459983e-01 -7.018185e-02 -2.760748e-01 -3.289189e-01 -2.599461e-14 3.289189e-01 2.760748e-01 7.018185e-02 -3.459983e-01 -4.570358e-01 -4.200892e-01 -2.216729e-01 -2.738214e-01 -4.247967e-01 -4.624910e-01 -4.936045e-01 -4.462496e-01 -4.132537e-01 -3.212716e-01 -1.804679e-01 
-1.874885e-16 1.544764e-01 2.763678e-01 3.664740e-01 4.027196e-01 4.466463e-01 4.372876e-01 4.572776e-01 4.448950e-01 2.519780e-01 2.398313e-01 5.119670e-01 9.675474e-01 1.213911e+00 1.045371e+00 4.215476e-01 8.673531e-14 -4.215476e-01 -1.045371e+00 -1.213911e+00 -9.675474e-01 -5.119670e-01 -2.398313e-01 -2.519780e-01 -4.448950e-01 -4.572776e-01 -4.372876e-01 -4.466463e-01 -4.027196e-01 -3.664740e-01 -2.763678e-01 -1.544764e-01 
4.451825e-15 1.250305e-01 2.267437e-01 3.070560e-01 3.475083e-01 3.868508e-01 3.934394e-01 4.105346e-01 4.513906e-01 4.797225e-01 4.952640e-01 4.110367e-01 4.539014e-01 8.286039e-01 1.257562e+00 9.460433e-01 6.612528e-14 -9.460433e-01 -1.257562e+00 -8.286039e-01 -4.539014e-01 -4.110367e-01 -4.952640e-01 -4.797225e-01 -4.513906e-01 -4.105346e-01 -3.934394e-01 -3.868508e-01 -3.475083e-01 -3.070560e-01 -2.267437e-01 -1.250305e-01 
-1.659927e-15 1.011234e-01 1.856650e-01 2.572676e-01 2.981182e-01 3.356350e-01 3.475578e-01 3.568463e-01 3.813409e-01 3.851843e-01 4.586578e-01 5.503343e-01 5.350294e-01 4.719787e-01 6.023597e-01 6.930402e-01 5.454080e-14 -6.930402e-01 -6.023597e-01 -4.719787e-01 -5.350294e-01 -5.503343e-01 -4.586578e-01 -3.851843e-01 -3.813409e-01 -3.568463e-01 -3.475578e-01 -3.356350e-01 -2.981182e-01 -2.572676e-01 -1.856650e-01 -1.011234e-01 
2.123319e-15 8.084750e-02 1.502001e-01 2.111188e-01 2.487200e-01 2.819442e-01 2.929530e-01 3.016957e-01 3.034559e-01 3.072186e-01 3.118784e-01 3.015161e-01 2.769301e-01 2.107868e-01 1.563141e-02 1.373704e-01 4.933519e-14 -1.373704e-01 -1.563141e-02 -2.107868e-01 -2.769301e-01 -3.015161e-01 -3.118784e-01 -3.072186e-01 -3.034559e-01 -3.016957e-01 -2.929530e-01 -2.819442e-01 -2.487200e-01 -2.111188e-01 -1.502001e-01 -8.084750e-02 
-1.837093e-15 6.692012e-02 1.252888e-01 1.774553e-01 2.105587e-01 2.370618e-01 2.430111e-01 2.402124e-01 2.231347e-01 1.972872e-01 1.570269e-01 1.075105e-01 -1.256102e-02 -1.313475e-01 -3.518915e-01 -2.714419e-01 2.058420e-14 2.714419e-01 3.518915e-01 1.313475e-01 1.256102e-02 -1.075105e-01 -1.570269e-01 -1.972872e-01 -2.231347e-01 -2.402124e-01 -2.430111e-01 -2.370618e-01 -2.105587e-01 -1.774553e-01 -1.252888e-01 -6.692012e-02 
2.301380e-15 5.610926e-02 1.051869e-01 1.493247e-01 1.759506e-01 1.954819e-01 1.915547e-01 1.769267e-01 1.338145e-01 7.463811e-02 -2.509472e-02 -1.498625e-01 -3.209091e-01 -4.602756e-01 -5.721967e-01 -4.779649e-01 -9.196659e-15 4.779649e-01 5.721967e-01 4.602756e-01 3.209091e-01 1.498625e-01 2.509472e-02 -7.463811e-02 -1.338145e-01 -1.769267e-01 -1.915547e-01 -1.954819e-01 -1.759506e-01 -1.493247e-01 -1.051869e-01 -5.610926e-02 
3.594028e-16 5.079121e-02 9.543766e-02 1.351762e-01 1.587302e-01 1.733520e-01 1.641674e-01 1.395467e-01 8.101330e-02 -3.060701e-03 -1.386802e-01 -2.998243e-01 -5.001296e-01 -6.477448e-01 -7.028045e-01 -5.466955e-01 -2.425155e-14 5.466955e-01 7.028045e-01 6.477448e-01 5.001296e-01 2.998243e-01 1.386802e-01 3.060701e-03 -8.101330e-02 -1.395467e-01 -1.641674e-01 -1.733520e-01 -1.587302e-01 -1.351762e-01 -9.543766e-02 -5.079121e-02 
