# vtk DataFile Version 2.0
Comment goes here
ASCII

DATASET STRUCTURED_POINTS
FIELD FieldData 1
TIME 1 1 double
1.06000000
DIMENSIONS    32   32   1

ORIGIN    0.000   0.000   0.000
SPACING   0.03125 0.03125   1.000

POINT_DATA   1024
SCALARS uX double
LOOKUP_TABLE default

-2.363857e-14 -1.781997e-02 -5.655384e-02 -1.159755e-01 -2.262181e-01 -3.637611e-01 -5.573676e-01 -7.650964e-01 -1.000831e+00 -1.213629e+00 -1.396146e+00 -1.504185e+00 -1.513973e+00 -1.396734e+00 -1.120656e+00 -6.555363e-01 1.320825e-13 6.555363e-01 1.120656e+00 1.396734e+00 1.513973e+00 1.504185e+00 1.396146e+00 1.213629e+00 1.000831e+00 7.650964e-01 5.573676e-01 3.637611e-01 2.262181e-01 1.159755e-01 5.655384e-02 1.781997e-02 
-1.776770e-14 -1.141624e-02 -4.398702e-02 -9.666378e-02 -1.997427e-01 -3.274963e-01 -5.101817e-01 -7.031070e-01 -9.243908e-01 -1.119231e+00 -1.288567e+00 -1.383861e+00 -1.393337e+00 -1.285712e+00 -1.039078e+00 -6.112995e-01 4.637514e-14 6.112995e-01 1.039078e+00 1.285712e+00 1.393337e+00 1.383861e+00 1.288567e+00 1.119231e+00 9.243908e-01 7.031070e-01 5.101817e-01 3.274963e-01 1.997427e-01 9.666378e-02 4.398702e-02 1.141624e-02 
-1.394215e-14 1.056332e-02 -1.336680e-03 -3.304568e-02 -1.155045e-01 -2.181765e-01 -3.736491e-01 -5.343439e-01 -7.228884e-01 -8.871975e-01 -1.030519e+00 -1.118440e+00 -1.133482e+00 -1.064534e+00 -8.809980e-01 -5.221379e-01 -1.203967e-14 5.221379e-01 8.809980e-01 1.064534e+00 1.133482e+00 1.118440e+00 1.030519e+00 8.871975e-01 7.228884e-01 5.343439e-01 3.736491e-01 2.181765e-01 1.155045e-01 3.304568e-02 1.336680e-03 -1.056332e-02 
-9.078271e-15 4.098259e-02 5.702336e-02 5.267569e-02 -4.493932e-03 -7.598060e-02 -1.985523e-01 -3.166307e-01 -4.635563e-01 -5.807924e-01 -6.856609e-01 -7.392599e-01 -7.361888e-01 -6.824522e-01 -5.761346e-01 -3.362495e-01 -3.331053e-14 3.362495e-01 5.761346e-01 6.824522e-01 7.361888e-01 7.392599e-01 6.856609e-01 5.807924e-01 4.635563e-01 3.166307e-01 1.985523e-01 7.598060e-02 4.493932e-03 -5.267569e-02 -5.702336e-02 -4.098259e-02 
1.485504e-15 8.042325e-02 1.317702e-01 1.603280e-01 1.295594e-01 8.874691e-02 -6.472139e-03 -8.732827e-02 -2.019103e-01 -2.848038e-01 -3.600110e-01 -4.076215e-01 -3.869853e-01 -3.630515e-01 -3.124494e-01 -1.581027e-01 -2.244780e-14 1.581027e-01 3.124494e-01 3.630515e-01 3.869853e-01 4.076215e-01 3.600110e-01 2.848038e-01 2.019103e-01 8.732827e-02 6.472139e-03 -8.874691e-02 -1.295594e-01 -1.603280e-01 -1.317702e-01 -8.042325e-02 
1.071684e-14 1.179773e-01 2.023937e-01 2.598610e-01 2.492576e-01 2.294973e-01 1.485105e-01 8.894617e-02 -1.152118e-02 -7.633316e-02 -1.439614e-01 -1.658079e-01 -6.061498e-02 4.395068e-02 1.028261e-01 1.084067e-01 6.766127e-14 -1.084067e-01 -1.028261e-01 -4.395068e-02 6.061498e-02 1.658079e-01 1.439614e-01 7.633316e-02 1.152118e-02 -8.894617e-02 -1.485105e-01 -2.294973e-01 -2.492576e-01 -2.598610e-01 -2.023937e-01 -1.179773e-01 
3.049786e-14 1.542208e-01 2.707260e-01 3.564130e-01 3.629976e-01 3.613989e-01 2.818810e-01 2.353903e-01 1.238915e-01 6.581051e-02 -9.000751e-03 -7.668477e-02 7.291008e-02 1.296412e-01 2.178448e-01 2.151900e-01 1.378179e-13 -2.151900e-01 -2.178448e-01 -1.296412e-01 -7.291008e-02 7.668477e-02 9.000751e-03 -6.581051e-02 -1.238915e-01 -2.353903e-01 -2.818810e-01 -3.613989e-01 -3.629976e-01 -3.564130e-01 -2.707260e-01 -1.542208e-01 
4.353273e-14 1.751266e-01 3.106626e-01 4.118023e-01 4.264986e-01 4.325221e-01 3.445669e-01 2.907084e-01 1.522314e-01 3.742261e-02 -1.584126e-01 -1.445462e-01 2.725187e-01 7.107652e-01 9.361396e-01 6.406414e-01 2.748263e-13 -6.406414e-01 -9.361396e-01 -7.107652e-01 -2.725187e-01 1.445462e-01 1.584126e-01 -3.742261e-02 -1.522314e-01 -2.907084e-01 -3.445669e-01 -4.325221e-01 -4.264986e-01 -4.118023e-01 -3.106626e-01 -1.751266e-01 
6.521905e-14 1.853092e-01 3.322388e-01 4.435342e-01 4.671560e-01 4.840516e-01 3.852920e-01 3.323181e-01 1.265780e-01 5.771360e-02 -1.106512e-01 6.043779e-01 8.724103e-01 1.079522e+00 6.951964e-01 2.459370e-01 1.575968e-13 -2.459370e-01 -6.951964e-01 -1.079522e+00 -8.724103e-01 -6.043779e-01 1.106512e-01 -5.771360e-02 -1.265780e-01 -3.323181e-01 -3.852920e-01 -4.840516e-01 -4.671560e-01 -4.435342e-01 -3.322388e-01 -1.853092e-01 
7.385850e-14 1.712761e-01 3.090580e-01 4.126111e-01 4.360653e-01 4.615518e-01 3.541436e-01 3.247872e-01 1.551786e-01 -3.753528e-02 2.019638e-01 8.322697e-01 1.407930e-01 -3.000958e-01 -6.706351e-01 -4.320210e-01 -1.763113e-13 4.320210e-01 6.706351e-01 3.000958e-01 -1.407930e-01 -8.322697e-01 -2.019638e-01 3.753528e-02 -1.551786e-01 -3.247872e-01 -3.541436e-01 -4.615518e-01 -4.360653e-01 -4.126111e-01 -3.090580e-01 -1.712761e-01 
9.081213e-14 1.422322e-01 2.621372e-01 3.542384e-01 3.941823e-01 4.346153e-01 3.529410e-01 2.881345e-01 -2.950600e-02 -5.601363e-01 2.839171e-01 9.109518e-02 -1.008941e-01 2.541988e-01 4.990772e-01 5.675871e-01 -8.466528e-14 -5.675871e-01 -4.990772e-01 -2.541988e-01 1.008941e-01 -9.109518e-02 -2.839171e-01 5.601363e-01 2.950600e-02 -2.881345e-01 -3.529410e-01 -4.346153e-01 -3.941823e-01 -3.542384e-01 -2.621372e-01 -1.422322e-01 
8.838832e-14 8.195995e-02 1.599881e-01 2.215685e-01 2.685796e-01 3.236149e-01 1.925256e-01 2.427500e-01 -5.661470e-01 -2.642156e-01 8.202755e-01 4.058221e-01 9.272311e-01 1.030585e+00 8.455771e-01 4.973149e-01 3.033133e-14 -4.973149e-01 -8.455771e-01 -1.030585e+00 -9.272311e-01 -4.058221e-01 -8.202755e-01 2.642156e-01 5.661470e-01 -2.427500e-01 -1.925256e-01 -3.236149e-01 -2.685796e-01 -2.215685e-01 -1.599881e-01 -8.195995e-02 
9.359444e-14 -5.242885e-03 1.342811e-02 4.566000e-02 1.375357e-01 2.456035e-01 2.953289e-01 4.305760e-01 -7.481190e-01 9.293832e-01 1.141252e+00 7.617879e-01 7.413404e-01 2.293973e-01 9.666045e-02 -7.464869e-02 1.399093e-13 7.464869e-02 -9.666045e-02 -2.293973e-01 -7.413404e-01 -7.617879e-01 -1.141252e+00 -9.293832e-01 7.481190e-01 -4.305760e-01 -2.953289e-01 -2.456035e-01 -1.375357e-01 -4.566000e-02 -1.342811e-02 5.242885e-03 
6.539050e-14 -1.331935e-01 -2.002129e-01 -2.425223e-01 -8.015115e-02 -4.655213e-02 4.894851e-01 -1.242707e-01 -5.414387e-02 1.574986e+00 6.806516e-01 5.962785e-01 3.328245e-01 1.533595e-01 1.753287e-01 5.331774e-02 9.951121e-14 -5.331774e-02 -1.753287e-01 -1.533595e-01 -3.328245e-01 -5.962785e-01 -6.806516e-01 -1.574986e+00 5.414387e-02 1.242707e-01 -4.894851e-01 4.655213e-02 8.015115e-02 2.425223e-01 2.002129e-01 1.331935e-01 
5.123290e-14 -2.986310e-01 -5.054700e-01 -6.510927e-01 -5.496726e-01 -5.582836e-01 2.010933e-02 -6.091228e-01 1.188518e+00 1.128619e+00 3.310481e-01 4.794444e-01 3.476048e-01 2.165611e-01 1.182512e-01 1.010927e-02 5.974599e-14 -1.010927e-02 -1.182512e-01 -2.165611e-01 -3.476048e-01 -4.794444e-01 -3.310481e-01 -1.128619e+00 -1.188518e+00 6.091228e-01 -2.010933e-02 5.582836e-01 5.496726e-01 6.510927e-01 5.054700e-01 2.986310e-01 
2.055700e-14 -4.427128e-01 -7.949257e-01 -1.019332e+00 -1.096013e+00 -9.971571e-01 -8.204977e-01 1.968166e-01 1.712349e+00 4.656989e-01 5.737107e-01 5.991046e-01 5.167736e-01 3.295991e-01 2.259759e-01 7.988927e-02 -2.476325e-14 -7.988927e-02 -2.259759e-01 -3.295991e-01 -5.167736e-01 -5.991046e-01 -5.737107e-01 -4.656989e-01 -1.712349e+00 -1.968166e-01 8.204977e-01 9.971571e-01 1.096013e+00 1.019332e+00 7.949257e-01 4.427128e-01 
-1.324529e-14 -5.199297e-01 -9.504334e-01 -1.236095e+00 -1.426290e+00 -1.312151e+00 -1.353495e+00 6.538486e-01 1.527703e+00 3.148506e-01 9.040747e-01 8.362660e-01 6.881647e-01 4.332653e-01 2.534903e-01 8.766809e-02 -8.102298e-14 -8.766809e-02 -2.534903e-01 -4.332653e-01 -6.881647e-01 -8.362660e-01 -9.040747e-01 -3.148506e-01 -1.527703e+00 -6.538486e-01 1.353495e+00 1.312151e+00 1.426290e+00 1.236095e+00 9.504334e-01 5.199297e-01 
-4.761607e-14 -4.427128e-01 -7.949257e-01 -1.019332e+00 -1.096013e+00 -9.971571e-01 -8.204977e-01 1.968166e-01 1.712349e+00 4.656989e-01 5.737107e-01 5.991046e-01 5.167736e-01 3.295991e-01 2.259759e-01 7.988927e-02 -1.685870e-13 -7.988927e-02 -2.259759e-01 -3.295991e-01 -5.167736e-01 -5.991046e-01 -5.737107e-01 -4.656989e-01 -1.712349e+00 -1.968166e-01 8.204977e-01 9.971571e-01 1.096013e+00 1.019332e+00 7.949257e-01 4.427128e-01 
-7.588339e-14 -2.986310e-01 -5.054700e-01 -6.510927e-01 -5.496726e-01 -5.582836e-01 2.010933e-02 -6.091228e-01 1.188518e+00 1.128619e+00 3.310481e-01 4.794444e-01 3.476048e-01 2.165611e-01 1.182512e-01 1.010927e-02 -2.534839e-13 -1.010927e-02 -1.182512e-01 -2.165611e-01 -3.476048e-01 -4.794444e-01 -3.310481e-01 -1.128619e+00 -1.188518e+00 6.091228e-01 -2.010933e-02 5.582836e-01 5.496726e-01 6.510927e-01 5.054700e-01 2.986310e-01 
-1.020889e-13 -1.331935e-01 -2.002129e-01 -2.425223e-01 -8.015115e-02 -4.655213e-02 4.894851e-01 -1.242707e-01 -5.414387e-02 1.574986e+00 6.806516e-01 5.962785e-01 3.328245e-01 1.533595e-01 1.753287e-01 5.331774e-02 -3.092780e-13 -5.331774e-02 -1.753287e-01 -1.533595e-01 -3.328245e-01 -5.962785e-01 -6.806516e-01 -1.574986e+00 5.414387e-02 1.242707e-01 -4.894851e-01 4.655213e-02 8.015115e-02 2.425223e-01 2.002129e-01 1.331935e-01 
-1.209666e-13 -5.242885e-03 1.342811e-02 4.566000e-02 1.375357e-01 2.456035e-01 2.953289e-01 4.305760e-01 -7.481190e-01 9.293832e-01 1.141252e+00 7.617879e-01 7.413404e-01 2.293973e-01 9.666045e-02 -7.464869e-02 -3.270824e-13 7.464869e-02 -9.666045e-02 -2.293973e-01 -7.413404e-01 -7.617879e-01 -1.141252e+00 -9.293832e-01 7.481190e-01 -4.305760e-01 -2.953289e-01 -2.456035e-01 -1.375357e-01 -4.566000e-02 -1.342811e-02 5.242885e-03 
-1.147554e-13 8.195995e-02 1.599881e-01 2.215685e-01 2.685796e-01 3.236149e-01 1.925256e-01 2.427500e-01 -5.661470e-01 -2.642156e-01 8.202755e-01 4.058221e-01 9.272311e-01 1.030585e+00 8.455771e-01 4.973149e-01 1.589876e-13 -4.973149e-01 -8.455771e-01 -1.030585e+00 -9.272311e-01 -4.058221e-01 -8.202755e-01 2.642156e-01 5.661470e-01 -2.427500e-01 -1.925256e-01 -3.236149e-01 -2.685796e-01 -2.215685e-01 -1.599881e-01 -8.195995e-02 
-1.130310e-13 1.422322e-01 2.621372e-01 3.542384e-01 3.941823e-01 4.346153e-01 3.529410e-01 2.881345e-01 -2.950600e-02 -5.601363e-01 2.839171e-01 9.109518e-02 -1.008941e-01 2.541988e-01 4.990772e-01 5.675871e-01 7.440490e-13 -5.675871e-01 -4.990772e-01 -2.541988e-01 1.008941e-01 -9.109518e-02 -2.839171e-01 5.601363e-01 2.950600e-02 -2.881345e-01 -3.529410e-01 -4.346153e-01 -3.941823e-01 -3.542384e-01 -2.621372e-01 -1.422322e-01 
-9.577529e-14 1.712761e-01 3.090580e-01 4.126111e-01 4.360653e-01 4.615518e-01 3.541436e-01 3.247872e-01 1.551786e-01 -3.753528e-02 2.019638e-01 8.322697e-01 1.407930e-01 -3.000958e-01 -6.706351e-01 -4.320210e-01 9.021566e-13 4.320210e-01 6.706351e-01 3.000958e-01 -1.407930e-01 -8.322697e-01 -2.019638e-01 3.753528e-02 -1.551786e-01 -3.247872e-01 -3.541436e-01 -4.615518e-01 -4.360653e-01 -4.126111e-01 -3.090580e-01 -1.712761e-01 
-8.820668e-14 1.853092e-01 3.322388e-01 4.435342e-01 4.671560e-01 4.840516e-01 3.852920e-01 3.323181e-01 1.265780e-01 5.771360e-02 -1.106512e-01 6.043779e-01 8.724103e-01 1.079522e+00 6.951964e-01 2.459370e-01 -4.622198e-13 -2.459370e-01 -6.951964e-01 -1.079522e+00 -8.724103e-01 -6.043779e-01 1.106512e-01 -5.771360e-02 -1.265780e-01 -3.323181e-01 -3.852920e-01 -4.840516e-01 -4.671560e-01 -4.435342e-01 -3.322388e-01 -1.853092e-01 
-6.749619e-14 1.751266e-01 3.106626e-01 4.118023e-01 4.264986e-01 4.325221e-01 3.445669e-01 2.907084e-01 1.522314e-01 3.742261e-02 -1.584126e-01 -1.445462e-01 2.725187e-01 7.107652e-01 9.361396e-01 6.406414e-01 -1.233796e-12 -6.406414e-01 -9.361396e-01 -7.107652e-01 -2.725187e-01 1.445462e-01 1.584126e-01 -3.742261e-02 -1.522314e-01 -2.907084e-01 -3.445669e-01 -4.325221e-01 -4.264986e-01 -4.118023e-01 -3.106626e-01 -1.751266e-01 
-5.837410e-14 1.542208e-01 2.707260e-01 3.564130e-01 3.629976e-01 3.613989e-01 2.818810e-01 2.353903e-01 1.238915e-01 6.581051e-02 -9.000751e-03 -7.668477e-02 7.291008e-02 1.296412e-01 2.178448e-01 2.151900e-01 -7.518523e-13 -2.151900e-01 -2.178448e-01 -1.296412e-01 -7.291008e-02 7.668477e-02 9.000751e-03 -6.581051e-02 -1.238915e-01 -2.353903e-01 -2.818810e-01 -3.613989e-01 -3.629976e-01 -3.564130e-01 -2.707260e-01 -1.542208e-01 
-3.982556e-14 1.179773e-01 2.023937e-01 2.598610e-01 2.492576e-01 2.294973e-01 1.485105e-01 8.894617e-02 -1.152118e-02 -7.633316e-02 -1.439614e-01 -1.658079e-01 -6.061498e-02 4.395068e-02 1.028261e-01 1.084067e-01 -3.401607e-13 -1.084067e-01 -1.028261e-01 -4.395068e-02 6.061498e-02 1.658079e-01 1.439614e-01 7.633316e-02 1.152118e-02 -8.894617e-02 -1.485105e-01 -2.294973e-01 -2.492576e-01 -2.598610e-01 -2.023937e-01 -1.179773e-01 
-3.816574e-14 8.042325e-02 1.317702e-01 1.603280e-01 1.295594e-01 8.874691e-02 -6.472139e-03 -8.732827e-02 -2.019103e-01 -2.848038e-01 -3.600110e-01 -4.076215e-01 -3.869853e-01 -3.630515e-01 -3.124494e-01 -1.581027e-01 7.893345e-14 1.581027e-01 3.124494e-01 3.630515e-01 3.869853e-01 4.076215e-01 3.600110e-01 2.848038e-01 2.019103e-01 8.732827e-02 6.472139e-03 -8.874691e-02 -1.295594e-01 -1.603280e-01 -1.317702e-01 -8.042325e-02 
-2.767756e-14 4.098259e-02 5.702336e-02 5.267569e-02 -4.493932e-03 -7.598060e-02 -1.985523e-01 -3.166307e-01 -4.635563e-01 -5.807924e-01 -6.856609e-01 -7.392599e-01 -7.361888e-01 -6.824522e-01 -5.761346e-01 -3.362495e-01 2.464239e-13 3.362495e-01 5.761346e-01 6.824522e-01 7.361888e-01 7.392599e-01 6.856609e-01 5.807924e-01 4.635563e-01 3.166307e-01 1.985523e-01 7.598060e-02 4.493932e-03 -5.267569e-02 -5.702336e-02 -4.098259e-02 
-3.037733e-14 1.056332e-02 -1.336680e-03 -3.304568e-02 -1.155045e-01 -2.181765e-01 -3.736491e-01 -5.343439e-01 -7.228884e-01 -8.871975e-01 -1.030519e+00 -1.118440e+00 -1.133482e+00 -1.064534e+00 -8.809980e-01 -5.221379e-01 3.016902e-13 5.221379e-01 8.809980e-01 1.064534e+00 1.133482e+00 1.118440e+00 1.030519e+00 8.871975e-01 7.228884e-01 5.343439e-01 3.736491e-01 2.181765e-01 1.155045e-01 3.304568e-02 1.336680e-03 -1.056332e-02 
-2.339476e-14 -1.141624e-02 -4.398702e-02 -9.666378e-02 -1.997427e-01 -3.274963e-01 -5.101817e-01 -7.031070e-01 -9.243908e-01 -1.119231e+00 -1.288567e+00 -1.383861e+00 -1.393337e+00 -1.285712e+00 -1.039078e+00 -6.112995e-01 2.169017e-13 6.112995e-01 1.039078e+00 1.285712e+00 1.393337e+00 1.383861e+00 1.288567e+00 1.119231e+00 9.243908e-01 7.031070e-01 5.101817e-01 3.274963e-01 1.997427e-01 9.666378e-02 4.398702e-02 1.141624e-02 
