# vtk DataFile Version 2.0
Comment goes here
ASCII

DATASET STRUCTURED_POINTS
FIELD FieldData 1
TIME 1 1 double
1.30000000
DIMENSIONS    32   32   1

ORIGIN    0.000   0.000   0.000
SPACING   0.03125 0.03125   1.000

POINT_DATA   1024
SCALARS uX double
LOOKUP_TABLE default

-1.746787e-13 3.196658e-02 4.853385e-02 3.172480e-02 -2.021221e-02 -1.186422e-01 -2.501132e-01 -4.162688e-01 -5.910328e-01 -7.665198e-01 -9.124901e-01 -1.012964e+00 -1.043083e+00 -9.699770e-01 -7.833471e-01 -4.334173e-01 7.824756e-13 4.334173e-01 7.833471e-01 9.699770e-01 1.043083e+00 1.012964e+00 9.124901e-01 7.665198e-01 5.910328e-01 4.162688e-01 2.501132e-01 1.186422e-01 2.021221e-02 -3.172480e-02 -4.853385e-02 -3.196658e-02 
-1.959131e-13 3.846812e-02 6.154596e-02 5.171861e-02 7.164230e-03 -8.180290e-02 -2.038358e-01 -3.568035e-01 -5.215372e-01 -6.824309e-01 -8.221359e-01 -9.134817e-01 -9.457811e-01 -8.818150e-01 -7.120246e-01 -3.947401e-01 3.057014e-13 3.947401e-01 7.120246e-01 8.818150e-01 9.457811e-01 9.134817e-01 8.221359e-01 6.824309e-01 5.215372e-01 3.568035e-01 2.038358e-01 8.180290e-02 -7.164230e-03 -5.171861e-02 -6.154596e-02 -3.846812e-02 
-2.406543e-13 6.097421e-02 1.064555e-01 1.187712e-01 9.819545e-02 3.394699e-02 -5.841740e-02 -1.834072e-01 -3.145236e-01 -4.512607e-01 -5.647770e-01 -6.511842e-01 -6.906389e-01 -6.676618e-01 -5.703386e-01 -3.179145e-01 -3.884649e-15 3.179145e-01 5.703386e-01 6.676618e-01 6.906389e-01 6.511842e-01 5.647770e-01 4.512607e-01 3.145236e-01 1.834072e-01 5.841740e-02 -3.394699e-02 -9.819545e-02 -1.187712e-01 -1.064555e-01 -6.097421e-02 
-2.498943e-13 9.053443e-02 1.652189e-01 2.059432e-01 2.153854e-01 1.832133e-01 1.269162e-01 4.181360e-02 -5.048955e-02 -1.455029e-01 -2.325882e-01 -2.941428e-01 -3.397212e-01 -3.559867e-01 -3.301276e-01 -1.874330e-01 -1.317519e-13 1.874330e-01 3.301276e-01 3.559867e-01 3.397212e-01 2.941428e-01 2.325882e-01 1.455029e-01 5.048955e-02 -4.181360e-02 -1.269162e-01 -1.832133e-01 -2.153854e-01 -2.059432e-01 -1.652189e-01 -9.053443e-02 
-2.665394e-13 1.268467e-01 2.365021e-01 3.111413e-01 3.543514e-01 3.569718e-01 3.405728e-01 2.945034e-01 2.487551e-01 1.865192e-01 1.368307e-01 7.840966e-02 2.960267e-02 -6.359306e-02 -1.666733e-01 -9.452013e-02 -1.114182e-13 9.452013e-02 1.666733e-01 6.359306e-02 -2.960267e-02 -7.840966e-02 -1.368307e-01 -1.865192e-01 -2.487551e-01 -2.945034e-01 -3.405728e-01 -3.569718e-01 -3.543514e-01 -3.111413e-01 -2.365021e-01 -1.268467e-01 
-2.588060e-13 1.577686e-01 2.973840e-01 3.991741e-01 4.706030e-01 4.992432e-01 5.152365e-01 5.005555e-01 4.891334e-01 4.629664e-01 4.232658e-01 4.000454e-01 3.589260e-01 2.844314e-01 2.014300e-01 1.326197e-01 3.339973e-13 -1.326197e-01 -2.014300e-01 -2.844314e-01 -3.589260e-01 -4.000454e-01 -4.232658e-01 -4.629664e-01 -4.891334e-01 -5.005555e-01 -5.152365e-01 -4.992432e-01 -4.706030e-01 -3.991741e-01 -2.973840e-01 -1.577686e-01 
-2.246796e-13 1.835278e-01 3.463107e-01 4.720724e-01 5.640698e-01 6.170224e-01 6.583302e-01 6.720998e-01 6.993351e-01 7.030795e-01 7.153099e-01 7.277755e-01 7.477450e-01 5.286446e-01 2.735962e-01 2.072092e-01 7.776925e-13 -2.072092e-01 -2.735962e-01 -5.286446e-01 -7.477450e-01 -7.277755e-01 -7.153099e-01 -7.030795e-01 -6.993351e-01 -6.720998e-01 -6.583302e-01 -6.170224e-01 -5.640698e-01 -4.720724e-01 -3.463107e-01 -1.835278e-01 
-1.352716e-13 1.918904e-01 3.621669e-01 4.942876e-01 5.956012e-01 6.548996e-01 7.173094e-01 7.407146e-01 8.049422e-01 8.317579e-01 8.060158e-01 9.205670e-01 8.799695e-01 1.017850e+00 1.338291e+00 9.020211e-01 2.312490e-12 -9.020211e-01 -1.338291e+00 -1.017850e+00 -8.799695e-01 -9.205670e-01 -8.060158e-01 -8.317579e-01 -8.049422e-01 -7.407146e-01 -7.173094e-01 -6.548996e-01 -5.956012e-01 -4.942876e-01 -3.621669e-01 -1.918904e-01 
2.255121e-14 1.860074e-01 3.477666e-01 4.787233e-01 5.726597e-01 6.403726e-01 7.045239e-01 7.467369e-01 8.341710e-01 8.793416e-01 8.829531e-01 1.326572e+00 1.477439e+00 1.890713e+00 1.704674e+00 6.763476e-01 2.094130e-12 -6.763476e-01 -1.704674e+00 -1.890713e+00 -1.477439e+00 -1.326572e+00 -8.829531e-01 -8.793416e-01 -8.341710e-01 -7.467369e-01 -7.045239e-01 -6.403726e-01 -5.726597e-01 -4.787233e-01 -3.477666e-01 -1.860074e-01 
2.550552e-13 1.553729e-01 2.875249e-01 3.957814e-01 4.688175e-01 5.211020e-01 5.921397e-01 6.189888e-01 8.222353e-01 7.951777e-01 9.372134e-01 9.881165e-01 8.032267e-01 3.183648e-01 -5.082090e-01 -5.194206e-01 -1.190903e-12 5.194206e-01 5.082090e-01 -3.183648e-01 -8.032267e-01 -9.881165e-01 -9.372134e-01 -7.951777e-01 -8.222353e-01 -6.189888e-01 -5.921397e-01 -5.211020e-01 -4.688175e-01 -3.957814e-01 -2.875249e-01 -1.553729e-01 
5.144660e-13 1.060258e-01 1.924488e-01 2.735309e-01 3.128410e-01 3.633544e-01 4.017053e-01 4.420525e-01 5.641152e-01 5.951219e-02 2.545183e-01 -6.823753e-02 -4.764073e-01 -6.170463e-01 -3.055261e-01 2.167931e-01 -1.309750e-12 -2.167931e-01 3.055261e-01 6.170463e-01 4.764073e-01 6.823753e-02 -2.545183e-01 -5.951219e-02 -5.641152e-01 -4.420525e-01 -4.017053e-01 -3.633544e-01 -3.128410e-01 -2.735309e-01 -1.924488e-01 -1.060258e-01 
7.923225e-13 2.999165e-02 4.889248e-02 8.668811e-02 7.461448e-02 1.034214e-01 3.726772e-02 2.158910e-02 -1.088764e-01 -6.845695e-01 -2.812940e-01 -3.426253e-01 -3.273777e-01 1.177760e-01 3.487698e-01 3.614040e-01 -5.864078e-13 -3.614040e-01 -3.487698e-01 -1.177760e-01 3.273777e-01 3.426253e-01 2.812940e-01 6.845695e-01 1.088764e-01 -2.158910e-02 -3.726772e-02 -1.034214e-01 -7.461448e-02 -8.668811e-02 -4.889248e-02 -2.999165e-02 
9.655213e-13 -6.780555e-02 -1.269384e-01 -1.377331e-01 -1.753782e-01 -1.163673e-01 -2.328534e-01 -8.008455e-02 -7.139620e-01 -8.377205e-01 9.620302e-02 -2.594757e-01 -2.687516e-01 -2.388033e-01 -2.469043e-01 -2.225175e-01 1.686417e-13 2.225175e-01 2.469043e-01 2.388033e-01 2.687516e-01 2.594757e-01 -9.620302e-02 8.377205e-01 7.139620e-01 8.008455e-02 2.328534e-01 1.163673e-01 1.753782e-01 1.377331e-01 1.269384e-01 6.780555e-02 
1.077083e-12 -1.901204e-01 -3.503436e-01 -4.290481e-01 -4.986800e-01 -4.189455e-01 -5.666648e-01 -2.686271e-01 -1.143362e+00 -3.370765e-01 2.893694e-01 -5.179468e-01 -2.229848e-01 -3.261481e-01 -1.860989e-01 -1.749472e-01 3.707775e-13 1.749472e-01 1.860989e-01 3.261481e-01 2.229848e-01 5.179468e-01 -2.893694e-01 3.370765e-01 1.143362e+00 2.686271e-01 5.666648e-01 4.189455e-01 4.986800e-01 4.290481e-01 3.503436e-01 1.901204e-01 
9.742207e-13 -3.413501e-01 -6.263884e-01 -8.414382e-01 -9.503238e-01 -1.018097e+00 -1.027664e+00 -1.052478e+00 -9.381491e-01 1.459908e-01 -5.359610e-01 -7.317012e-01 -2.574325e-01 -3.242857e-01 -2.342848e-01 -1.987692e-01 2.784778e-13 1.987692e-01 2.342848e-01 3.242857e-01 2.574325e-01 7.317012e-01 5.359610e-01 -1.459908e-01 9.381491e-01 1.052478e+00 1.027664e+00 1.018097e+00 9.503238e-01 8.414382e-01 6.263884e-01 3.413501e-01 
7.428668e-13 -4.739057e-01 -8.723895e-01 -1.204545e+00 -1.333506e+00 -1.461131e+00 -1.218369e+00 -1.298231e+00 -2.920457e-01 -2.403224e-01 -1.119846e+00 -2.405324e-01 -2.062575e-01 -1.744721e-01 -1.520309e-01 -1.195040e-01 1.841100e-13 1.195040e-01 1.520309e-01 1.744721e-01 2.062575e-01 2.405324e-01 1.119846e+00 2.403224e-01 2.920457e-01 1.298231e+00 1.218369e+00 1.461131e+00 1.333506e+00 1.204545e+00 8.723895e-01 4.739057e-01 
2.151461e-13 -5.404190e-01 -1.000848e+00 -1.381861e+00 -1.532618e+00 -1.635766e+00 -1.322281e+00 -1.262577e+00 -1.684509e-01 -6.044043e-01 -1.057664e+00 1.686465e-01 -8.002853e-02 -4.595790e-02 -1.257386e-01 -9.983974e-02 -7.389149e-14 9.983974e-02 1.257386e-01 4.595790e-02 8.002853e-02 -1.686465e-01 1.057664e+00 6.044043e-01 1.684509e-01 1.262577e+00 1.322281e+00 1.635766e+00 1.532618e+00 1.381861e+00 1.000848e+00 5.404190e-01 
-4.687726e-13 -4.739057e-01 -8.723895e-01 -1.204545e+00 -1.333506e+00 -1.461131e+00 -1.218369e+00 -1.298231e+00 -2.920457e-01 -2.403224e-01 -1.119846e+00 -2.405324e-01 -2.062575e-01 -1.744721e-01 -1.520309e-01 -1.195040e-01 -4.982715e-13 1.195040e-01 1.520309e-01 1.744721e-01 2.062575e-01 2.405324e-01 1.119846e+00 2.403224e-01 2.920457e-01 1.298231e+00 1.218369e+00 1.461131e+00 1.333506e+00 1.204545e+00 8.723895e-01 4.739057e-01 
-8.353979e-13 -3.413501e-01 -6.263884e-01 -8.414382e-01 -9.503238e-01 -1.018097e+00 -1.027664e+00 -1.052478e+00 -9.381491e-01 1.459908e-01 -5.359610e-01 -7.317012e-01 -2.574325e-01 -3.242857e-01 -2.342848e-01 -1.987692e-01 -7.195019e-13 1.987692e-01 2.342848e-01 3.242857e-01 2.574325e-01 7.317012e-01 5.359610e-01 -1.459908e-01 9.381491e-01 1.052478e+00 1.027664e+00 1.018097e+00 9.503238e-01 8.414382e-01 6.263884e-01 3.413501e-01 
-1.137106e-12 -1.901204e-01 -3.503436e-01 -4.290481e-01 -4.986800e-01 -4.189455e-01 -5.666648e-01 -2.686271e-01 -1.143362e+00 -3.370765e-01 2.893694e-01 -5.179468e-01 -2.229848e-01 -3.261481e-01 -1.860989e-01 -1.749472e-01 -6.975381e-13 1.749472e-01 1.860989e-01 3.261481e-01 2.229848e-01 5.179468e-01 -2.893694e-01 3.370765e-01 1.143362e+00 2.686271e-01 5.666648e-01 4.189455e-01 4.986800e-01 4.290481e-01 3.503436e-01 1.901204e-01 
-1.117135e-12 -6.780555e-02 -1.269384e-01 -1.377331e-01 -1.753782e-01 -1.163673e-01 -2.328534e-01 -8.008455e-02 -7.139620e-01 -8.377205e-01 9.620302e-02 -2.594757e-01 -2.687516e-01 -2.388033e-01 -2.469043e-01 -2.225175e-01 8.319819e-14 2.225175e-01 2.469043e-01 2.388033e-01 2.687516e-01 2.594757e-01 -9.620302e-02 8.377205e-01 7.139620e-01 8.008455e-02 2.328534e-01 1.163673e-01 1.753782e-01 1.377331e-01 1.269384e-01 6.780555e-02 
-1.043621e-12 2.999165e-02 4.889248e-02 8.668811e-02 7.461448e-02 1.034214e-01 3.726772e-02 2.158910e-02 -1.088764e-01 -6.845695e-01 -2.812940e-01 -3.426253e-01 -3.273777e-01 1.177760e-01 3.487698e-01 3.614040e-01 3.991444e-12 -3.614040e-01 -3.487698e-01 -1.177760e-01 3.273777e-01 3.426253e-01 2.812940e-01 6.845695e-01 1.088764e-01 -2.158910e-02 -3.726772e-02 -1.034214e-01 -7.461448e-02 -8.668811e-02 -4.889248e-02 -2.999165e-02 
-7.840758e-13 1.060258e-01 1.924488e-01 2.735309e-01 3.128410e-01 3.633544e-01 4.017053e-01 4.420525e-01 5.641152e-01 5.951219e-02 2.545183e-01 -6.823753e-02 -4.764073e-01 -6.170463e-01 -3.055261e-01 2.167931e-01 4.487768e-12 -2.167931e-01 3.055261e-01 6.170463e-01 4.764073e-01 6.823753e-02 -2.545183e-01 -5.951219e-02 -5.641152e-01 -4.420525e-01 -4.017053e-01 -3.633544e-01 -3.128410e-01 -2.735309e-01 -1.924488e-01 -1.060258e-01 
-5.350247e-13 1.553729e-01 2.875249e-01 3.957814e-01 4.688175e-01 5.211020e-01 5.921397e-01 6.189888e-01 8.222353e-01 7.951777e-01 9.372134e-01 9.881165e-01 8.032267e-01 3.183648e-01 -5.082090e-01 -5.194206e-01 5.128114e-13 5.194206e-01 5.082090e-01 -3.183648e-01 -8.032267e-01 -9.881165e-01 -9.372134e-01 -7.951777e-01 -8.222353e-01 -6.189888e-01 -5.921397e-01 -5.211020e-01 -4.688175e-01 -3.957814e-01 -2.875249e-01 -1.553729e-01 
-2.861169e-13 1.860074e-01 3.477666e-01 4.787233e-01 5.726597e-01 6.403726e-01 7.045239e-01 7.467369e-01 8.341710e-01 8.793416e-01 8.829531e-01 1.326572e+00 1.477439e+00 1.890713e+00 1.704674e+00 6.763476e-01 -6.143005e-12 -6.763476e-01 -1.704674e+00 -1.890713e+00 -1.477439e+00 -1.326572e+00 -8.829531e-01 -8.793416e-01 -8.341710e-01 -7.467369e-01 -7.045239e-01 -6.403726e-01 -5.726597e-01 -4.787233e-01 -3.477666e-01 -1.860074e-01 
-9.762878e-14 1.918904e-01 3.621669e-01 4.942876e-01 5.956012e-01 6.548996e-01 7.173094e-01 7.407146e-01 8.049422e-01 8.317579e-01 8.060158e-01 9.205670e-01 8.799695e-01 1.017850e+00 1.338291e+00 9.020211e-01 -6.339836e-12 -9.020211e-01 -1.338291e+00 -1.017850e+00 -8.799695e-01 -9.205670e-01 -8.060158e-01 -8.317579e-01 -8.049422e-01 -7.407146e-01 -7.173094e-01 -6.548996e-01 -5.956012e-01 -4.942876e-01 -3.621669e-01 -1.918904e-01 
-8.494365e-15 1.835278e-01 3.463107e-01 4.720724e-01 5.640698e-01 6.170224e-01 6.583302e-01 6.720998e-01 6.993351e-01 7.030795e-01 7.153099e-01 7.277755e-01 7.477450e-01 5.286446e-01 2.735962e-01 2.072092e-01 -2.958197e-12 -2.072092e-01 -2.735962e-01 -5.286446e-01 -7.477450e-01 -7.277755e-01 -7.153099e-01 -7.030795e-01 -6.993351e-01 -6.720998e-01 -6.583302e-01 -6.170224e-01 -5.640698e-01 -4.720724e-01 -3.463107e-01 -1.835278e-01 
4.647668e-14 1.577686e-01 2.973840e-01 3.991741e-01 4.706030e-01 4.992432e-01 5.152365e-01 5.005555e-01 4.891334e-01 4.629664e-01 4.232658e-01 4.000454e-01 3.589260e-01 2.844314e-01 2.014300e-01 1.326197e-01 -1.679360e-12 -1.326197e-01 -2.014300e-01 -2.844314e-01 -3.589260e-01 -4.000454e-01 -4.232658e-01 -4.629664e-01 -4.891334e-01 -5.005555e-01 -5.152365e-01 -4.992432e-01 -4.706030e-01 -3.991741e-01 -2.973840e-01 -1.577686e-01 
9.288916e-15 1.268467e-01 2.365021e-01 3.111413e-01 3.543514e-01 3.569718e-01 3.405728e-01 2.945034e-01 2.487551e-01 1.865192e-01 1.368307e-01 7.840966e-02 2.960267e-02 -6.359306e-02 -1.666733e-01 -9.452013e-02 3.371364e-14 9.452013e-02 1.666733e-01 6.359306e-02 -2.960267e-02 -7.840966e-02 -1.368307e-01 -1.865192e-01 -2.487551e-01 -2.945034e-01 -3.405728e-01 -3.569718e-01 -3.543514e-01 -3.111413e-01 -2.365021e-01 -1.268467e-01 
-2.417805e-15 9.053443e-02 1.652189e-01 2.059432e-01 2.153854e-01 1.832133e-01 1.269162e-01 4.181360e-02 -5.048955e-02 -1.455029e-01 -2.325882e-01 -2.941428e-01 -3.397212e-01 -3.559867e-01 -3.301276e-01 -1.874330e-01 6.939791e-13 1.874330e-01 3.301276e-01 3.559867e-01 3.397212e-01 2.941428e-01 2.325882e-01 1.455029e-01 5.048955e-02 -4.181360e-02 -1.269162e-01 -1.832133e-01 -2.153854e-01 -2.059432e-01 -1.652189e-01 -9.053443e-02 
-7.800960e-14 6.097421e-02 1.064555e-01 1.187712e-01 9.819545e-02 3.394699e-02 -5.841740e-02 -1.834072e-01 -3.145236e-01 -4.512607e-01 -5.647770e-01 -6.511842e-01 -6.906389e-01 -6.676618e-01 -5.703386e-01 -3.179145e-01 1.298963e-12 3.179145e-01 5.703386e-01 6.676618e-01 6.906389e-01 6.511842e-01 5.647770e-01 4.512607e-01 3.145236e-01 1.834072e-01 5.841740e-02 -3.394699e-02 -9.819545e-02 -1.187712e-01 -1.064555e-01 -6.097421e-02 
-1.034107e-13 3.846812e-02 6.154596e-02 5.171861e-02 7.164230e-03 -8.180290e-02 -2.038358e-01 -3.568035e-01 -5.215372e-01 -6.824309e-01 -8.221359e-01 -9.134817e-01 -9.457811e-01 -8.818150e-01 -7.120246e-01 -3.947401e-01 1.104695e-12 3.947401e-01 7.120246e-01 8.818150e-01 9.457811e-01 9.134817e-01 8.221359e-01 6.824309e-01 5.215372e-01 3.568035e-01 2.038358e-01 8.180290e-02 -7.164230e-03 -5.171861e-02 -6.154596e-02 -3.846812e-02 
