# vtk DataFile Version 2.0
Comment goes here
ASCII

DATASET STRUCTURED_POINTS
FIELD FieldData 1
TIME 1 1 double
0.96000000
DIMENSIONS    32   32   1

ORIGIN    0.000   0.000   0.000
SPACING   0.03125 0.03125   1.000

POINT_DATA   1024
SCALARS uX double
LOOKUP_TABLE default

3.226750e-16 1.820293e-02 2.289924e-02 -1.666062e-03 -5.927027e-02 -1.622255e-01 -3.030270e-01 -4.820659e-01 -6.803145e-01 -8.782531e-01 -1.059092e+00 -1.182728e+00 -1.241780e+00 -1.166140e+00 -9.509528e-01 -5.373052e-01 2.651101e-14 5.373052e-01 9.509528e-01 1.166140e+00 1.241780e+00 1.182728e+00 1.059092e+00 8.782531e-01 6.803145e-01 4.820659e-01 3.030270e-01 1.622255e-01 5.927027e-02 1.666062e-03 -2.289924e-02 -1.820293e-02 
-5.377463e-15 2.426500e-02 3.513122e-02 1.703304e-02 -3.246657e-02 -1.258795e-01 -2.538192e-01 -4.201407e-01 -6.034353e-01 -7.917110e-01 -9.630919e-01 -1.087151e+00 -1.150663e+00 -1.087162e+00 -8.945567e-01 -4.971753e-01 3.750779e-14 4.971753e-01 8.945567e-01 1.087162e+00 1.150663e+00 1.087151e+00 9.630919e-01 7.917110e-01 6.034353e-01 4.201407e-01 2.538192e-01 1.258795e-01 3.246657e-02 -1.703304e-02 -3.513122e-02 -2.426500e-02 
-6.552312e-16 4.426749e-02 7.478985e-02 7.668770e-02 5.004465e-02 -1.551577e-02 -1.081552e-01 -2.322730e-01 -3.679167e-01 -5.041286e-01 -6.267576e-01 -7.053823e-01 -7.474181e-01 -6.949880e-01 -5.732166e-01 -3.191756e-01 1.933417e-14 3.191756e-01 5.732166e-01 6.949880e-01 7.474181e-01 7.053823e-01 6.267576e-01 5.041286e-01 3.679167e-01 2.322730e-01 1.081552e-01 1.551577e-02 -5.004465e-02 -7.668770e-02 -7.478985e-02 -4.426749e-02 
-4.905519e-15 7.272309e-02 1.304738e-01 1.587580e-01 1.611734e-01 1.296941e-01 8.193387e-02 8.711006e-03 -6.605011e-02 -1.481379e-01 -2.205723e-01 -2.840045e-01 -3.397985e-01 -3.437426e-01 -3.223351e-01 -1.642844e-01 -5.148817e-15 1.642844e-01 3.223351e-01 3.437426e-01 3.397985e-01 2.840045e-01 2.205723e-01 1.481379e-01 6.605011e-02 -8.711006e-03 -8.193387e-02 -1.296941e-01 -1.611734e-01 -1.587580e-01 -1.304738e-01 -7.272309e-02 
-2.256794e-15 1.092104e-01 2.007258e-01 2.589659e-01 2.909322e-01 2.903546e-01 2.828486e-01 2.548481e-01 2.359144e-01 2.110508e-01 1.928847e-01 1.852351e-01 1.740352e-01 2.256660e-01 1.828597e-01 9.569253e-02 -4.530523e-14 -9.569253e-02 -1.828597e-01 -2.256660e-01 -1.740352e-01 -1.852351e-01 -1.928847e-01 -2.110508e-01 -2.359144e-01 -2.548481e-01 -2.828486e-01 -2.903546e-01 -2.909322e-01 -2.589659e-01 -2.007258e-01 -1.092104e-01 
-5.932441e-16 1.454575e-01 2.693281e-01 3.551572e-01 4.110020e-01 4.346864e-01 4.593263e-01 4.705854e-01 5.079141e-01 5.384551e-01 5.807392e-01 5.674536e-01 5.390021e-01 5.203167e-01 3.956011e-01 3.144436e-01 -2.521814e-14 -3.144436e-01 -3.956011e-01 -5.203167e-01 -5.390021e-01 -5.674536e-01 -5.807392e-01 -5.384551e-01 -5.079141e-01 -4.705854e-01 -4.593263e-01 -4.346864e-01 -4.110020e-01 -3.551572e-01 -2.693281e-01 -1.454575e-01 
6.694148e-15 1.801396e-01 3.345934e-01 4.446169e-01 5.189304e-01 5.542427e-01 5.948629e-01 6.142455e-01 6.774944e-01 7.246283e-01 7.901133e-01 8.843375e-01 1.148668e+00 1.710859e+00 1.798505e+00 1.121600e+00 2.098662e-14 -1.121600e+00 -1.798505e+00 -1.710859e+00 -1.148668e+00 -8.843375e-01 -7.901133e-01 -7.246283e-01 -6.774944e-01 -6.142455e-01 -5.948629e-01 -5.542427e-01 -5.189304e-01 -4.446169e-01 -3.345934e-01 -1.801396e-01 
1.566359e-14 2.013088e-01 3.729908e-01 4.967203e-01 5.772865e-01 6.172215e-01 6.628921e-01 6.964202e-01 8.054949e-01 9.566660e-01 1.178157e+00 1.700792e+00 2.300141e+00 2.420672e+00 1.359409e+00 4.936615e-01 8.414099e-14 -4.936615e-01 -1.359409e+00 -2.420672e+00 -2.300141e+00 -1.700792e+00 -1.178157e+00 -9.566660e-01 -8.054949e-01 -6.964202e-01 -6.628921e-01 -6.172215e-01 -5.772865e-01 -4.967203e-01 -3.729908e-01 -2.013088e-01 
2.614551e-14 2.099079e-01 3.883255e-01 5.191669e-01 6.023708e-01 6.425673e-01 6.886950e-01 6.974546e-01 8.175753e-01 8.679390e-01 1.120619e+00 1.360687e+00 7.977497e-01 -5.597600e-01 -1.565669e+00 -9.563235e-01 1.084559e-13 9.563235e-01 1.565669e+00 5.597600e-01 -7.977497e-01 -1.360687e+00 -1.120619e+00 -8.679390e-01 -8.175753e-01 -6.974546e-01 -6.886950e-01 -6.425673e-01 -6.023708e-01 -5.191669e-01 -3.883255e-01 -2.099079e-01 
3.081674e-14 1.916195e-01 3.525458e-01 4.709864e-01 5.349723e-01 5.560822e-01 5.593145e-01 4.994265e-01 6.045014e-01 4.779241e-01 3.190008e-01 4.275086e-03 -7.478458e-01 -1.022910e+00 -2.352673e-01 1.777457e-01 4.319247e-14 -1.777457e-01 2.352673e-01 1.022910e+00 7.478458e-01 -4.275086e-03 -3.190008e-01 -4.779241e-01 -6.045014e-01 -4.994265e-01 -5.593145e-01 -5.560822e-01 -5.349723e-01 -4.709864e-01 -3.525458e-01 -1.916195e-01 
3.055242e-14 1.507437e-01 2.777675e-01 3.837756e-01 4.349181e-01 4.767088e-01 4.764002e-01 4.659620e-01 6.287101e-01 -1.677841e-01 -2.526475e-01 -2.310089e-01 -3.144254e-01 3.030601e-01 8.425929e-01 5.567044e-01 -6.603285e-14 -5.567044e-01 -8.425929e-01 -3.030601e-01 3.144254e-01 2.310089e-01 2.526475e-01 1.677841e-01 -6.287101e-01 -4.659620e-01 -4.764002e-01 -4.767088e-01 -4.349181e-01 -3.837756e-01 -2.777675e-01 -1.507437e-01 
1.130312e-14 7.501039e-02 1.415348e-01 2.153251e-01 2.407842e-01 2.829510e-01 1.967197e-01 1.709242e-01 -9.352546e-02 -8.150368e-01 1.106652e-02 -1.604074e-01 -3.177967e-01 -5.415944e-02 -1.980894e-02 -7.630554e-02 4.829440e-14 7.630554e-02 1.980894e-02 5.415944e-02 3.177967e-01 1.604074e-01 -1.106652e-02 8.150368e-01 9.352546e-02 -1.709242e-01 -1.967197e-01 -2.829510e-01 -2.407842e-01 -2.153251e-01 -1.415348e-01 -7.501039e-02 
-3.666607e-15 -3.408963e-02 -5.484293e-02 -2.652374e-02 -3.211935e-02 3.570388e-02 -1.662711e-01 -3.586842e-02 -9.932974e-01 -4.175531e-01 2.220198e-01 -6.458620e-01 -3.079912e-01 -2.507394e-01 -9.833110e-02 -1.240727e-01 6.022232e-14 1.240727e-01 9.833110e-02 2.507394e-01 3.079912e-01 6.458620e-01 -2.220198e-01 4.175531e-01 9.932974e-01 3.586842e-02 1.662711e-01 -3.570388e-02 3.211935e-02 2.652374e-02 5.484293e-02 3.408963e-02 
-3.474695e-14 -1.743515e-01 -3.048941e-01 -3.422088e-01 -3.481567e-01 -2.417205e-01 -3.558276e-01 -1.660737e-01 -1.054132e+00 1.288910e-02 -2.733450e-01 -7.669908e-01 -1.644704e-01 -3.676638e-01 -1.925773e-01 -1.804077e-01 3.192734e-14 1.804077e-01 1.925773e-01 3.676638e-01 1.644704e-01 7.669908e-01 2.733450e-01 -1.288910e-02 1.054132e+00 1.660737e-01 3.558276e-01 2.417205e-01 3.481567e-01 3.422088e-01 3.048941e-01 1.743515e-01 
-4.465180e-14 -3.521226e-01 -6.340962e-01 -8.177470e-01 -8.788402e-01 -8.918133e-01 -8.183260e-01 -8.569123e-01 -6.410844e-01 -2.901524e-02 -5.551017e-01 -3.621318e-01 -1.242324e-01 -1.825057e-01 -1.022315e-01 -9.531326e-02 5.690680e-15 9.531326e-02 1.022315e-01 1.825057e-01 1.242324e-01 3.621318e-01 5.551017e-01 2.901524e-02 6.410844e-01 8.569123e-01 8.183260e-01 8.918133e-01 8.788402e-01 8.177470e-01 6.340962e-01 3.521226e-01 
-4.387239e-14 -5.360328e-01 -9.971105e-01 -1.371771e+00 -1.544595e+00 -1.653035e+00 -1.350540e+00 -1.259853e+00 -1.007680e-01 -2.310486e-01 -6.319548e-01 2.603320e-02 -1.185683e-01 -6.535006e-02 -9.046456e-02 -6.767788e-02 4.204700e-16 6.767788e-02 9.046456e-02 6.535006e-02 1.185683e-01 -2.603320e-02 6.319548e-01 2.310486e-01 1.007680e-01 1.259853e+00 1.350540e+00 1.653035e+00 1.544595e+00 1.371771e+00 9.971105e-01 5.360328e-01 
-3.231785e-14 -6.343166e-01 -1.197425e+00 -1.676219e+00 -1.913203e+00 -2.022271e+00 -1.597082e+00 -1.332847e+00 -3.447674e-02 -4.920208e-01 -7.231678e-01 2.109791e-01 -1.099094e-02 6.295581e-02 -1.806594e-02 -2.091866e-02 -2.918712e-14 2.091866e-02 1.806594e-02 -6.295581e-02 1.099094e-02 -2.109791e-01 7.231678e-01 4.920208e-01 3.447674e-02 1.332847e+00 1.597082e+00 2.022271e+00 1.913203e+00 1.676219e+00 1.197425e+00 6.343166e-01 
3.206985e-14 -5.360328e-01 -9.971105e-01 -1.371771e+00 -1.544595e+00 -1.653035e+00 -1.350540e+00 -1.259853e+00 -1.007680e-01 -2.310486e-01 -6.319548e-01 2.603320e-02 -1.185683e-01 -6.535006e-02 -9.046456e-02 -6.767788e-02 -2.317349e-14 6.767788e-02 9.046456e-02 6.535006e-02 1.185683e-01 -2.603320e-02 6.319548e-01 2.310486e-01 1.007680e-01 1.259853e+00 1.350540e+00 1.653035e+00 1.544595e+00 1.371771e+00 9.971105e-01 5.360328e-01 
1.768722e-14 -3.521226e-01 -6.340962e-01 -8.177470e-01 -8.788402e-01 -8.918133e-01 -8.183260e-01 -8.569123e-01 -6.410844e-01 -2.901524e-02 -5.551017e-01 -3.621318e-01 -1.242324e-01 -1.825057e-01 -1.022315e-01 -9.531326e-02 -5.988151e-14 9.531326e-02 1.022315e-01 1.825057e-01 1.242324e-01 3.621318e-01 5.551017e-01 2.901524e-02 6.410844e-01 8.569123e-01 8.183260e-01 8.918133e-01 8.788402e-01 8.177470e-01 6.340962e-01 3.521226e-01 
3.812164e-14 -1.743515e-01 -3.048941e-01 -3.422088e-01 -3.481567e-01 -2.417205e-01 -3.558276e-01 -1.660737e-01 -1.054132e+00 1.288910e-02 -2.733450e-01 -7.669908e-01 -1.644704e-01 -3.676638e-01 -1.925773e-01 -1.804077e-01 -5.509043e-14 1.804077e-01 1.925773e-01 3.676638e-01 1.644704e-01 7.669908e-01 2.733450e-01 -1.288910e-02 1.054132e+00 1.660737e-01 3.558276e-01 2.417205e-01 3.481567e-01 3.422088e-01 3.048941e-01 1.743515e-01 
2.083281e-16 -3.408963e-02 -5.484293e-02 -2.652374e-02 -3.211935e-02 3.570388e-02 -1.662711e-01 -3.586842e-02 -9.932974e-01 -4.175531e-01 2.220198e-01 -6.458620e-01 -3.079912e-01 -2.507394e-01 -9.833110e-02 -1.240727e-01 -1.140494e-13 1.240727e-01 9.833110e-02 2.507394e-01 3.079912e-01 6.458620e-01 -2.220198e-01 4.175531e-01 9.932974e-01 3.586842e-02 1.662711e-01 -3.570388e-02 3.211935e-02 2.652374e-02 5.484293e-02 3.408963e-02 
-5.083211e-15 7.501039e-02 1.415348e-01 2.153251e-01 2.407842e-01 2.829510e-01 1.967197e-01 1.709242e-01 -9.352546e-02 -8.150368e-01 1.106652e-02 -1.604074e-01 -3.177967e-01 -5.415944e-02 -1.980894e-02 -7.630554e-02 -6.978626e-14 7.630554e-02 1.980894e-02 5.415944e-02 3.177967e-01 1.604074e-01 -1.106652e-02 8.150368e-01 9.352546e-02 -1.709242e-01 -1.967197e-01 -2.829510e-01 -2.407842e-01 -2.153251e-01 -1.415348e-01 -7.501039e-02 
-2.434811e-14 1.507437e-01 2.777675e-01 3.837756e-01 4.349181e-01 4.767088e-01 4.764002e-01 4.659620e-01 6.287101e-01 -1.677841e-01 -2.526475e-01 -2.310089e-01 -3.144254e-01 3.030601e-01 8.425929e-01 5.567044e-01 1.717148e-13 -5.567044e-01 -8.425929e-01 -3.030601e-01 3.144254e-01 2.310089e-01 2.526475e-01 1.677841e-01 -6.287101e-01 -4.659620e-01 -4.764002e-01 -4.767088e-01 -4.349181e-01 -3.837756e-01 -2.777675e-01 -1.507437e-01 
-2.843730e-14 1.916195e-01 3.525458e-01 4.709864e-01 5.349723e-01 5.560822e-01 5.593145e-01 4.994265e-01 6.045014e-01 4.779241e-01 3.190008e-01 4.275086e-03 -7.478458e-01 -1.022910e+00 -2.352673e-01 1.777457e-01 6.250876e-14 -1.777457e-01 2.352673e-01 1.022910e+00 7.478458e-01 -4.275086e-03 -3.190008e-01 -4.779241e-01 -6.045014e-01 -4.994265e-01 -5.593145e-01 -5.560822e-01 -5.349723e-01 -4.709864e-01 -3.525458e-01 -1.916195e-01 
-1.713447e-14 2.099079e-01 3.883255e-01 5.191669e-01 6.023708e-01 6.425673e-01 6.886950e-01 6.974546e-01 8.175753e-01 8.679390e-01 1.120619e+00 1.360687e+00 7.977497e-01 -5.597600e-01 -1.565669e+00 -9.563235e-01 1.196740e-13 9.563235e-01 1.565669e+00 5.597600e-01 -7.977497e-01 -1.360687e+00 -1.120619e+00 -8.679390e-01 -8.175753e-01 -6.974546e-01 -6.886950e-01 -6.425673e-01 -6.023708e-01 -5.191669e-01 -3.883255e-01 -2.099079e-01 
-1.790081e-14 2.013088e-01 3.729908e-01 4.967203e-01 5.772865e-01 6.172215e-01 6.628921e-01 6.964202e-01 8.054949e-01 9.566660e-01 1.178157e+00 1.700792e+00 2.300141e+00 2.420672e+00 1.359409e+00 4.936615e-01 -2.142510e-13 -4.936615e-01 -1.359409e+00 -2.420672e+00 -2.300141e+00 -1.700792e+00 -1.178157e+00 -9.566660e-01 -8.054949e-01 -6.964202e-01 -6.628921e-01 -6.172215e-01 -5.772865e-01 -4.967203e-01 -3.729908e-01 -2.013088e-01 
6.501735e-16 1.801396e-01 3.345934e-01 4.446169e-01 5.189304e-01 5.542427e-01 5.948629e-01 6.142455e-01 6.774944e-01 7.246283e-01 7.901133e-01 8.843375e-01 1.148668e+00 1.710859e+00 1.798505e+00 1.121600e+00 -3.694967e-13 -1.121600e+00 -1.798505e+00 -1.710859e+00 -1.148668e+00 -8.843375e-01 -7.901133e-01 -7.246283e-01 -6.774944e-01 -6.142455e-01 -5.948629e-01 -5.542427e-01 -5.189304e-01 -4.446169e-01 -3.345934e-01 -1.801396e-01 
-7.748430e-15 1.454575e-01 2.693281e-01 3.551572e-01 4.110020e-01 4.346864e-01 4.593263e-01 4.705854e-01 5.079141e-01 5.384551e-01 5.807392e-01 5.674536e-01 5.390021e-01 5.203167e-01 3.956011e-01 3.144436e-01 -8.562797e-14 -3.144436e-01 -3.956011e-01 -5.203167e-01 -5.390021e-01 -5.674536e-01 -5.807392e-01 -5.384551e-01 -5.079141e-01 -4.705854e-01 -4.593263e-01 -4.346864e-01 -4.110020e-01 -3.551572e-01 -2.693281e-01 -1.454575e-01 
4.838277e-15 1.092104e-01 2.007258e-01 2.589659e-01 2.909322e-01 2.903546e-01 2.828486e-01 2.548481e-01 2.359144e-01 2.110508e-01 1.928847e-01 1.852351e-01 1.740352e-01 2.256660e-01 1.828597e-01 9.569253e-02 5.237441e-14 -9.569253e-02 -1.828597e-01 -2.256660e-01 -1.740352e-01 -1.852351e-01 -1.928847e-01 -2.110508e-01 -2.359144e-01 -2.548481e-01 -2.828486e-01 -2.903546e-01 -2.909322e-01 -2.589659e-01 -2.007258e-01 -1.092104e-01 
-7.680468e-15 7.272309e-02 1.304738e-01 1.587580e-01 1.611734e-01 1.296941e-01 8.193387e-02 8.711006e-03 -6.605011e-02 -1.481379e-01 -2.205723e-01 -2.840045e-01 -3.397985e-01 -3.437426e-01 -3.223351e-01 -1.642844e-01 8.890193e-14 1.642844e-01 3.223351e-01 3.437426e-01 3.397985e-01 2.840045e-01 2.205723e-01 1.481379e-01 6.605011e-02 -8.711006e-03 -8.193387e-02 -1.296941e-01 -1.611734e-01 -1.587580e-01 -1.304738e-01 -7.272309e-02 
1.558590e-15 4.426749e-02 7.478985e-02 7.668770e-02 5.004465e-02 -1.551577e-02 -1.081552e-01 -2.322730e-01 -3.679167e-01 -5.041286e-01 -6.267576e-01 -7.053823e-01 -7.474181e-01 -6.949880e-01 -5.732166e-01 -3.191756e-01 6.261547e-14 3.191756e-01 5.732166e-01 6.949880e-01 7.474181e-01 7.053823e-01 6.267576e-01 5.041286e-01 3.679167e-01 2.322730e-01 1.081552e-01 1.551577e-02 -5.004465e-02 -7.668770e-02 -7.478985e-02 -4.426749e-02 
-8.162705e-15 2.426500e-02 3.513122e-02 1.703304e-02 -3.246657e-02 -1.258795e-01 -2.538192e-01 -4.201407e-01 -6.034353e-01 -7.917110e-01 -9.630919e-01 -1.087151e+00 -1.150663e+00 -1.087162e+00 -8.945567e-01 -4.971753e-01 4.486844e-14 4.971753e-01 8.945567e-01 1.087162e+00 1.150663e+00 1.087151e+00 9.630919e-01 7.917110e-01 6.034353e-01 4.201407e-01 2.538192e-01 1.258795e-01 3.246657e-02 -1.703304e-02 -3.513122e-02 -2.426500e-02 
