# vtk DataFile Version 2.0
Comment goes here
ASCII

DATASET STRUCTURED_POINTS
FIELD FieldData 1
TIME 1 1 double
0.06000000
DIMENSIONS    32   32   1

ORIGIN    0.000   0.000   0.000
SPACING   0.03125 0.03125   1.000

POINT_DATA   1024
SCALARS uX double
LOOKUP_TABLE default

8.861230e-16 1.939133e-01 3.849412e-01 5.647345e-01 7.338592e-01 8.782796e-01 9.991714e-01 1.081131e+00 1.124420e+00 1.115134e+00 1.060664e+00 9.500442e-01 8.017195e-01 6.047543e-01 4.145861e-01 1.423302e-01 -5.641711e-15 -1.423302e-01 -4.145861e-01 -6.047543e-01 -8.017195e-01 -9.500442e-01 -1.060664e+00 -1.115134e+00 -1.124420e+00 -1.081131e+00 -9.991714e-01 -8.782796e-01 -7.338592e-01 -5.647345e-01 -3.849412e-01 -1.939133e-01 
3.773280e-15 1.959763e-01 3.891100e-01 5.713613e-01 7.429877e-01 8.901322e-01 1.013703e+00 1.098257e+00 1.144578e+00 1.137816e+00 1.087146e+00 9.836805e-01 8.194802e-01 6.350444e-01 3.716311e-01 5.670193e-03 -2.426149e-15 -5.670193e-03 -3.716311e-01 -6.350444e-01 -8.194802e-01 -9.836805e-01 -1.087146e+00 -1.137816e+00 -1.144578e+00 -1.098257e+00 -1.013703e+00 -8.901322e-01 -7.429877e-01 -5.713613e-01 -3.891100e-01 -1.959763e-01 
4.108846e-15 2.025284e-01 4.030635e-01 5.937411e-01 7.758786e-01 9.340929e-01 1.069904e+00 1.166066e+00 1.220015e+00 1.214275e+00 1.162995e+00 1.041512e+00 8.840876e-01 6.651699e-01 1.732837e-01 -1.405158e-01 -4.964516e-15 1.405158e-01 -1.732837e-01 -6.651699e-01 -8.840876e-01 -1.041512e+00 -1.162995e+00 -1.214275e+00 -1.220015e+00 -1.166066e+00 -1.069904e+00 -9.340929e-01 -7.758786e-01 -5.937411e-01 -4.030635e-01 -2.025284e-01 
6.264350e-15 2.127664e-01 4.246081e-01 6.288049e-01 8.265817e-01 1.002126e+00 1.155455e+00 1.268236e+00 1.333119e+00 1.333602e+00 1.300366e+00 1.204348e+00 1.042492e+00 7.354719e-01 3.125581e-01 2.590645e-01 -1.127411e-14 -2.590645e-01 -3.125581e-01 -7.354719e-01 -1.042492e+00 -1.204348e+00 -1.300366e+00 -1.333602e+00 -1.333119e+00 -1.268236e+00 -1.155455e+00 -1.002126e+00 -8.265817e-01 -6.288049e-01 -4.246081e-01 -2.127664e-01 
8.205916e-15 2.251742e-01 4.517214e-01 6.745201e-01 8.966603e-01 1.100283e+00 1.288150e+00 1.431203e+00 1.518169e+00 1.542144e+00 1.507184e+00 1.423150e+00 1.214387e+00 8.551074e-01 7.740638e-01 7.129588e-01 -9.979328e-15 -7.129588e-01 -7.740638e-01 -8.551074e-01 -1.214387e+00 -1.423150e+00 -1.507184e+00 -1.542144e+00 -1.518169e+00 -1.431203e+00 -1.288150e+00 -1.100283e+00 -8.966603e-01 -6.745201e-01 -4.517214e-01 -2.251742e-01 
9.926619e-15 2.391574e-01 4.831700e-01 7.298608e-01 9.828563e-01 1.224901e+00 1.457771e+00 1.613035e+00 1.729806e+00 1.763445e+00 1.783693e+00 1.628298e+00 1.217450e+00 9.099833e-01 9.274336e-01 6.473193e-01 -1.083398e-14 -6.473193e-01 -9.274336e-01 -9.099833e-01 -1.217450e+00 -1.628298e+00 -1.783693e+00 -1.763445e+00 -1.729806e+00 -1.613035e+00 -1.457771e+00 -1.224901e+00 -9.828563e-01 -7.298608e-01 -4.831700e-01 -2.391574e-01 
8.842094e-15 2.488495e-01 5.079160e-01 7.794005e-01 1.071190e+00 1.366027e+00 1.673678e+00 1.850506e+00 2.075013e+00 2.074601e+00 1.797335e+00 1.242275e+00 6.755997e-01 7.159349e-01 7.315656e-01 3.844600e-01 -1.230696e-14 -3.844600e-01 -7.315656e-01 -7.159349e-01 -6.755997e-01 -1.242275e+00 -1.797335e+00 -2.074601e+00 -2.075013e+00 -1.850506e+00 -1.673678e+00 -1.366027e+00 -1.071190e+00 -7.794005e-01 -5.079160e-01 -2.488495e-01 
8.935430e-15 2.530793e-01 5.262921e-01 8.256010e-01 1.167812e+00 1.552690e+00 1.919813e+00 2.157538e+00 2.151329e+00 1.725578e+00 1.117584e+00 5.195951e-01 5.413888e-01 8.561814e-01 5.414209e-01 1.265365e-01 -3.392704e-14 -1.265365e-01 -5.414209e-01 -8.561814e-01 -5.413888e-01 -5.195951e-01 -1.117584e+00 -1.725578e+00 -2.151329e+00 -2.157538e+00 -1.919813e+00 -1.552690e+00 -1.167812e+00 -8.256010e-01 -5.262921e-01 -2.530793e-01 
9.605277e-15 2.396118e-01 5.100503e-01 8.260985e-01 1.212421e+00 1.705325e+00 2.111656e+00 2.293717e+00 1.987648e+00 1.466635e+00 1.031070e+00 1.128475e+00 1.424086e+00 9.969755e-01 4.640057e-01 1.517680e-01 -5.701592e-14 -1.517680e-01 -4.640057e-01 -9.969755e-01 -1.424086e+00 -1.128475e+00 -1.031070e+00 -1.466635e+00 -1.987648e+00 -2.293717e+00 -2.111656e+00 -1.705325e+00 -1.212421e+00 -8.260985e-01 -5.100503e-01 -2.396118e-01 
7.041733e-15 2.008008e-01 4.544060e-01 7.642379e-01 1.226801e+00 1.878459e+00 2.314904e+00 2.194789e+00 1.431730e+00 1.035274e+00 1.160899e+00 1.413622e+00 1.001541e+00 3.361243e-01 3.140389e-01 3.297472e-01 5.494522e-15 -3.297472e-01 -3.140389e-01 -3.361243e-01 -1.001541e+00 -1.413622e+00 -1.160899e+00 -1.035274e+00 -1.431730e+00 -2.194789e+00 -2.314904e+00 -1.878459e+00 -1.226801e+00 -7.642379e-01 -4.544060e-01 -2.008008e-01 
6.300009e-15 1.233235e-01 3.170362e-01 5.704099e-01 1.076094e+00 1.678874e+00 1.344008e+00 1.462450e-01 -8.650002e-01 -9.109934e-01 -5.111075e-01 -5.614306e-01 -4.271964e-01 -1.607370e-01 -1.057612e-01 6.684561e-02 4.791790e-14 -6.684561e-02 1.057612e-01 1.607370e-01 4.271964e-01 5.614306e-01 5.111075e-01 9.109934e-01 8.650002e-01 -1.462450e-01 -1.344008e+00 -1.678874e+00 -1.076094e+00 -5.704099e-01 -3.170362e-01 -1.233235e-01 
4.092360e-15 -1.373986e-02 5.458042e-02 1.108327e-01 5.288635e-01 2.119518e-01 -1.229959e+00 -2.512023e+00 -2.607294e+00 -2.426132e+00 -2.808007e+00 -2.534559e+00 -1.284324e+00 -8.324705e-01 -7.952736e-01 -4.444270e-01 1.842508e-14 4.444270e-01 7.952736e-01 8.324705e-01 1.284324e+00 2.534559e+00 2.808007e+00 2.426132e+00 2.607294e+00 2.512023e+00 1.229959e+00 -2.119518e-01 -5.288635e-01 -1.108327e-01 -5.458042e-02 1.373986e-02 
-1.279700e-15 -1.955971e-01 -3.403811e-01 -5.432493e-01 -5.721861e-01 -1.910430e+00 -2.975412e+00 -2.817029e+00 -2.727122e+00 -3.145764e+00 -3.708057e+00 -2.809426e+00 -1.844545e+00 -1.578168e+00 -1.063060e+00 -5.855152e-01 6.483610e-15 5.855152e-01 1.063060e+00 1.578168e+00 1.844545e+00 2.809426e+00 3.708057e+00 3.145764e+00 2.727122e+00 2.817029e+00 2.975412e+00 1.910430e+00 5.721861e-01 5.432493e-01 3.403811e-01 1.955971e-01 
6.593162e-16 -3.854448e-01 -8.202372e-01 -1.219346e+00 -1.972835e+00 -3.137921e+00 -3.247478e+00 -2.694355e+00 -2.784505e+00 -3.111146e+00 -3.003877e+00 -2.202617e+00 -2.002536e+00 -1.593568e+00 -9.473538e-01 -5.232416e-01 1.099470e-15 5.232416e-01 9.473538e-01 1.593568e+00 2.002536e+00 2.202617e+00 3.003877e+00 3.111146e+00 2.784505e+00 2.694355e+00 3.247478e+00 3.137921e+00 1.972835e+00 1.219346e+00 8.202372e-01 3.854448e-01 
-4.989094e-15 -5.649498e-01 -1.237845e+00 -1.880171e+00 -2.999778e+00 -3.472144e+00 -3.305005e+00 -3.034204e+00 -2.609852e+00 -2.261201e+00 -1.709837e+00 -1.539576e+00 -1.747837e+00 -1.319134e+00 -8.343573e-01 -4.694318e-01 -1.847563e-15 4.694318e-01 8.343573e-01 1.319134e+00 1.747837e+00 1.539576e+00 1.709837e+00 2.261201e+00 2.609852e+00 3.034204e+00 3.305005e+00 3.472144e+00 2.999778e+00 1.880171e+00 1.237845e+00 5.649498e-01 
8.569817e-15 -7.025955e-01 -1.511929e+00 -2.411352e+00 -3.503067e+00 -3.622339e+00 -3.384210e+00 -3.125477e+00 -2.398764e+00 -1.458437e+00 -6.378035e-01 -1.012367e+00 -1.335491e+00 -1.046767e+00 -7.244553e-01 -4.006691e-01 -3.324368e-15 4.006691e-01 7.244553e-01 1.046767e+00 1.335491e+00 1.012367e+00 6.378035e-01 1.458437e+00 2.398764e+00 3.125477e+00 3.384210e+00 3.622339e+00 3.503067e+00 2.411352e+00 1.511929e+00 7.025955e-01 
4.826115e-16 -7.517944e-01 -1.608064e+00 -2.606233e+00 -3.654419e+00 -3.682333e+00 -3.413128e+00 -3.154140e+00 -2.322162e+00 -1.074527e+00 -1.998301e-01 -8.000015e-01 -1.158885e+00 -9.550523e-01 -6.940660e-01 -3.834694e-01 -2.526469e-15 3.834694e-01 6.940660e-01 9.550523e-01 1.158885e+00 8.000015e-01 1.998301e-01 1.074527e+00 2.322162e+00 3.154140e+00 3.413128e+00 3.682333e+00 3.654419e+00 2.606233e+00 1.608064e+00 7.517944e-01 
-7.428984e-15 -7.025955e-01 -1.511929e+00 -2.411352e+00 -3.503067e+00 -3.622339e+00 -3.384210e+00 -3.125477e+00 -2.398764e+00 -1.458437e+00 -6.378035e-01 -1.012367e+00 -1.335491e+00 -1.046767e+00 -7.244553e-01 -4.006691e-01 -2.356043e-15 4.006691e-01 7.244553e-01 1.046767e+00 1.335491e+00 1.012367e+00 6.378035e-01 1.458437e+00 2.398764e+00 3.125477e+00 3.384210e+00 3.622339e+00 3.503067e+00 2.411352e+00 1.511929e+00 7.025955e-01 
2.125386e-15 -5.649498e-01 -1.237845e+00 -1.880171e+00 -2.999778e+00 -3.472144e+00 -3.305005e+00 -3.034204e+00 -2.609852e+00 -2.261201e+00 -1.709837e+00 -1.539576e+00 -1.747837e+00 -1.319134e+00 -8.343573e-01 -4.694318e-01 1.634368e-18 4.694318e-01 8.343573e-01 1.319134e+00 1.747837e+00 1.539576e+00 1.709837e+00 2.261201e+00 2.609852e+00 3.034204e+00 3.305005e+00 3.472144e+00 2.999778e+00 1.880171e+00 1.237845e+00 5.649498e-01 
-8.673448e-15 -3.854448e-01 -8.202372e-01 -1.219346e+00 -1.972835e+00 -3.137921e+00 -3.247478e+00 -2.694355e+00 -2.784505e+00 -3.111146e+00 -3.003877e+00 -2.202617e+00 -2.002536e+00 -1.593568e+00 -9.473538e-01 -5.232416e-01 5.384082e-15 5.232416e-01 9.473538e-01 1.593568e+00 2.002536e+00 2.202617e+00 3.003877e+00 3.111146e+00 2.784505e+00 2.694355e+00 3.247478e+00 3.137921e+00 1.972835e+00 1.219346e+00 8.202372e-01 3.854448e-01 
1.812804e-15 -1.955971e-01 -3.403811e-01 -5.432493e-01 -5.721861e-01 -1.910430e+00 -2.975412e+00 -2.817029e+00 -2.727122e+00 -3.145764e+00 -3.708057e+00 -2.809426e+00 -1.844545e+00 -1.578168e+00 -1.063060e+00 -5.855152e-01 1.690516e-14 5.855152e-01 1.063060e+00 1.578168e+00 1.844545e+00 2.809426e+00 3.708057e+00 3.145764e+00 2.727122e+00 2.817029e+00 2.975412e+00 1.910430e+00 5.721861e-01 5.432493e-01 3.403811e-01 1.955971e-01 
-5.836165e-15 -1.373986e-02 5.458042e-02 1.108327e-01 5.288635e-01 2.119518e-01 -1.229959e+00 -2.512023e+00 -2.607294e+00 -2.426132e+00 -2.808007e+00 -2.534559e+00 -1.284324e+00 -8.324705e-01 -7.952736e-01 -4.444270e-01 4.250037e-14 4.444270e-01 7.952736e-01 8.324705e-01 1.284324e+00 2.534559e+00 2.808007e+00 2.426132e+00 2.607294e+00 2.512023e+00 1.229959e+00 -2.119518e-01 -5.288635e-01 -1.108327e-01 -5.458042e-02 1.373986e-02 
-3.229035e-15 1.233235e-01 3.170362e-01 5.704099e-01 1.076094e+00 1.678874e+00 1.344008e+00 1.462450e-01 -8.650002e-01 -9.109934e-01 -5.111075e-01 -5.614306e-01 -4.271964e-01 -1.607370e-01 -1.057612e-01 6.684561e-02 6.946950e-14 -6.684561e-02 1.057612e-01 1.607370e-01 4.271964e-01 5.614306e-01 5.111075e-01 9.109934e-01 8.650002e-01 -1.462450e-01 -1.344008e+00 -1.678874e+00 -1.076094e+00 -5.704099e-01 -3.170362e-01 -1.233235e-01 
-4.404373e-15 2.008008e-01 4.544060e-01 7.642379e-01 1.226801e+00 1.878459e+00 2.314904e+00 2.194789e+00 1.431730e+00 1.035274e+00 1.160899e+00 1.413622e+00 1.001541e+00 3.361243e-01 3.140389e-01 3.297472e-01 1.492450e-14 -3.297472e-01 -3.140389e-01 -3.361243e-01 -1.001541e+00 -1.413622e+00 -1.160899e+00 -1.035274e+00 -1.431730e+00 -2.194789e+00 -2.314904e+00 -1.878459e+00 -1.226801e+00 -7.642379e-01 -4.544060e-01 -2.008008e-01 
-6.875159e-15 2.396118e-01 5.100503e-01 8.260985e-01 1.212421e+00 1.705325e+00 2.111656e+00 2.293717e+00 1.987648e+00 1.466635e+00 1.031070e+00 1.128475e+00 1.424086e+00 9.969755e-01 4.640057e-01 1.517680e-01 -3.456135e-14 -1.517680e-01 -4.640057e-01 -9.969755e-01 -1.424086e+00 -1.128475e+00 -1.031070e+00 -1.466635e+00 -1.987648e+00 -2.293717e+00 -2.111656e+00 -1.705325e+00 -1.212421e+00 -8.260985e-01 -5.100503e-01 -2.396118e-01 
-5.912961e-15 2.530793e-01 5.262921e-01 8.256010e-01 1.167812e+00 1.552690e+00 1.919813e+00 2.157538e+00 2.151329e+00 1.725578e+00 1.117584e+00 5.195951e-01 5.413888e-01 8.561814e-01 5.414209e-01 1.265365e-01 3.521721e-15 -1.265365e-01 -5.414209e-01 -8.561814e-01 -5.413888e-01 -5.195951e-01 -1.117584e+00 -1.725578e+00 -2.151329e+00 -2.157538e+00 -1.919813e+00 -1.552690e+00 -1.167812e+00 -8.256010e-01 -5.262921e-01 -2.530793e-01 
-6.766873e-15 2.488495e-01 5.079160e-01 7.794005e-01 1.071190e+00 1.366027e+00 1.673678e+00 1.850506e+00 2.075013e+00 2.074601e+00 1.797335e+00 1.242275e+00 6.755997e-01 7.159349e-01 7.315656e-01 3.844600e-01 1.242807e-14 -3.844600e-01 -7.315656e-01 -7.159349e-01 -6.755997e-01 -1.242275e+00 -1.797335e+00 -2.074601e+00 -2.075013e+00 -1.850506e+00 -1.673678e+00 -1.366027e+00 -1.071190e+00 -7.794005e-01 -5.079160e-01 -2.488495e-01 
-5.807565e-15 2.391574e-01 4.831700e-01 7.298608e-01 9.828563e-01 1.224901e+00 1.457771e+00 1.613035e+00 1.729806e+00 1.763445e+00 1.783693e+00 1.628298e+00 1.217450e+00 9.099833e-01 9.274336e-01 6.473193e-01 2.863384e-15 -6.473193e-01 -9.274336e-01 -9.099833e-01 -1.217450e+00 -1.628298e+00 -1.783693e+00 -1.763445e+00 -1.729806e+00 -1.613035e+00 -1.457771e+00 -1.224901e+00 -9.828563e-01 -7.298608e-01 -4.831700e-01 -2.391574e-01 
-6.281340e-15 2.251742e-01 4.517214e-01 6.745201e-01 8.966603e-01 1.100283e+00 1.288150e+00 1.431203e+00 1.518169e+00 1.542144e+00 1.507184e+00 1.423150e+00 1.214387e+00 8.551074e-01 7.740638e-01 7.129588e-01 -8.647803e-15 -7.129588e-01 -7.740638e-01 -8.551074e-01 -1.214387e+00 -1.423150e+00 -1.507184e+00 -1.542144e+00 -1.518169e+00 -1.431203e+00 -1.288150e+00 -1.100283e+00 -8.966603e-01 -6.745201e-01 -4.517214e-01 -2.251742e-01 
-2.588522e-15 2.127664e-01 4.246081e-01 6.288049e-01 8.265817e-01 1.002126e+00 1.155455e+00 1.268236e+00 1.333119e+00 1.333602e+00 1.300366e+00 1.204348e+00 1.042492e+00 7.354719e-01 3.125581e-01 2.590645e-01 -1.909375e-14 -2.590645e-01 -3.125581e-01 -7.354719e-01 -1.042492e+00 -1.204348e+00 -1.300366e+00 -1.333602e+00 -1.333119e+00 -1.268236e+00 -1.155455e+00 -1.002126e+00 -8.265817e-01 -6.288049e-01 -4.246081e-01 -2.127664e-01 
-2.653265e-15 2.025284e-01 4.030635e-01 5.937411e-01 7.758786e-01 9.340929e-01 1.069904e+00 1.166066e+00 1.220015e+00 1.214275e+00 1.162995e+00 1.041512e+00 8.840876e-01 6.651699e-01 1.732837e-01 -1.405158e-01 -5.419642e-15 1.405158e-01 -1.732837e-01 -6.651699e-01 -8.840876e-01 -1.041512e+00 -1.162995e+00 -1.214275e+00 -1.220015e+00 -1.166066e+00 -1.069904e+00 -9.340929e-01 -7.758786e-01 -5.937411e-01 -4.030635e-01 -2.025284e-01 
2.689155e-16 1.959763e-01 3.891100e-01 5.713613e-01 7.429877e-01 8.901322e-01 1.013703e+00 1.098257e+00 1.144578e+00 1.137816e+00 1.087146e+00 9.836805e-01 8.194802e-01 6.350444e-01 3.716311e-01 5.670193e-03 -2.097873e-15 -5.670193e-03 -3.716311e-01 -6.350444e-01 -8.194802e-01 -9.836805e-01 -1.087146e+00 -1.137816e+00 -1.144578e+00 -1.098257e+00 -1.013703e+00 -8.901322e-01 -7.429877e-01 -5.713613e-01 -3.891100e-01 -1.959763e-01 
