# vtk DataFile Version 2.0
Comment goes here
ASCII

DATASET STRUCTURED_POINTS
FIELD FieldData 1
TIME 1 1 double
1.08000000
DIMENSIONS    32   32   1

ORIGIN    0.000   0.000   0.000
SPACING   0.03125 0.03125   1.000

POINT_DATA   1024
SCALARS uX double
LOOKUP_TABLE default

-2.487400e-14 -1.612564e-02 -5.071968e-02 -1.118182e-01 -2.170660e-01 -3.589039e-01 -5.481299e-01 -7.585493e-01 -9.908443e-01 -1.197979e+00 -1.379249e+00 -1.473013e+00 -1.491021e+00 -1.362691e+00 -1.101699e+00 -6.326062e-01 1.428721e-13 6.326062e-01 1.101699e+00 1.362691e+00 1.491021e+00 1.473013e+00 1.379249e+00 1.197979e+00 9.908443e-01 7.585493e-01 5.481299e-01 3.589039e-01 2.170660e-01 1.118182e-01 5.071968e-02 1.612564e-02 
-2.112817e-14 -8.463264e-03 -3.528103e-02 -8.801305e-02 -1.835102e-01 -3.131665e-01 -4.878436e-01 -6.805856e-01 -8.946787e-01 -1.082428e+00 -1.249028e+00 -1.333068e+00 -1.352885e+00 -1.240111e+00 -1.015500e+00 -5.827493e-01 5.152986e-14 5.827493e-01 1.015500e+00 1.240111e+00 1.352885e+00 1.333068e+00 1.249028e+00 1.082428e+00 8.946787e-01 6.805856e-01 4.878436e-01 3.131665e-01 1.835102e-01 8.801305e-02 3.528103e-02 8.463264e-03 
-1.914428e-14 1.290755e-02 6.486904e-03 -2.610929e-02 -1.007771e-01 -2.070484e-01 -3.545499e-01 -5.184414e-01 -7.013491e-01 -8.618777e-01 -1.005187e+00 -1.076251e+00 -1.097128e+00 -1.002449e+00 -8.225300e-01 -4.635120e-01 -9.129297e-15 4.635120e-01 8.225300e-01 1.002449e+00 1.097128e+00 1.076251e+00 1.005187e+00 8.618777e-01 7.013491e-01 5.184414e-01 3.545499e-01 2.070484e-01 1.007771e-01 2.610929e-02 -6.486904e-03 -1.290755e-02 
-1.404204e-14 4.454836e-02 6.833503e-02 6.485082e-02 2.033560e-02 -5.185395e-02 -1.589981e-01 -2.766048e-01 -4.100503e-01 -5.194362e-01 -6.194636e-01 -6.544881e-01 -6.558495e-01 -5.872480e-01 -5.095194e-01 -2.740263e-01 -1.959400e-14 2.740263e-01 5.095194e-01 5.872480e-01 6.558495e-01 6.544881e-01 6.194636e-01 5.194362e-01 4.100503e-01 2.766048e-01 1.589981e-01 5.185395e-02 -2.033560e-02 -6.485082e-02 -6.833503e-02 -4.454836e-02 
-5.705180e-15 8.409856e-02 1.440534e-01 1.736126e-01 1.583223e-01 1.158877e-01 4.058251e-02 -4.498939e-02 -1.443080e-01 -2.299114e-01 -3.102521e-01 -3.398151e-01 -3.411004e-01 -2.612485e-01 -1.985902e-01 -6.543587e-02 2.699566e-14 6.543587e-02 1.985902e-01 2.612485e-01 3.411004e-01 3.398151e-01 3.102521e-01 2.299114e-01 1.443080e-01 4.498939e-02 -4.058251e-02 -1.158877e-01 -1.583223e-01 -1.736126e-01 -1.440534e-01 -8.409856e-02 
4.917983e-15 1.219966e-01 2.167451e-01 2.760281e-01 2.865396e-01 2.670708e-01 2.176871e-01 1.580891e-01 8.855156e-02 3.259836e-02 -3.252865e-02 -2.657860e-02 6.673757e-02 1.704168e-01 1.055336e-01 1.164334e-01 1.719715e-13 -1.164334e-01 -1.055336e-01 -1.704168e-01 -6.673757e-02 2.657860e-02 3.252865e-02 -3.259836e-02 -8.855156e-02 -1.580891e-01 -2.176871e-01 -2.670708e-01 -2.865396e-01 -2.760281e-01 -2.167451e-01 -1.219966e-01 
2.237306e-14 1.593207e-01 2.875703e-01 3.771415e-01 4.092712e-01 4.089254e-01 3.717215e-01 3.178891e-01 2.521895e-01 1.730658e-01 8.537805e-02 2.899483e-02 8.401060e-02 3.467860e-01 4.919985e-01 4.658144e-01 3.581281e-13 -4.658144e-01 -4.919985e-01 -3.467860e-01 -8.401060e-02 -2.899483e-02 -8.537805e-02 -1.730658e-01 -2.521895e-01 -3.178891e-01 -3.717215e-01 -4.089254e-01 -4.092712e-01 -3.771415e-01 -2.875703e-01 -1.593207e-01 
3.776795e-14 1.795996e-01 3.268121e-01 4.313490e-01 4.753235e-01 4.802970e-01 4.493043e-01 3.868903e-01 3.277931e-01 2.255478e-01 4.452246e-02 2.448903e-01 7.134277e-01 1.343786e+00 1.146024e+00 7.659406e-01 3.069703e-13 -7.659406e-01 -1.146024e+00 -1.343786e+00 -7.134277e-01 -2.448903e-01 -4.452246e-02 -2.255478e-01 -3.277931e-01 -3.868903e-01 -4.493043e-01 -4.802970e-01 -4.753235e-01 -4.313490e-01 -3.268121e-01 -1.795996e-01 
6.143091e-14 1.919147e-01 3.507695e-01 4.716308e-01 5.270836e-01 5.534350e-01 5.287114e-01 4.713890e-01 4.058430e-01 2.740688e-01 2.264434e-01 9.224193e-01 1.079885e+00 8.483080e-01 -8.806895e-02 -1.708202e-01 -1.692416e-13 1.708202e-01 8.806895e-02 -8.483080e-01 -1.079885e+00 -9.224193e-01 -2.264434e-01 -2.740688e-01 -4.058430e-01 -4.713890e-01 -5.287114e-01 -5.534350e-01 -5.270836e-01 -4.716308e-01 -3.507695e-01 -1.919147e-01 
7.427940e-14 1.760083e-01 3.214301e-01 4.333852e-01 4.830647e-01 5.083693e-01 4.828045e-01 4.039923e-01 4.577661e-01 2.027875e-01 2.893676e-01 5.520963e-01 -9.339611e-02 -7.705236e-01 -8.052086e-01 -3.762484e-01 -3.439215e-13 3.762484e-01 8.052086e-01 7.705236e-01 9.339611e-02 -5.520963e-01 -2.893676e-01 -2.027875e-01 -4.577661e-01 -4.039923e-01 -4.828045e-01 -5.083693e-01 -4.830647e-01 -4.333852e-01 -3.214301e-01 -1.760083e-01 
1.022496e-13 1.469516e-01 2.697668e-01 3.792512e-01 4.330726e-01 5.044406e-01 4.979307e-01 4.861954e-01 5.568641e-01 -1.640421e-01 3.359180e-01 1.571262e-01 2.423923e-01 6.017630e-01 9.411534e-01 6.743224e-01 -4.912387e-14 -6.743224e-01 -9.411534e-01 -6.017630e-01 -2.423923e-01 -1.571262e-01 -3.359180e-01 1.640421e-01 -5.568641e-01 -4.861954e-01 -4.979307e-01 -5.044406e-01 -4.330726e-01 -3.792512e-01 -2.697668e-01 -1.469516e-01 
1.033657e-13 8.286404e-02 1.531319e-01 2.359692e-01 2.691473e-01 3.586311e-01 2.420318e-01 2.612479e-01 -8.487518e-02 -4.996076e-01 6.970359e-01 3.873437e-01 5.311192e-01 6.590043e-01 7.314799e-01 2.871803e-01 1.130851e-13 -2.871803e-01 -7.314799e-01 -6.590043e-01 -5.311192e-01 -3.873437e-01 -6.970359e-01 4.996076e-01 8.487518e-02 -2.612479e-01 -2.420318e-01 -3.586311e-01 -2.691473e-01 -2.359692e-01 -1.531319e-01 -8.286404e-02 
1.255842e-13 -9.728876e-03 -7.155859e-03 4.308782e-02 8.543888e-02 2.485640e-01 1.077993e-01 4.870194e-01 -6.142634e-01 2.074738e-01 1.001077e+00 3.323752e-01 3.228460e-01 -1.123909e-01 7.022118e-02 -1.272456e-01 1.764417e-13 1.272456e-01 -7.022118e-02 1.123909e-01 -3.228460e-01 -3.323752e-01 -1.001077e+00 -2.074738e-01 6.142634e-01 -4.870194e-01 -1.077993e-01 -2.485640e-01 -8.543888e-02 -4.308782e-02 7.155859e-03 9.728876e-03 
9.301010e-14 -1.377506e-01 -2.305181e-01 -2.346787e-01 -1.616122e-01 6.001886e-02 1.562377e-01 4.921023e-01 -5.155015e-01 1.000186e+00 7.646072e-01 2.477938e-01 4.123105e-01 1.059551e-01 1.606055e-01 -4.170039e-03 1.111107e-13 4.170039e-03 -1.606055e-01 -1.059551e-01 -4.123105e-01 -2.477938e-01 -7.646072e-01 -1.000186e+00 5.155015e-01 -4.921023e-01 -1.562377e-01 -6.001886e-02 1.616122e-01 2.346787e-01 2.305181e-01 1.377506e-01 
9.018285e-14 -3.057294e-01 -5.289063e-01 -6.728740e-01 -6.201227e-01 -5.861087e-01 -2.463577e-01 -5.560818e-01 1.451413e-01 1.055838e+00 3.212265e-01 3.398636e-01 2.359662e-01 8.180381e-02 6.860028e-02 -2.769373e-02 6.225345e-14 2.769373e-02 -6.860028e-02 -8.180381e-02 -2.359662e-01 -3.398636e-01 -3.212265e-01 -1.055838e+00 -1.451413e-01 5.560818e-01 2.463577e-01 5.861087e-01 6.201227e-01 6.728740e-01 5.289063e-01 3.057294e-01 
3.463480e-14 -4.588031e-01 -8.206552e-01 -1.118891e+00 -1.189288e+00 -1.309367e+00 -9.012236e-01 -7.451315e-01 1.030995e+00 6.403524e-01 1.054876e-01 5.820102e-01 3.785353e-01 3.187209e-01 1.865852e-01 6.763962e-02 -3.664175e-14 -6.763962e-02 -1.865852e-01 -3.187209e-01 -3.785353e-01 -5.820102e-01 -1.054876e-01 -6.403524e-01 -1.030995e+00 7.451315e-01 9.012236e-01 1.309367e+00 1.189288e+00 1.118891e+00 8.206552e-01 4.588031e-01 
-2.662000e-14 -5.433439e-01 -9.944496e-01 -1.379663e+00 -1.567512e+00 -1.717287e+00 -1.343546e+00 -5.274114e-01 1.190610e+00 2.887485e-01 7.004258e-02 7.435861e-01 4.372776e-01 3.575475e-01 1.761303e-01 6.174752e-02 -9.926279e-14 -6.174752e-02 -1.761303e-01 -3.575475e-01 -4.372776e-01 -7.435861e-01 -7.004258e-02 -2.887485e-01 -1.190610e+00 5.274114e-01 1.343546e+00 1.717287e+00 1.567512e+00 1.379663e+00 9.944496e-01 5.433439e-01 
-9.821944e-14 -4.588031e-01 -8.206552e-01 -1.118891e+00 -1.189288e+00 -1.309367e+00 -9.012236e-01 -7.451315e-01 1.030995e+00 6.403524e-01 1.054876e-01 5.820102e-01 3.785353e-01 3.187209e-01 1.865852e-01 6.763962e-02 -1.956809e-13 -6.763962e-02 -1.865852e-01 -3.187209e-01 -3.785353e-01 -5.820102e-01 -1.054876e-01 -6.403524e-01 -1.030995e+00 7.451315e-01 9.012236e-01 1.309367e+00 1.189288e+00 1.118891e+00 8.206552e-01 4.588031e-01 
-1.446702e-13 -3.057294e-01 -5.289063e-01 -6.728740e-01 -6.201227e-01 -5.861087e-01 -2.463577e-01 -5.560818e-01 1.451413e-01 1.055838e+00 3.212265e-01 3.398636e-01 2.359662e-01 8.180381e-02 6.860028e-02 -2.769373e-02 -3.123737e-13 2.769373e-02 -6.860028e-02 -8.180381e-02 -2.359662e-01 -3.398636e-01 -3.212265e-01 -1.055838e+00 -1.451413e-01 5.560818e-01 2.463577e-01 5.861087e-01 6.201227e-01 6.728740e-01 5.289063e-01 3.057294e-01 
-1.572719e-13 -1.377506e-01 -2.305181e-01 -2.346787e-01 -1.616122e-01 6.001886e-02 1.562377e-01 4.921023e-01 -5.155015e-01 1.000186e+00 7.646072e-01 2.477938e-01 4.123105e-01 1.059551e-01 1.606055e-01 -4.170039e-03 -3.970522e-13 4.170039e-03 -1.606055e-01 -1.059551e-01 -4.123105e-01 -2.477938e-01 -7.646072e-01 -1.000186e+00 5.155015e-01 -4.921023e-01 -1.562377e-01 -6.001886e-02 1.616122e-01 2.346787e-01 2.305181e-01 1.377506e-01 
-1.796185e-13 -9.728876e-03 -7.155859e-03 4.308782e-02 8.543888e-02 2.485640e-01 1.077993e-01 4.870194e-01 -6.142634e-01 2.074738e-01 1.001077e+00 3.323752e-01 3.228460e-01 -1.123909e-01 7.022118e-02 -1.272456e-01 -4.932319e-13 1.272456e-01 -7.022118e-02 1.123909e-01 -3.228460e-01 -3.323752e-01 -1.001077e+00 -2.074738e-01 6.142634e-01 -4.870194e-01 -1.077993e-01 -2.485640e-01 -8.543888e-02 -4.308782e-02 7.155859e-03 9.728876e-03 
-1.483609e-13 8.286404e-02 1.531319e-01 2.359692e-01 2.691473e-01 3.586311e-01 2.420318e-01 2.612479e-01 -8.487518e-02 -4.996076e-01 6.970359e-01 3.873437e-01 5.311192e-01 6.590043e-01 7.314799e-01 2.871803e-01 -9.873556e-14 -2.871803e-01 -7.314799e-01 -6.590043e-01 -5.311192e-01 -3.873437e-01 -6.970359e-01 4.996076e-01 8.487518e-02 -2.612479e-01 -2.420318e-01 -3.586311e-01 -2.691473e-01 -2.359692e-01 -1.531319e-01 -8.286404e-02 
-1.414278e-13 1.469516e-01 2.697668e-01 3.792512e-01 4.330726e-01 5.044406e-01 4.979307e-01 4.861954e-01 5.568641e-01 -1.640421e-01 3.359180e-01 1.571262e-01 2.423923e-01 6.017630e-01 9.411534e-01 6.743224e-01 7.618594e-13 -6.743224e-01 -9.411534e-01 -6.017630e-01 -2.423923e-01 -1.571262e-01 -3.359180e-01 1.640421e-01 -5.568641e-01 -4.861954e-01 -4.979307e-01 -5.044406e-01 -4.330726e-01 -3.792512e-01 -2.697668e-01 -1.469516e-01 
-1.046062e-13 1.760083e-01 3.214301e-01 4.333852e-01 4.830647e-01 5.083693e-01 4.828045e-01 4.039923e-01 4.577661e-01 2.027875e-01 2.893676e-01 5.520963e-01 -9.339611e-02 -7.705236e-01 -8.052086e-01 -3.762484e-01 1.438110e-12 3.762484e-01 8.052086e-01 7.705236e-01 9.339611e-02 -5.520963e-01 -2.893676e-01 -2.027875e-01 -4.577661e-01 -4.039923e-01 -4.828045e-01 -5.083693e-01 -4.830647e-01 -4.333852e-01 -3.214301e-01 -1.760083e-01 
-9.193134e-14 1.919147e-01 3.507695e-01 4.716308e-01 5.270836e-01 5.534350e-01 5.287114e-01 4.713890e-01 4.058430e-01 2.740688e-01 2.264434e-01 9.224193e-01 1.079885e+00 8.483080e-01 -8.806895e-02 -1.708202e-01 4.566964e-13 1.708202e-01 8.806895e-02 -8.483080e-01 -1.079885e+00 -9.224193e-01 -2.264434e-01 -2.740688e-01 -4.058430e-01 -4.713890e-01 -5.287114e-01 -5.534350e-01 -5.270836e-01 -4.716308e-01 -3.507695e-01 -1.919147e-01 
-6.405207e-14 1.795996e-01 3.268121e-01 4.313490e-01 4.753235e-01 4.802970e-01 4.493043e-01 3.868903e-01 3.277931e-01 2.255478e-01 4.452246e-02 2.448903e-01 7.134277e-01 1.343786e+00 1.146024e+00 7.659406e-01 -1.176244e-12 -7.659406e-01 -1.146024e+00 -1.343786e+00 -7.134277e-01 -2.448903e-01 -4.452246e-02 -2.255478e-01 -3.277931e-01 -3.868903e-01 -4.493043e-01 -4.802970e-01 -4.753235e-01 -4.313490e-01 -3.268121e-01 -1.795996e-01 
-5.292615e-14 1.593207e-01 2.875703e-01 3.771415e-01 4.092712e-01 4.089254e-01 3.717215e-01 3.178891e-01 2.521895e-01 1.730658e-01 8.537805e-02 2.899483e-02 8.401060e-02 3.467860e-01 4.919985e-01 4.658144e-01 -1.346379e-12 -4.658144e-01 -4.919985e-01 -3.467860e-01 -8.401060e-02 -2.899483e-02 -8.537805e-02 -1.730658e-01 -2.521895e-01 -3.178891e-01 -3.717215e-01 -4.089254e-01 -4.092712e-01 -3.771415e-01 -2.875703e-01 -1.593207e-01 
-3.576533e-14 1.219966e-01 2.167451e-01 2.760281e-01 2.865396e-01 2.670708e-01 2.176871e-01 1.580891e-01 8.855156e-02 3.259836e-02 -3.252865e-02 -2.657860e-02 6.673757e-02 1.704168e-01 1.055336e-01 1.164334e-01 -6.819852e-13 -1.164334e-01 -1.055336e-01 -1.704168e-01 -6.673757e-02 2.657860e-02 3.252865e-02 -3.259836e-02 -8.855156e-02 -1.580891e-01 -2.176871e-01 -2.670708e-01 -2.865396e-01 -2.760281e-01 -2.167451e-01 -1.219966e-01 
-3.265186e-14 8.409856e-02 1.440534e-01 1.736126e-01 1.583223e-01 1.158877e-01 4.058251e-02 -4.498939e-02 -1.443080e-01 -2.299114e-01 -3.102521e-01 -3.398151e-01 -3.411004e-01 -2.612485e-01 -1.985902e-01 -6.543587e-02 -1.448476e-13 6.543587e-02 1.985902e-01 2.612485e-01 3.411004e-01 3.398151e-01 3.102521e-01 2.299114e-01 1.443080e-01 4.498939e-02 -4.058251e-02 -1.158877e-01 -1.583223e-01 -1.736126e-01 -1.440534e-01 -8.409856e-02 
-2.555078e-14 4.454836e-02 6.833503e-02 6.485082e-02 2.033560e-02 -5.185395e-02 -1.589981e-01 -2.766048e-01 -4.100503e-01 -5.194362e-01 -6.194636e-01 -6.544881e-01 -6.558495e-01 -5.872480e-01 -5.095194e-01 -2.740263e-01 1.772344e-13 2.740263e-01 5.095194e-01 5.872480e-01 6.558495e-01 6.544881e-01 6.194636e-01 5.194362e-01 4.100503e-01 2.766048e-01 1.589981e-01 5.185395e-02 -2.033560e-02 -6.485082e-02 -6.833503e-02 -4.454836e-02 
-2.746284e-14 1.290755e-02 6.486904e-03 -2.610929e-02 -1.007771e-01 -2.070484e-01 -3.545499e-01 -5.184414e-01 -7.013491e-01 -8.618777e-01 -1.005187e+00 -1.076251e+00 -1.097128e+00 -1.002449e+00 -8.225300e-01 -4.635120e-01 2.931314e-13 4.635120e-01 8.225300e-01 1.002449e+00 1.097128e+00 1.076251e+00 1.005187e+00 8.618777e-01 7.013491e-01 5.184414e-01 3.545499e-01 2.070484e-01 1.007771e-01 2.610929e-02 -6.486904e-03 -1.290755e-02 
-2.416441e-14 -8.463264e-03 -3.528103e-02 -8.801305e-02 -1.835102e-01 -3.131665e-01 -4.878436e-01 -6.805856e-01 -8.946787e-01 -1.082428e+00 -1.249028e+00 -1.333068e+00 -1.352885e+00 -1.240111e+00 -1.015500e+00 -5.827493e-01 2.346582e-13 5.827493e-01 1.015500e+00 1.240111e+00 1.352885e+00 1.333068e+00 1.249028e+00 1.082428e+00 8.946787e-01 6.805856e-01 4.878436e-01 3.131665e-01 1.835102e-01 8.801305e-02 3.528103e-02 8.463264e-03 
