# vtk DataFile Version 2.0
Comment goes here
ASCII

DATASET STRUCTURED_POINTS
FIELD FieldData 1
TIME 1 1 double
0.54000000
DIMENSIONS    32   32   1

ORIGIN    0.000   0.000   0.000
SPACING   0.03125 0.03125   1.000

POINT_DATA   1024
SCALARS uX double
LOOKUP_TABLE default

-1.917370e-15 8.796299e-02 1.717596e-01 2.381661e-01 2.946200e-01 3.129541e-01 3.186615e-01 2.528084e-01 1.774577e-01 -1.161434e-02 -1.747502e-01 -4.535381e-01 -6.137750e-01 -7.858136e-01 -7.327136e-01 -5.315935e-01 -1.263224e-16 5.315935e-01 7.327136e-01 7.858136e-01 6.137750e-01 4.535381e-01 1.747502e-01 1.161434e-02 -1.774577e-01 -2.528084e-01 -3.186615e-01 -3.129541e-01 -2.946200e-01 -2.381661e-01 -1.717596e-01 -8.796299e-02 
2.739048e-15 9.017866e-02 1.760781e-01 2.449799e-01 3.041199e-01 3.273969e-01 3.390069e-01 2.847021e-01 2.217045e-01 5.135008e-02 -9.761265e-02 -3.668967e-01 -5.336111e-01 -7.229432e-01 -6.958793e-01 -5.210510e-01 -6.855708e-15 5.210510e-01 6.958793e-01 7.229432e-01 5.336111e-01 3.668967e-01 9.761265e-02 -5.135008e-02 -2.217045e-01 -2.847021e-01 -3.390069e-01 -3.273969e-01 -3.041199e-01 -2.449799e-01 -1.760781e-01 -9.017866e-02 
8.569824e-16 9.986813e-02 1.944484e-01 2.734987e-01 3.418126e-01 3.810537e-01 4.104899e-01 3.887370e-01 3.654884e-01 2.480465e-01 1.648089e-01 -6.678316e-02 -1.946140e-01 -4.169690e-01 -5.082029e-01 -4.505615e-01 8.274148e-16 4.505615e-01 5.082029e-01 4.169690e-01 1.946140e-01 6.678316e-02 -1.648089e-01 -2.480465e-01 -3.654884e-01 -3.887370e-01 -4.104899e-01 -3.810537e-01 -3.418126e-01 -2.734987e-01 -1.944484e-01 -9.986813e-02 
5.234832e-15 1.133314e-01 2.197872e-01 3.115450e-01 3.913933e-01 4.504593e-01 5.014462e-01 5.214988e-01 5.417321e-01 4.920893e-01 4.769610e-01 2.836384e-01 1.733561e-01 -8.908770e-02 -2.756527e-01 -2.909334e-01 -3.836352e-15 2.909334e-01 2.756527e-01 8.908770e-02 -1.733561e-01 -2.836384e-01 -4.769610e-01 -4.920893e-01 -5.417321e-01 -5.214988e-01 -5.014462e-01 -4.504593e-01 -3.913933e-01 -3.115450e-01 -2.197872e-01 -1.133314e-01 
1.794155e-15 1.335031e-01 2.567035e-01 3.651591e-01 4.571272e-01 5.383683e-01 6.078100e-01 6.727672e-01 7.273135e-01 7.512451e-01 8.250702e-01 6.668074e-01 7.625320e-01 5.349880e-01 2.041865e-01 1.058692e-01 6.242691e-15 -1.058692e-01 -2.041865e-01 -5.349880e-01 -7.625320e-01 -6.668074e-01 -8.250702e-01 -7.512451e-01 -7.273135e-01 -6.727672e-01 -6.078100e-01 -5.383683e-01 -4.571272e-01 -3.651591e-01 -2.567035e-01 -1.335031e-01 
4.907536e-15 1.557403e-01 2.967000e-01 4.194714e-01 5.218122e-01 6.208302e-01 7.095519e-01 8.203284e-01 9.089752e-01 1.027616e+00 1.175516e+00 1.037631e+00 1.092419e+00 7.493941e-01 9.421000e-01 9.329965e-01 -1.336505e-14 -9.329965e-01 -9.421000e-01 -7.493941e-01 -1.092419e+00 -1.037631e+00 -1.175516e+00 -1.027616e+00 -9.089752e-01 -8.203284e-01 -7.095519e-01 -6.208302e-01 -5.218122e-01 -4.194714e-01 -2.967000e-01 -1.557403e-01 
-9.027582e-16 1.823531e-01 3.436398e-01 4.802957e-01 5.894620e-01 7.022177e-01 8.013455e-01 9.555653e-01 1.050538e+00 1.258088e+00 1.310828e+00 1.114700e+00 1.571736e+00 2.039643e+00 2.289343e+00 1.422379e+00 -3.640579e-14 -1.422379e+00 -2.289343e+00 -2.039643e+00 -1.571736e+00 -1.114700e+00 -1.310828e+00 -1.258088e+00 -1.050538e+00 -9.555653e-01 -8.013455e-01 -7.022177e-01 -5.894620e-01 -4.802957e-01 -3.436398e-01 -1.823531e-01 
2.837819e-15 2.036436e-01 3.799868e-01 5.209715e-01 6.299357e-01 7.432511e-01 8.612711e-01 1.053026e+00 1.223995e+00 1.425684e+00 1.497207e+00 2.003954e+00 2.361484e+00 2.190811e+00 1.366738e+00 4.171291e-01 -9.428660e-15 -4.171291e-01 -1.366738e+00 -2.190811e+00 -2.361484e+00 -2.003954e+00 -1.497207e+00 -1.425684e+00 -1.223995e+00 -1.053026e+00 -8.612711e-01 -7.432511e-01 -6.299357e-01 -5.209715e-01 -3.799868e-01 -2.036436e-01 
-1.300233e-15 2.177651e-01 4.039862e-01 5.424503e-01 6.484332e-01 7.560799e-01 9.021277e-01 1.148738e+00 1.274118e+00 1.327557e+00 1.203799e+00 1.402403e+00 4.103638e-01 -3.530125e-01 -6.279836e-01 -3.910370e-01 6.928855e-15 3.910370e-01 6.279836e-01 3.530125e-01 -4.103638e-01 -1.402403e+00 -1.203799e+00 -1.327557e+00 -1.274118e+00 -1.148738e+00 -9.021277e-01 -7.560799e-01 -6.484332e-01 -5.424503e-01 -4.039862e-01 -2.177651e-01 
6.483862e-15 2.083701e-01 3.821125e-01 4.971067e-01 5.774233e-01 6.574636e-01 8.080782e-01 9.997274e-01 6.730995e-01 3.541318e-01 -8.153339e-02 -6.107484e-01 -1.192432e+00 -5.690873e-01 -3.585195e-02 1.146804e-01 2.139403e-14 -1.146804e-01 3.585195e-02 5.690873e-01 1.192432e+00 6.107484e-01 8.153339e-02 -3.541318e-01 -6.730995e-01 -9.997274e-01 -8.080782e-01 -6.574636e-01 -5.774233e-01 -4.971067e-01 -3.821125e-01 -2.083701e-01 
8.548328e-15 1.732967e-01 3.112356e-01 3.844411e-01 4.320198e-01 4.547292e-01 6.098892e-01 2.857010e-01 -5.001044e-01 -6.013800e-01 -8.327457e-01 -9.134093e-01 -4.508051e-01 -2.538204e-02 1.116158e-01 1.432712e-01 1.357613e-14 -1.432712e-01 -1.116158e-01 2.538204e-02 4.508051e-01 9.134093e-01 8.327457e-01 6.013800e-01 5.001044e-01 -2.857010e-01 -6.098892e-01 -4.547292e-01 -4.320198e-01 -3.844411e-01 -3.112356e-01 -1.732967e-01 
2.093355e-14 9.950239e-02 1.612215e-01 1.614497e-01 1.266477e-01 3.519049e-02 -4.587600e-02 -1.015917e+00 -1.182185e+00 -7.348240e-01 -1.123953e+00 -1.085675e+00 -6.264097e-01 -4.954625e-01 -3.993397e-01 -1.648031e-01 1.163072e-14 1.648031e-01 3.993397e-01 4.954625e-01 6.264097e-01 1.085675e+00 1.123953e+00 7.348240e-01 1.182185e+00 1.015917e+00 4.587600e-02 -3.519049e-02 -1.266477e-01 -1.614497e-01 -1.612215e-01 -9.950239e-02 
3.272349e-14 -1.839468e-02 -7.723986e-02 -1.564348e-01 -3.209051e-01 -4.481228e-01 -9.551967e-01 -1.675986e+00 -8.343773e-01 -8.616611e-01 -1.518848e+00 -1.180976e+00 -9.315921e-01 -6.889475e-01 -4.992003e-01 -2.390939e-01 -4.461556e-15 2.390939e-01 4.992003e-01 6.889475e-01 9.315921e-01 1.180976e+00 1.518848e+00 8.616611e-01 8.343773e-01 1.675986e+00 9.551967e-01 4.481228e-01 3.209051e-01 1.564348e-01 7.723986e-02 1.839468e-02 
3.955523e-14 -1.907822e-01 -4.037014e-01 -5.780641e-01 -8.434573e-01 -9.482623e-01 -1.535685e+00 -1.308616e+00 -6.420544e-01 -1.241406e+00 -1.339892e+00 -9.386770e-01 -8.528302e-01 -7.084704e-01 -5.626706e-01 -3.023438e-01 5.575292e-16 3.023438e-01 5.626706e-01 7.084704e-01 8.528302e-01 9.386770e-01 1.339892e+00 1.241406e+00 6.420544e-01 1.308616e+00 1.535685e+00 9.482623e-01 8.434573e-01 5.780641e-01 4.037014e-01 1.907822e-01 
4.719272e-14 -4.334353e-01 -8.293576e-01 -1.139876e+00 -1.397496e+00 -1.556123e+00 -1.785973e+00 -1.253437e+00 -1.271996e+00 -1.515819e+00 -9.214687e-01 -7.183438e-01 -7.169730e-01 -5.670267e-01 -4.663862e-01 -2.497888e-01 -9.666918e-15 2.497888e-01 4.663862e-01 5.670267e-01 7.169730e-01 7.183438e-01 9.214687e-01 1.515819e+00 1.271996e+00 1.253437e+00 1.785973e+00 1.556123e+00 1.397496e+00 1.139876e+00 8.293576e-01 4.334353e-01 
1.896062e-14 -6.799842e-01 -1.212185e+00 -1.577460e+00 -1.707875e+00 -1.886329e+00 -1.637794e+00 -1.354751e+00 -1.745267e+00 -1.374641e+00 -5.066926e-01 -3.232265e-01 -4.219765e-01 -3.551543e-01 -3.394436e-01 -1.856748e-01 -7.224189e-15 1.856748e-01 3.394436e-01 3.551543e-01 4.219765e-01 3.232265e-01 5.066926e-01 1.374641e+00 1.745267e+00 1.354751e+00 1.637794e+00 1.886329e+00 1.707875e+00 1.577460e+00 1.212185e+00 6.799842e-01 
4.232369e-16 -7.978753e-01 -1.378592e+00 -1.737233e+00 -1.795528e+00 -1.969360e+00 -1.499648e+00 -1.296980e+00 -1.799419e+00 -1.200541e+00 -2.881367e-01 -1.552582e-01 -2.875194e-01 -2.607724e-01 -2.740318e-01 -1.504835e-01 -1.249206e-14 1.504835e-01 2.740318e-01 2.607724e-01 2.875194e-01 1.552582e-01 2.881367e-01 1.200541e+00 1.799419e+00 1.296980e+00 1.499648e+00 1.969360e+00 1.795528e+00 1.737233e+00 1.378592e+00 7.978753e-01 
-5.985327e-14 -6.799842e-01 -1.212185e+00 -1.577460e+00 -1.707875e+00 -1.886329e+00 -1.637794e+00 -1.354751e+00 -1.745267e+00 -1.374641e+00 -5.066926e-01 -3.232265e-01 -4.219765e-01 -3.551543e-01 -3.394436e-01 -1.856748e-01 -1.466807e-14 1.856748e-01 3.394436e-01 3.551543e-01 4.219765e-01 3.232265e-01 5.066926e-01 1.374641e+00 1.745267e+00 1.354751e+00 1.637794e+00 1.886329e+00 1.707875e+00 1.577460e+00 1.212185e+00 6.799842e-01 
-4.820416e-14 -4.334353e-01 -8.293576e-01 -1.139876e+00 -1.397496e+00 -1.556123e+00 -1.785973e+00 -1.253437e+00 -1.271996e+00 -1.515819e+00 -9.214687e-01 -7.183438e-01 -7.169730e-01 -5.670267e-01 -4.663862e-01 -2.497888e-01 -1.440701e-14 2.497888e-01 4.663862e-01 5.670267e-01 7.169730e-01 7.183438e-01 9.214687e-01 1.515819e+00 1.271996e+00 1.253437e+00 1.785973e+00 1.556123e+00 1.397496e+00 1.139876e+00 8.293576e-01 4.334353e-01 
-3.778186e-14 -1.907822e-01 -4.037014e-01 -5.780641e-01 -8.434573e-01 -9.482623e-01 -1.535685e+00 -1.308616e+00 -6.420544e-01 -1.241406e+00 -1.339892e+00 -9.386770e-01 -8.528302e-01 -7.084704e-01 -5.626706e-01 -3.023438e-01 -1.681276e-14 3.023438e-01 5.626706e-01 7.084704e-01 8.528302e-01 9.386770e-01 1.339892e+00 1.241406e+00 6.420544e-01 1.308616e+00 1.535685e+00 9.482623e-01 8.434573e-01 5.780641e-01 4.037014e-01 1.907822e-01 
-2.466555e-14 -1.839468e-02 -7.723986e-02 -1.564348e-01 -3.209051e-01 -4.481228e-01 -9.551967e-01 -1.675986e+00 -8.343773e-01 -8.616611e-01 -1.518848e+00 -1.180976e+00 -9.315921e-01 -6.889475e-01 -4.992003e-01 -2.390939e-01 -1.155279e-14 2.390939e-01 4.992003e-01 6.889475e-01 9.315921e-01 1.180976e+00 1.518848e+00 8.616611e-01 8.343773e-01 1.675986e+00 9.551967e-01 4.481228e-01 3.209051e-01 1.564348e-01 7.723986e-02 1.839468e-02 
-7.775658e-15 9.950239e-02 1.612215e-01 1.614497e-01 1.266477e-01 3.519049e-02 -4.587600e-02 -1.015917e+00 -1.182185e+00 -7.348240e-01 -1.123953e+00 -1.085675e+00 -6.264097e-01 -4.954625e-01 -3.993397e-01 -1.648031e-01 -8.986023e-15 1.648031e-01 3.993397e-01 4.954625e-01 6.264097e-01 1.085675e+00 1.123953e+00 7.348240e-01 1.182185e+00 1.015917e+00 4.587600e-02 -3.519049e-02 -1.266477e-01 -1.614497e-01 -1.612215e-01 -9.950239e-02 
-4.722063e-15 1.732967e-01 3.112356e-01 3.844411e-01 4.320198e-01 4.547292e-01 6.098892e-01 2.857010e-01 -5.001044e-01 -6.013800e-01 -8.327457e-01 -9.134093e-01 -4.508051e-01 -2.538204e-02 1.116158e-01 1.432712e-01 2.815491e-14 -1.432712e-01 -1.116158e-01 2.538204e-02 4.508051e-01 9.134093e-01 8.327457e-01 6.013800e-01 5.001044e-01 -2.857010e-01 -6.098892e-01 -4.547292e-01 -4.320198e-01 -3.844411e-01 -3.112356e-01 -1.732967e-01 
3.595169e-15 2.083701e-01 3.821125e-01 4.971067e-01 5.774233e-01 6.574636e-01 8.080782e-01 9.997274e-01 6.730995e-01 3.541318e-01 -8.153339e-02 -6.107484e-01 -1.192432e+00 -5.690873e-01 -3.585195e-02 1.146804e-01 1.332278e-13 -1.146804e-01 3.585195e-02 5.690873e-01 1.192432e+00 6.107484e-01 8.153339e-02 -3.541318e-01 -6.730995e-01 -9.997274e-01 -8.080782e-01 -6.574636e-01 -5.774233e-01 -4.971067e-01 -3.821125e-01 -2.083701e-01 
1.501387e-16 2.177651e-01 4.039862e-01 5.424503e-01 6.484332e-01 7.560799e-01 9.021277e-01 1.148738e+00 1.274118e+00 1.327557e+00 1.203799e+00 1.402403e+00 4.103638e-01 -3.530125e-01 -6.279836e-01 -3.910370e-01 1.373785e-13 3.910370e-01 6.279836e-01 3.530125e-01 -4.103638e-01 -1.402403e+00 -1.203799e+00 -1.327557e+00 -1.274118e+00 -1.148738e+00 -9.021277e-01 -7.560799e-01 -6.484332e-01 -5.424503e-01 -4.039862e-01 -2.177651e-01 
1.630390e-15 2.036436e-01 3.799868e-01 5.209715e-01 6.299357e-01 7.432511e-01 8.612711e-01 1.053026e+00 1.223995e+00 1.425684e+00 1.497207e+00 2.003954e+00 2.361484e+00 2.190811e+00 1.366738e+00 4.171291e-01 -8.004410e-14 -4.171291e-01 -1.366738e+00 -2.190811e+00 -2.361484e+00 -2.003954e+00 -1.497207e+00 -1.425684e+00 -1.223995e+00 -1.053026e+00 -8.612711e-01 -7.432511e-01 -6.299357e-01 -5.209715e-01 -3.799868e-01 -2.036436e-01 
-4.174397e-15 1.823531e-01 3.436398e-01 4.802957e-01 5.894620e-01 7.022177e-01 8.013455e-01 9.555653e-01 1.050538e+00 1.258088e+00 1.310828e+00 1.114700e+00 1.571736e+00 2.039643e+00 2.289343e+00 1.422379e+00 -1.692998e-13 -1.422379e+00 -2.289343e+00 -2.039643e+00 -1.571736e+00 -1.114700e+00 -1.310828e+00 -1.258088e+00 -1.050538e+00 -9.555653e-01 -8.013455e-01 -7.022177e-01 -5.894620e-01 -4.802957e-01 -3.436398e-01 -1.823531e-01 
-2.821989e-15 1.557403e-01 2.967000e-01 4.194714e-01 5.218122e-01 6.208302e-01 7.095519e-01 8.203284e-01 9.089752e-01 1.027616e+00 1.175516e+00 1.037631e+00 1.092419e+00 7.493941e-01 9.421000e-01 9.329965e-01 -4.186267e-14 -9.329965e-01 -9.421000e-01 -7.493941e-01 -1.092419e+00 -1.037631e+00 -1.175516e+00 -1.027616e+00 -9.089752e-01 -8.203284e-01 -7.095519e-01 -6.208302e-01 -5.218122e-01 -4.194714e-01 -2.967000e-01 -1.557403e-01 
-6.543227e-15 1.335031e-01 2.567035e-01 3.651591e-01 4.571272e-01 5.383683e-01 6.078100e-01 6.727672e-01 7.273135e-01 7.512451e-01 8.250702e-01 6.668074e-01 7.625320e-01 5.349880e-01 2.041865e-01 1.058692e-01 3.765599e-14 -1.058692e-01 -2.041865e-01 -5.349880e-01 -7.625320e-01 -6.668074e-01 -8.250702e-01 -7.512451e-01 -7.273135e-01 -6.727672e-01 -6.078100e-01 -5.383683e-01 -4.571272e-01 -3.651591e-01 -2.567035e-01 -1.335031e-01 
-3.865634e-15 1.133314e-01 2.197872e-01 3.115450e-01 3.913933e-01 4.504593e-01 5.014462e-01 5.214988e-01 5.417321e-01 4.920893e-01 4.769610e-01 2.836384e-01 1.733561e-01 -8.908770e-02 -2.756527e-01 -2.909334e-01 2.551765e-14 2.909334e-01 2.756527e-01 8.908770e-02 -1.733561e-01 -2.836384e-01 -4.769610e-01 -4.920893e-01 -5.417321e-01 -5.214988e-01 -5.014462e-01 -4.504593e-01 -3.913933e-01 -3.115450e-01 -2.197872e-01 -1.133314e-01 
-5.288298e-15 9.986813e-02 1.944484e-01 2.734987e-01 3.418126e-01 3.810537e-01 4.104899e-01 3.887370e-01 3.654884e-01 2.480465e-01 1.648089e-01 -6.678316e-02 -1.946140e-01 -4.169690e-01 -5.082029e-01 -4.505615e-01 2.161878e-14 4.505615e-01 5.082029e-01 4.169690e-01 1.946140e-01 6.678316e-02 -1.648089e-01 -2.480465e-01 -3.654884e-01 -3.887370e-01 -4.104899e-01 -3.810537e-01 -3.418126e-01 -2.734987e-01 -1.944484e-01 -9.986813e-02 
-7.452736e-16 9.017866e-02 1.760781e-01 2.449799e-01 3.041199e-01 3.273969e-01 3.390069e-01 2.847021e-01 2.217045e-01 5.135008e-02 -9.761265e-02 -3.668967e-01 -5.336111e-01 -7.229432e-01 -6.958793e-01 -5.210510e-01 4.790214e-15 5.210510e-01 6.958793e-01 7.229432e-01 5.336111e-01 3.668967e-01 9.761265e-02 -5.135008e-02 -2.217045e-01 -2.847021e-01 -3.390069e-01 -3.273969e-01 -3.041199e-01 -2.449799e-01 -1.760781e-01 -9.017866e-02 
