# vtk DataFile Version 2.0
Comment goes here
ASCII

DATASET STRUCTURED_POINTS
FIELD FieldData 1
TIME 1 1 double
0.32000000
DIMENSIONS    32   32   1

ORIGIN    0.000   0.000   0.000
SPACING   0.03125 0.03125   1.000

POINT_DATA   1024
SCALARS uX double
LOOKUP_TABLE default

8.937170e-16 -3.156144e-02 -6.721640e-02 -1.062139e-01 -1.569631e-01 -2.157558e-01 -2.937899e-01 -3.880996e-01 -5.101609e-01 -6.586765e-01 -8.336146e-01 -1.016277e+00 -1.151449e+00 -1.175885e+00 -9.977481e-01 -6.049028e-01 -1.220733e-14 6.049028e-01 9.977481e-01 1.175885e+00 1.151449e+00 1.016277e+00 8.336146e-01 6.586765e-01 5.101609e-01 3.880996e-01 2.937899e-01 2.157558e-01 1.569631e-01 1.062139e-01 6.721640e-02 3.156144e-02 
-1.771237e-16 -2.973805e-02 -6.390142e-02 -1.006136e-01 -1.499545e-01 -2.059534e-01 -2.822839e-01 -3.734964e-01 -4.928808e-01 -6.382530e-01 -8.090333e-01 -9.913973e-01 -1.122181e+00 -1.154165e+00 -9.517916e-01 -5.430547e-01 -6.097835e-15 5.430547e-01 9.517916e-01 1.154165e+00 1.122181e+00 9.913973e-01 8.090333e-01 6.382530e-01 4.928808e-01 3.734964e-01 2.822839e-01 2.059534e-01 1.499545e-01 1.006136e-01 6.390142e-02 2.973805e-02 
2.371937e-15 -2.585838e-02 -5.618905e-02 -8.942587e-02 -1.347886e-01 -1.864259e-01 -2.557018e-01 -3.355860e-01 -4.355087e-01 -5.467383e-01 -6.670612e-01 -7.716110e-01 -8.051996e-01 -7.278145e-01 -5.325637e-01 -3.068563e-01 5.804404e-15 3.068563e-01 5.325637e-01 7.278145e-01 8.051996e-01 7.716110e-01 6.670612e-01 5.467383e-01 4.355087e-01 3.355860e-01 2.557018e-01 1.864259e-01 1.347886e-01 8.942587e-02 5.618905e-02 2.585838e-02 
5.645110e-16 -1.859571e-02 -4.257575e-02 -6.816703e-02 -1.076392e-01 -1.497264e-01 -2.100115e-01 -2.737177e-01 -3.540986e-01 -4.350443e-01 -5.248501e-01 -6.030800e-01 -6.289156e-01 -5.596287e-01 -2.902045e-01 -9.530150e-02 -5.980213e-15 9.530150e-02 2.902045e-01 5.596287e-01 6.289156e-01 6.030800e-01 5.248501e-01 4.350443e-01 3.540986e-01 2.737177e-01 2.100115e-01 1.497264e-01 1.076392e-01 6.816703e-02 4.257575e-02 1.859571e-02 
3.712854e-15 -8.951025e-03 -2.451432e-02 -4.307336e-02 -7.730635e-02 -1.155204e-01 -1.714115e-01 -2.306086e-01 -3.040280e-01 -3.752481e-01 -4.538078e-01 -4.504361e-01 -1.078802e-01 5.481394e-01 8.690751e-01 5.104938e-01 -1.012549e-13 -5.104938e-01 -8.690751e-01 -5.481394e-01 1.078802e-01 4.504361e-01 4.538078e-01 3.752481e-01 3.040280e-01 2.306086e-01 1.714115e-01 1.155204e-01 7.730635e-02 4.307336e-02 2.451432e-02 8.951025e-03 
1.423128e-15 3.437374e-03 -2.504410e-03 -1.131235e-02 -4.091132e-02 -7.013594e-02 -1.212705e-01 -1.691391e-01 -2.331220e-01 -2.726726e-01 -2.409466e-01 1.706971e-01 1.008999e+00 1.291507e+00 7.525327e-01 2.154682e-01 -1.316395e-13 -2.154682e-01 -7.525327e-01 -1.291507e+00 -1.008999e+00 -1.706971e-01 2.409466e-01 2.726726e-01 2.331220e-01 1.691391e-01 1.212705e-01 7.013594e-02 4.091132e-02 1.131235e-02 2.504410e-03 -3.437374e-03 
3.785710e-15 2.097378e-02 2.827064e-02 2.861653e-02 1.408624e-03 -3.042901e-02 -8.773137e-02 -1.570633e-01 -2.412262e-01 -2.287946e-01 -2.120836e-02 4.389329e-01 3.847686e-01 -6.177868e-01 -1.126663e+00 -5.961474e-01 6.491337e-15 5.961474e-01 1.126663e+00 6.177868e-01 -3.847686e-01 -4.389329e-01 2.120836e-02 2.287946e-01 2.412262e-01 1.570633e-01 8.773137e-02 3.042901e-02 -1.408624e-03 -2.861653e-02 -2.827064e-02 -2.097378e-02 
2.548806e-15 4.112626e-02 6.162663e-02 7.067996e-02 4.088241e-02 1.028619e-02 -6.401790e-02 -1.443714e-01 -1.628408e-01 1.899518e-02 2.086889e-01 1.846364e-01 -4.098942e-01 -3.762793e-01 2.468541e-01 3.991418e-01 6.067308e-14 -3.991418e-01 -2.468541e-01 3.762793e-01 4.098942e-01 -1.846364e-01 -2.086889e-01 -1.899518e-02 1.628408e-01 1.443714e-01 6.401790e-02 -1.028619e-02 -4.088241e-02 -7.067996e-02 -6.162663e-02 -4.112626e-02 
-6.582548e-16 7.327104e-02 1.161119e-01 1.403125e-01 1.093315e-01 7.039029e-02 -2.575436e-02 -1.389396e-01 3.350208e-02 2.300381e-02 1.659869e-01 1.078479e-01 1.568833e-01 9.890435e-01 1.283496e+00 7.855726e-01 3.955120e-14 -7.855726e-01 -1.283496e+00 -9.890435e-01 -1.568833e-01 -1.078479e-01 -1.659869e-01 -2.300381e-02 -3.350208e-02 1.389396e-01 2.575436e-02 -7.039029e-02 -1.093315e-01 -1.403125e-01 -1.161119e-01 -7.327104e-02 
3.011914e-15 1.071098e-01 1.734753e-01 2.044340e-01 1.541580e-01 9.573270e-02 -4.522608e-02 -1.863747e-02 1.495979e-01 -3.901474e-02 3.172307e-01 3.155887e-01 4.650296e-01 6.997055e-01 4.863049e-01 2.838785e-01 1.412678e-14 -2.838785e-01 -4.863049e-01 -6.997055e-01 -4.650296e-01 -3.155887e-01 -3.172307e-01 3.901474e-02 -1.495979e-01 1.863747e-02 4.522608e-02 -9.573270e-02 -1.541580e-01 -2.044340e-01 -1.734753e-01 -1.071098e-01 
-6.388851e-15 1.502139e-01 2.539822e-01 3.199076e-01 2.732347e-01 2.705040e-01 1.223064e-01 4.331223e-01 1.696308e-02 3.765597e-01 6.246392e-01 1.026757e-01 2.668970e-01 1.079734e-01 7.668642e-02 4.844810e-02 6.669629e-15 -4.844810e-02 -7.668642e-02 -1.079734e-01 -2.668970e-01 -1.026757e-01 -6.246392e-01 -3.765597e-01 -1.696308e-02 -4.331223e-01 -1.223064e-01 -2.705040e-01 -2.732347e-01 -3.199076e-01 -2.539822e-01 -1.502139e-01 
3.878671e-15 1.747833e-01 3.205453e-01 4.238913e-01 4.166639e-01 3.665007e-01 3.174179e-01 4.496943e-01 -2.116068e-01 5.502293e-01 4.406082e-01 -1.745098e-01 -2.571771e-02 -3.810787e-01 -3.467593e-01 -2.444884e-01 2.338152e-14 2.444884e-01 3.467593e-01 3.810787e-01 2.571771e-02 1.745098e-01 -4.406082e-01 -5.502293e-01 2.116068e-01 -4.496943e-01 -3.174179e-01 -3.665007e-01 -4.166639e-01 -4.238913e-01 -3.205453e-01 -1.747833e-01 
-8.511965e-15 1.668185e-01 3.337302e-01 4.707909e-01 5.220632e-01 4.917135e-01 5.765859e-01 2.328529e-01 3.105186e-01 6.869005e-01 2.154262e-01 -3.308770e-02 -5.913846e-02 -2.956245e-01 -2.892849e-01 -2.178965e-01 5.617906e-15 2.178965e-01 2.892849e-01 2.956245e-01 5.913846e-02 3.308770e-02 -2.154262e-01 -6.869005e-01 -3.105186e-01 -2.328529e-01 -5.765859e-01 -4.917135e-01 -5.220632e-01 -4.707909e-01 -3.337302e-01 -1.668185e-01 
9.485147e-15 9.638123e-02 2.402359e-01 4.089493e-01 5.904253e-01 6.330232e-01 4.860875e-01 -5.263735e-02 5.608814e-01 5.709754e-01 2.017133e-01 2.438815e-01 1.076533e-01 -3.214065e-02 -1.291523e-01 -1.194664e-01 1.652629e-14 1.194664e-01 1.291523e-01 3.214065e-02 -1.076533e-01 -2.438815e-01 -2.017133e-01 -5.709754e-01 -5.608814e-01 5.263735e-02 -4.860875e-01 -6.330232e-01 -5.904253e-01 -4.089493e-01 -2.402359e-01 -9.638123e-02 
1.063295e-15 -4.319856e-02 -1.421419e-02 3.217486e-02 1.427583e-01 1.032821e-01 -3.566562e-02 3.372929e-02 5.800584e-01 3.333607e-01 3.330167e-01 6.506122e-01 3.702732e-01 2.647797e-01 5.684454e-02 2.554298e-03 -2.892366e-15 -2.554298e-03 -5.684454e-02 -2.647797e-01 -3.702732e-01 -6.506122e-01 -3.330167e-01 -3.333607e-01 -5.800584e-01 -3.372929e-02 3.566562e-02 -1.032821e-01 -1.427583e-01 -3.217486e-02 1.421419e-02 4.319856e-02 
2.050618e-14 -3.745041e-01 -6.869016e-01 -9.278616e-01 -9.036247e-01 -6.797271e-01 -8.069557e-02 5.823051e-01 7.440697e-01 2.447846e-01 4.065888e-01 8.541834e-01 6.050262e-01 5.120793e-01 2.322159e-01 1.038226e-01 5.026799e-15 -1.038226e-01 -2.322159e-01 -5.120793e-01 -6.050262e-01 -8.541834e-01 -4.065888e-01 -2.447846e-01 -7.440697e-01 -5.823051e-01 8.069557e-02 6.797271e-01 9.036247e-01 9.278616e-01 6.869016e-01 3.745041e-01 
-5.271569e-15 -6.349772e-01 -1.207138e+00 -1.612393e+00 -1.516440e+00 -9.912734e-01 4.853451e-02 7.130857e-01 5.896024e-01 1.205889e-01 4.396311e-01 9.264093e-01 7.382418e-01 6.384641e-01 3.225668e-01 1.525656e-01 4.803206e-15 -1.525656e-01 -3.225668e-01 -6.384641e-01 -7.382418e-01 -9.264093e-01 -4.396311e-01 -1.205889e-01 -5.896024e-01 -7.130857e-01 -4.853451e-02 9.912734e-01 1.516440e+00 1.612393e+00 1.207138e+00 6.349772e-01 
-1.003193e-14 -3.745041e-01 -6.869016e-01 -9.278616e-01 -9.036247e-01 -6.797271e-01 -8.069557e-02 5.823051e-01 7.440697e-01 2.447846e-01 4.065888e-01 8.541834e-01 6.050262e-01 5.120793e-01 2.322159e-01 1.038226e-01 -6.088227e-16 -1.038226e-01 -2.322159e-01 -5.120793e-01 -6.050262e-01 -8.541834e-01 -4.065888e-01 -2.447846e-01 -7.440697e-01 -5.823051e-01 8.069557e-02 6.797271e-01 9.036247e-01 9.278616e-01 6.869016e-01 3.745041e-01 
4.292891e-15 -4.319856e-02 -1.421419e-02 3.217486e-02 1.427583e-01 1.032821e-01 -3.566562e-02 3.372929e-02 5.800584e-01 3.333607e-01 3.330167e-01 6.506122e-01 3.702732e-01 2.647797e-01 5.684454e-02 2.554298e-03 1.845784e-14 -2.554298e-03 -5.684454e-02 -2.647797e-01 -3.702732e-01 -6.506122e-01 -3.330167e-01 -3.333607e-01 -5.800584e-01 -3.372929e-02 3.566562e-02 -1.032821e-01 -1.427583e-01 -3.217486e-02 1.421419e-02 4.319856e-02 
-5.202644e-15 9.638123e-02 2.402359e-01 4.089493e-01 5.904253e-01 6.330232e-01 4.860875e-01 -5.263735e-02 5.608814e-01 5.709754e-01 2.017133e-01 2.438815e-01 1.076533e-01 -3.214065e-02 -1.291523e-01 -1.194664e-01 5.294600e-15 1.194664e-01 1.291523e-01 3.214065e-02 -1.076533e-01 -2.438815e-01 -2.017133e-01 -5.709754e-01 -5.608814e-01 5.263735e-02 -4.860875e-01 -6.330232e-01 -5.904253e-01 -4.089493e-01 -2.402359e-01 -9.638123e-02 
8.995317e-15 1.668185e-01 3.337302e-01 4.707909e-01 5.220632e-01 4.917135e-01 5.765859e-01 2.328529e-01 3.105186e-01 6.869005e-01 2.154262e-01 -3.308770e-02 -5.913846e-02 -2.956245e-01 -2.892849e-01 -2.178965e-01 2.618068e-14 2.178965e-01 2.892849e-01 2.956245e-01 5.913846e-02 3.308770e-02 -2.154262e-01 -6.869005e-01 -3.105186e-01 -2.328529e-01 -5.765859e-01 -4.917135e-01 -5.220632e-01 -4.707909e-01 -3.337302e-01 -1.668185e-01 
-4.421782e-15 1.747833e-01 3.205453e-01 4.238913e-01 4.166639e-01 3.665007e-01 3.174179e-01 4.496943e-01 -2.116068e-01 5.502293e-01 4.406082e-01 -1.745098e-01 -2.571771e-02 -3.810787e-01 -3.467593e-01 -2.444884e-01 2.576469e-14 2.444884e-01 3.467593e-01 3.810787e-01 2.571771e-02 1.745098e-01 -4.406082e-01 -5.502293e-01 2.116068e-01 -4.496943e-01 -3.174179e-01 -3.665007e-01 -4.166639e-01 -4.238913e-01 -3.205453e-01 -1.747833e-01 
5.325666e-15 1.502139e-01 2.539822e-01 3.199076e-01 2.732347e-01 2.705040e-01 1.223064e-01 4.331223e-01 1.696308e-02 3.765597e-01 6.246392e-01 1.026757e-01 2.668970e-01 1.079734e-01 7.668642e-02 4.844810e-02 6.044221e-14 -4.844810e-02 -7.668642e-02 -1.079734e-01 -2.668970e-01 -1.026757e-01 -6.246392e-01 -3.765597e-01 -1.696308e-02 -4.331223e-01 -1.223064e-01 -2.705040e-01 -2.732347e-01 -3.199076e-01 -2.539822e-01 -1.502139e-01 
-3.551940e-15 1.071098e-01 1.734753e-01 2.044340e-01 1.541580e-01 9.573270e-02 -4.522608e-02 -1.863747e-02 1.495979e-01 -3.901474e-02 3.172307e-01 3.155887e-01 4.650296e-01 6.997055e-01 4.863049e-01 2.838785e-01 7.598726e-14 -2.838785e-01 -4.863049e-01 -6.997055e-01 -4.650296e-01 -3.155887e-01 -3.172307e-01 3.901474e-02 -1.495979e-01 1.863747e-02 4.522608e-02 -9.573270e-02 -1.541580e-01 -2.044340e-01 -1.734753e-01 -1.071098e-01 
1.893089e-15 7.327104e-02 1.161119e-01 1.403125e-01 1.093315e-01 7.039029e-02 -2.575436e-02 -1.389396e-01 3.350208e-02 2.300381e-02 1.659869e-01 1.078479e-01 1.568833e-01 9.890435e-01 1.283496e+00 7.855726e-01 3.651652e-14 -7.855726e-01 -1.283496e+00 -9.890435e-01 -1.568833e-01 -1.078479e-01 -1.659869e-01 -2.300381e-02 -3.350208e-02 1.389396e-01 2.575436e-02 -7.039029e-02 -1.093315e-01 -1.403125e-01 -1.161119e-01 -7.327104e-02 
-3.549779e-15 4.112626e-02 6.162663e-02 7.067996e-02 4.088241e-02 1.028619e-02 -6.401790e-02 -1.443714e-01 -1.628408e-01 1.899518e-02 2.086889e-01 1.846364e-01 -4.098942e-01 -3.762793e-01 2.468541e-01 3.991418e-01 -6.047313e-14 -3.991418e-01 -2.468541e-01 3.762793e-01 4.098942e-01 -1.846364e-01 -2.086889e-01 -1.899518e-02 1.628408e-01 1.443714e-01 6.401790e-02 -1.028619e-02 -4.088241e-02 -7.067996e-02 -6.162663e-02 -4.112626e-02 
-9.983509e-16 2.097378e-02 2.827064e-02 2.861653e-02 1.408624e-03 -3.042901e-02 -8.773137e-02 -1.570633e-01 -2.412262e-01 -2.287946e-01 -2.120836e-02 4.389329e-01 3.847686e-01 -6.177868e-01 -1.126663e+00 -5.961474e-01 -1.692425e-13 5.961474e-01 1.126663e+00 6.177868e-01 -3.847686e-01 -4.389329e-01 2.120836e-02 2.287946e-01 2.412262e-01 1.570633e-01 8.773137e-02 3.042901e-02 -1.408624e-03 -2.861653e-02 -2.827064e-02 -2.097378e-02 
-3.213828e-15 3.437374e-03 -2.504410e-03 -1.131235e-02 -4.091132e-02 -7.013594e-02 -1.212705e-01 -1.691391e-01 -2.331220e-01 -2.726726e-01 -2.409466e-01 1.706971e-01 1.008999e+00 1.291507e+00 7.525327e-01 2.154682e-01 -3.309975e-14 -2.154682e-01 -7.525327e-01 -1.291507e+00 -1.008999e+00 -1.706971e-01 2.409466e-01 2.726726e-01 2.331220e-01 1.691391e-01 1.212705e-01 7.013594e-02 4.091132e-02 1.131235e-02 2.504410e-03 -3.437374e-03 
-1.559070e-15 -8.951025e-03 -2.451432e-02 -4.307336e-02 -7.730635e-02 -1.155204e-01 -1.714115e-01 -2.306086e-01 -3.040280e-01 -3.752481e-01 -4.538078e-01 -4.504361e-01 -1.078802e-01 5.481394e-01 8.690751e-01 5.104938e-01 8.851393e-14 -5.104938e-01 -8.690751e-01 -5.481394e-01 1.078802e-01 4.504361e-01 4.538078e-01 3.752481e-01 3.040280e-01 2.306086e-01 1.714115e-01 1.155204e-01 7.730635e-02 4.307336e-02 2.451432e-02 8.951025e-03 
-1.928766e-15 -1.859571e-02 -4.257575e-02 -6.816703e-02 -1.076392e-01 -1.497264e-01 -2.100115e-01 -2.737177e-01 -3.540986e-01 -4.350443e-01 -5.248501e-01 -6.030800e-01 -6.289156e-01 -5.596287e-01 -2.902045e-01 -9.530150e-02 2.968989e-14 9.530150e-02 2.902045e-01 5.596287e-01 6.289156e-01 6.030800e-01 5.248501e-01 4.350443e-01 3.540986e-01 2.737177e-01 2.100115e-01 1.497264e-01 1.076392e-01 6.816703e-02 4.257575e-02 1.859571e-02 
-6.226799e-16 -2.585838e-02 -5.618905e-02 -8.942587e-02 -1.347886e-01 -1.864259e-01 -2.557018e-01 -3.355860e-01 -4.355087e-01 -5.467383e-01 -6.670612e-01 -7.716110e-01 -8.051996e-01 -7.278145e-01 -5.325637e-01 -3.068563e-01 -5.127998e-15 3.068563e-01 5.325637e-01 7.278145e-01 8.051996e-01 7.716110e-01 6.670612e-01 5.467383e-01 4.355087e-01 3.355860e-01 2.557018e-01 1.864259e-01 1.347886e-01 8.942587e-02 5.618905e-02 2.585838e-02 
-5.034007e-16 -2.973805e-02 -6.390142e-02 -1.006136e-01 -1.499545e-01 -2.059534e-01 -2.822839e-01 -3.734964e-01 -4.928808e-01 -6.382530e-01 -8.090333e-01 -9.913973e-01 -1.122181e+00 -1.154165e+00 -9.517916e-01 -5.430547e-01 -9.734499e-15 5.430547e-01 9.517916e-01 1.154165e+00 1.122181e+00 9.913973e-01 8.090333e-01 6.382530e-01 4.928808e-01 3.734964e-01 2.822839e-01 2.059534e-01 1.499545e-01 1.006136e-01 6.390142e-02 2.973805e-02 
