# vtk DataFile Version 2.0
Comment goes here
ASCII

DATASET STRUCTURED_POINTS
FIELD FieldData 1
TIME 1 1 double
0.36000000
DIMENSIONS    32   32   1

ORIGIN    0.000   0.000   0.000
SPACING   0.03125 0.03125   1.000

POINT_DATA   1024
SCALARS uX double
LOOKUP_TABLE default

1.142354e-15 1.253525e-01 2.479078e-01 3.672843e-01 4.765894e-01 5.759465e-01 6.496463e-01 6.980653e-01 6.857195e-01 6.239094e-01 4.487218e-01 2.244113e-01 -9.710779e-02 -3.334064e-01 -4.701431e-01 -3.484607e-01 -3.801982e-14 3.484607e-01 4.701431e-01 3.334064e-01 9.710779e-02 -2.244113e-01 -4.487218e-01 -6.239094e-01 -6.857195e-01 -6.980653e-01 -6.496463e-01 -5.759465e-01 -4.765894e-01 -3.672843e-01 -2.479078e-01 -1.253525e-01 
2.726194e-15 1.282266e-01 2.541944e-01 3.772604e-01 4.925598e-01 5.983410e-01 6.844642e-01 7.451045e-01 7.573961e-01 7.173787e-01 5.802488e-01 3.788440e-01 7.741200e-02 -1.710910e-01 -4.162080e-01 -3.449787e-01 -2.352925e-14 3.449787e-01 4.162080e-01 1.710910e-01 -7.741200e-02 -3.788440e-01 -5.802488e-01 -7.173787e-01 -7.573961e-01 -7.451045e-01 -6.844642e-01 -5.983410e-01 -4.925598e-01 -3.772604e-01 -2.541944e-01 -1.282266e-01 
3.038783e-15 1.295524e-01 2.570130e-01 3.828909e-01 5.025692e-01 6.167232e-01 7.161290e-01 7.985710e-01 8.411954e-01 8.470539e-01 7.541153e-01 6.023288e-01 3.070594e-01 7.531893e-02 -1.400163e-01 -1.788094e-01 -1.342786e-14 1.788094e-01 1.400163e-01 -7.531893e-02 -3.070594e-01 -6.023288e-01 -7.541153e-01 -8.470539e-01 -8.411954e-01 -7.985710e-01 -7.161290e-01 -6.167232e-01 -5.025692e-01 -3.828909e-01 -2.570130e-01 -1.295524e-01 
5.024576e-15 1.350680e-01 2.685607e-01 4.022976e-01 5.339851e-01 6.654443e-01 7.957162e-01 9.172641e-01 1.029263e+00 1.113171e+00 1.139420e+00 1.075625e+00 9.176003e-01 6.231497e-01 -1.562949e-02 -1.252066e-01 2.829932e-15 1.252066e-01 1.562949e-02 -6.231497e-01 -9.176003e-01 -1.075625e+00 -1.139420e+00 -1.113171e+00 -1.029263e+00 -9.172641e-01 -7.957162e-01 -6.654443e-01 -5.339851e-01 -4.022976e-01 -2.685607e-01 -1.350680e-01 
4.197340e-15 1.383077e-01 2.747781e-01 4.128694e-01 5.522347e-01 6.978692e-01 8.562830e-01 1.017889e+00 1.199403e+00 1.374409e+00 1.494913e+00 1.479405e+00 1.177130e+00 9.672217e-01 1.067133e+00 1.052653e+00 2.874240e-14 -1.052653e+00 -1.067133e+00 -9.672217e-01 -1.177130e+00 -1.479405e+00 -1.494913e+00 -1.374409e+00 -1.199403e+00 -1.017889e+00 -8.562830e-01 -6.978692e-01 -5.522347e-01 -4.128694e-01 -2.747781e-01 -1.383077e-01 
5.997107e-15 1.422689e-01 2.806470e-01 4.221133e-01 5.649892e-01 7.238624e-01 9.075679e-01 1.111000e+00 1.380579e+00 1.673657e+00 1.944283e+00 1.968542e+00 2.410343e+00 3.223198e+00 3.221401e+00 2.075084e+00 -2.861413e-14 -2.075084e+00 -3.221401e+00 -3.223198e+00 -2.410343e+00 -1.968542e+00 -1.944283e+00 -1.673657e+00 -1.380579e+00 -1.111000e+00 -9.075679e-01 -7.238624e-01 -5.649892e-01 -4.221133e-01 -2.806470e-01 -1.422689e-01 
3.901861e-15 1.439155e-01 2.798423e-01 4.167840e-01 5.534887e-01 7.132762e-01 9.161506e-01 1.157480e+00 1.582932e+00 2.038318e+00 2.475805e+00 2.867693e+00 3.252350e+00 2.743441e+00 1.352206e+00 4.107006e-01 -1.639771e-13 -4.107006e-01 -1.352206e+00 -2.743441e+00 -3.252350e+00 -2.867693e+00 -2.475805e+00 -2.038318e+00 -1.582932e+00 -1.157480e+00 -9.161506e-01 -7.132762e-01 -5.534887e-01 -4.167840e-01 -2.798423e-01 -1.439155e-01 
4.897325e-15 1.437606e-01 2.711142e-01 3.955915e-01 5.068368e-01 6.546860e-01 8.453551e-01 1.125550e+00 1.707391e+00 2.006186e+00 1.992311e+00 1.651083e+00 6.564769e-01 -7.205325e-01 -8.325796e-01 -4.291917e-01 -1.185952e-13 4.291917e-01 8.325796e-01 7.205325e-01 -6.564769e-01 -1.651083e+00 -1.992311e+00 -2.006186e+00 -1.707391e+00 -1.125550e+00 -8.453551e-01 -6.546860e-01 -5.068368e-01 -3.955915e-01 -2.711142e-01 -1.437606e-01 
2.322401e-15 1.424758e-01 2.570156e-01 3.573389e-01 4.224668e-01 5.326707e-01 6.749241e-01 9.775774e-01 1.436713e+00 8.903509e-01 4.752377e-01 -3.116401e-01 -1.067167e+00 -7.167605e-01 2.093091e-02 9.887234e-02 4.421386e-14 -9.887234e-02 -2.093091e-02 7.167605e-01 1.067167e+00 3.116401e-01 -4.752377e-01 -8.903509e-01 -1.436713e+00 -9.775774e-01 -6.749241e-01 -5.326707e-01 -4.224668e-01 -3.573389e-01 -2.570156e-01 -1.424758e-01 
3.251443e-15 1.347699e-01 2.298692e-01 2.948273e-01 2.911677e-01 3.554925e-01 3.905180e-01 7.415301e-01 4.823375e-01 -2.731040e-01 -4.320943e-01 -8.138427e-01 -1.064808e+00 -3.113488e-01 -9.876844e-02 -6.914747e-02 7.443018e-14 6.914747e-02 9.876844e-02 3.113488e-01 1.064808e+00 8.138427e-01 4.320943e-01 2.731040e-01 -4.823375e-01 -7.415301e-01 -3.905180e-01 -3.554925e-01 -2.911677e-01 -2.948273e-01 -2.298692e-01 -1.347699e-01 
-1.394344e-16 1.204467e-01 1.951324e-01 2.216382e-01 1.491883e-01 1.481675e-01 5.011333e-02 2.508171e-01 -7.303243e-01 -7.596720e-01 -1.049059e+00 -1.726329e+00 -1.214548e+00 -7.269834e-01 -4.710322e-01 -2.665007e-01 2.748161e-14 2.665007e-01 4.710322e-01 7.269834e-01 1.214548e+00 1.726329e+00 1.049059e+00 7.596720e-01 7.303243e-01 -2.508171e-01 -5.011333e-02 -1.481675e-01 -1.491883e-01 -2.216382e-01 -1.951324e-01 -1.204467e-01 
3.164808e-15 8.159031e-02 1.249688e-01 8.838111e-02 -3.804312e-02 -1.956536e-01 -3.703857e-01 -6.414307e-01 -1.376385e+00 -1.058500e+00 -1.792239e+00 -2.209005e+00 -1.116082e+00 -1.101070e+00 -6.696853e-01 -4.193884e-01 2.123516e-14 4.193884e-01 6.696853e-01 1.101070e+00 1.116082e+00 2.209005e+00 1.792239e+00 1.058500e+00 1.376385e+00 6.414307e-01 3.703857e-01 1.956536e-01 3.804312e-02 -8.838111e-02 -1.249688e-01 -8.159031e-02 
4.341383e-16 1.491460e-02 5.060436e-03 -9.689522e-02 -2.502820e-01 -5.244833e-01 -7.342710e-01 -1.339036e+00 -1.541663e+00 -1.481321e+00 -2.134364e+00 -1.896387e+00 -1.180477e+00 -1.246735e+00 -8.162601e-01 -5.076396e-01 8.784236e-15 5.076396e-01 8.162601e-01 1.246735e+00 1.180477e+00 1.896387e+00 2.134364e+00 1.481321e+00 1.541663e+00 1.339036e+00 7.342710e-01 5.244833e-01 2.502820e-01 9.689522e-02 -5.060436e-03 -1.491460e-02 
9.161376e-15 -1.105257e-01 -2.282240e-01 -4.102047e-01 -6.138806e-01 -9.774959e-01 -1.316010e+00 -1.882495e+00 -1.869003e+00 -1.995803e+00 -2.139912e+00 -1.519893e+00 -1.216526e+00 -1.079107e+00 -7.591920e-01 -4.559937e-01 1.054112e-14 4.559937e-01 7.591920e-01 1.079107e+00 1.216526e+00 1.519893e+00 2.139912e+00 1.995803e+00 1.869003e+00 1.882495e+00 1.316010e+00 9.774959e-01 6.138806e-01 4.102047e-01 2.282240e-01 1.105257e-01 
7.055965e-15 -3.271198e-01 -6.377847e-01 -9.439737e-01 -1.195874e+00 -1.515949e+00 -1.802990e+00 -2.087772e+00 -1.979059e+00 -2.084766e+00 -1.668150e+00 -9.527109e-01 -9.719422e-01 -7.663609e-01 -6.056416e-01 -3.446001e-01 -3.275290e-15 3.446001e-01 6.056416e-01 7.663609e-01 9.719422e-01 9.527109e-01 1.668150e+00 2.084766e+00 1.979059e+00 2.087772e+00 1.802990e+00 1.515949e+00 1.195874e+00 9.439737e-01 6.377847e-01 3.271198e-01 
1.263940e-14 -6.551586e-01 -1.201130e+00 -1.570267e+00 -1.737615e+00 -1.824677e+00 -1.937225e+00 -2.116523e+00 -2.111579e+00 -2.182986e+00 -1.292018e+00 -5.313540e-01 -6.644156e-01 -4.631985e-01 -4.293382e-01 -2.311773e-01 2.708121e-15 2.311773e-01 4.293382e-01 4.631985e-01 6.644156e-01 5.313540e-01 1.292018e+00 2.182986e+00 2.111579e+00 2.116523e+00 1.937225e+00 1.824677e+00 1.737615e+00 1.570267e+00 1.201130e+00 6.551586e-01 
-8.072877e-15 -8.503383e-01 -1.510022e+00 -1.868589e+00 -1.944172e+00 -1.912494e+00 -2.002324e+00 -2.249117e+00 -2.304115e+00 -2.272654e+00 -1.145717e+00 -3.491319e-01 -5.077025e-01 -3.248762e-01 -3.444967e-01 -1.808920e-01 -2.452998e-15 1.808920e-01 3.444967e-01 3.248762e-01 5.077025e-01 3.491319e-01 1.145717e+00 2.272654e+00 2.304115e+00 2.249117e+00 2.002324e+00 1.912494e+00 1.944172e+00 1.868589e+00 1.510022e+00 8.503383e-01 
-2.050025e-14 -6.551586e-01 -1.201130e+00 -1.570267e+00 -1.737615e+00 -1.824677e+00 -1.937225e+00 -2.116523e+00 -2.111579e+00 -2.182986e+00 -1.292018e+00 -5.313540e-01 -6.644156e-01 -4.631985e-01 -4.293382e-01 -2.311773e-01 -5.116649e-15 2.311773e-01 4.293382e-01 4.631985e-01 6.644156e-01 5.313540e-01 1.292018e+00 2.182986e+00 2.111579e+00 2.116523e+00 1.937225e+00 1.824677e+00 1.737615e+00 1.570267e+00 1.201130e+00 6.551586e-01 
-8.481398e-15 -3.271198e-01 -6.377847e-01 -9.439737e-01 -1.195874e+00 -1.515949e+00 -1.802990e+00 -2.087772e+00 -1.979059e+00 -2.084766e+00 -1.668150e+00 -9.527109e-01 -9.719422e-01 -7.663609e-01 -6.056416e-01 -3.446001e-01 6.820846e-15 3.446001e-01 6.056416e-01 7.663609e-01 9.719422e-01 9.527109e-01 1.668150e+00 2.084766e+00 1.979059e+00 2.087772e+00 1.802990e+00 1.515949e+00 1.195874e+00 9.439737e-01 6.377847e-01 3.271198e-01 
-9.064225e-15 -1.105257e-01 -2.282240e-01 -4.102047e-01 -6.138806e-01 -9.774959e-01 -1.316010e+00 -1.882495e+00 -1.869003e+00 -1.995803e+00 -2.139912e+00 -1.519893e+00 -1.216526e+00 -1.079107e+00 -7.591920e-01 -4.559937e-01 -2.186432e-15 4.559937e-01 7.591920e-01 1.079107e+00 1.216526e+00 1.519893e+00 2.139912e+00 1.995803e+00 1.869003e+00 1.882495e+00 1.316010e+00 9.774959e-01 6.138806e-01 4.102047e-01 2.282240e-01 1.105257e-01 
-1.465896e-15 1.491460e-02 5.060436e-03 -9.689522e-02 -2.502820e-01 -5.244833e-01 -7.342710e-01 -1.339036e+00 -1.541663e+00 -1.481321e+00 -2.134364e+00 -1.896387e+00 -1.180477e+00 -1.246735e+00 -8.162601e-01 -5.076396e-01 2.055981e-14 5.076396e-01 8.162601e-01 1.246735e+00 1.180477e+00 1.896387e+00 2.134364e+00 1.481321e+00 1.541663e+00 1.339036e+00 7.342710e-01 5.244833e-01 2.502820e-01 9.689522e-02 -5.060436e-03 -1.491460e-02 
-7.524446e-15 8.159031e-02 1.249688e-01 8.838111e-02 -3.804312e-02 -1.956536e-01 -3.703857e-01 -6.414307e-01 -1.376385e+00 -1.058500e+00 -1.792239e+00 -2.209005e+00 -1.116082e+00 -1.101070e+00 -6.696853e-01 -4.193884e-01 2.328544e-14 4.193884e-01 6.696853e-01 1.101070e+00 1.116082e+00 2.209005e+00 1.792239e+00 1.058500e+00 1.376385e+00 6.414307e-01 3.703857e-01 1.956536e-01 3.804312e-02 -8.838111e-02 -1.249688e-01 -8.159031e-02 
-3.053551e-15 1.204467e-01 1.951324e-01 2.216382e-01 1.491883e-01 1.481675e-01 5.011333e-02 2.508171e-01 -7.303243e-01 -7.596720e-01 -1.049059e+00 -1.726329e+00 -1.214548e+00 -7.269834e-01 -4.710322e-01 -2.665007e-01 4.786692e-14 2.665007e-01 4.710322e-01 7.269834e-01 1.214548e+00 1.726329e+00 1.049059e+00 7.596720e-01 7.303243e-01 -2.508171e-01 -5.011333e-02 -1.481675e-01 -1.491883e-01 -2.216382e-01 -1.951324e-01 -1.204467e-01 
-7.992026e-15 1.347699e-01 2.298692e-01 2.948273e-01 2.911677e-01 3.554925e-01 3.905180e-01 7.415301e-01 4.823375e-01 -2.731040e-01 -4.320943e-01 -8.138427e-01 -1.064808e+00 -3.113488e-01 -9.876844e-02 -6.914747e-02 2.232265e-14 6.914747e-02 9.876844e-02 3.113488e-01 1.064808e+00 8.138427e-01 4.320943e-01 2.731040e-01 -4.823375e-01 -7.415301e-01 -3.905180e-01 -3.554925e-01 -2.911677e-01 -2.948273e-01 -2.298692e-01 -1.347699e-01 
-4.319141e-15 1.424758e-01 2.570156e-01 3.573389e-01 4.224668e-01 5.326707e-01 6.749241e-01 9.775774e-01 1.436713e+00 8.903509e-01 4.752377e-01 -3.116401e-01 -1.067167e+00 -7.167605e-01 2.093091e-02 9.887234e-02 -3.805989e-14 -9.887234e-02 -2.093091e-02 7.167605e-01 1.067167e+00 3.116401e-01 -4.752377e-01 -8.903509e-01 -1.436713e+00 -9.775774e-01 -6.749241e-01 -5.326707e-01 -4.224668e-01 -3.573389e-01 -2.570156e-01 -1.424758e-01 
-6.641152e-15 1.437606e-01 2.711142e-01 3.955915e-01 5.068368e-01 6.546860e-01 8.453551e-01 1.125550e+00 1.707391e+00 2.006186e+00 1.992311e+00 1.651083e+00 6.564769e-01 -7.205325e-01 -8.325796e-01 -4.291917e-01 -5.707984e-15 4.291917e-01 8.325796e-01 7.205325e-01 -6.564769e-01 -1.651083e+00 -1.992311e+00 -2.006186e+00 -1.707391e+00 -1.125550e+00 -8.453551e-01 -6.546860e-01 -5.068368e-01 -3.955915e-01 -2.711142e-01 -1.437606e-01 
-4.387078e-15 1.439155e-01 2.798423e-01 4.167840e-01 5.534887e-01 7.132762e-01 9.161506e-01 1.157480e+00 1.582932e+00 2.038318e+00 2.475805e+00 2.867693e+00 3.252350e+00 2.743441e+00 1.352206e+00 4.107006e-01 9.597393e-14 -4.107006e-01 -1.352206e+00 -2.743441e+00 -3.252350e+00 -2.867693e+00 -2.475805e+00 -2.038318e+00 -1.582932e+00 -1.157480e+00 -9.161506e-01 -7.132762e-01 -5.534887e-01 -4.167840e-01 -2.798423e-01 -1.439155e-01 
-5.469255e-15 1.422689e-01 2.806470e-01 4.221133e-01 5.649892e-01 7.238624e-01 9.075679e-01 1.111000e+00 1.380579e+00 1.673657e+00 1.944283e+00 1.968542e+00 2.410343e+00 3.223198e+00 3.221401e+00 2.075084e+00 1.082560e-13 -2.075084e+00 -3.221401e+00 -3.223198e+00 -2.410343e+00 -1.968542e+00 -1.944283e+00 -1.673657e+00 -1.380579e+00 -1.111000e+00 -9.075679e-01 -7.238624e-01 -5.649892e-01 -4.221133e-01 -2.806470e-01 -1.422689e-01 
-3.536884e-15 1.383077e-01 2.747781e-01 4.128694e-01 5.522347e-01 6.978692e-01 8.562830e-01 1.017889e+00 1.199403e+00 1.374409e+00 1.494913e+00 1.479405e+00 1.177130e+00 9.672217e-01 1.067133e+00 1.052653e+00 3.134272e-14 -1.052653e+00 -1.067133e+00 -9.672217e-01 -1.177130e+00 -1.479405e+00 -1.494913e+00 -1.374409e+00 -1.199403e+00 -1.017889e+00 -8.562830e-01 -6.978692e-01 -5.522347e-01 -4.128694e-01 -2.747781e-01 -1.383077e-01 
-2.753872e-15 1.350680e-01 2.685607e-01 4.022976e-01 5.339851e-01 6.654443e-01 7.957162e-01 9.172641e-01 1.029263e+00 1.113171e+00 1.139420e+00 1.075625e+00 9.176003e-01 6.231497e-01 -1.562949e-02 -1.252066e-01 -4.501613e-14 1.252066e-01 1.562949e-02 -6.231497e-01 -9.176003e-01 -1.075625e+00 -1.139420e+00 -1.113171e+00 -1.029263e+00 -9.172641e-01 -7.957162e-01 -6.654443e-01 -5.339851e-01 -4.022976e-01 -2.685607e-01 -1.350680e-01 
-1.386979e-15 1.295524e-01 2.570130e-01 3.828909e-01 5.025692e-01 6.167232e-01 7.161290e-01 7.985710e-01 8.411954e-01 8.470539e-01 7.541153e-01 6.023288e-01 3.070594e-01 7.531893e-02 -1.400163e-01 -1.788094e-01 -6.532382e-14 1.788094e-01 1.400163e-01 -7.531893e-02 -3.070594e-01 -6.023288e-01 -7.541153e-01 -8.470539e-01 -8.411954e-01 -7.985710e-01 -7.161290e-01 -6.167232e-01 -5.025692e-01 -3.828909e-01 -2.570130e-01 -1.295524e-01 
9.304267e-16 1.282266e-01 2.541944e-01 3.772604e-01 4.925598e-01 5.983410e-01 6.844642e-01 7.451045e-01 7.573961e-01 7.173787e-01 5.802488e-01 3.788440e-01 7.741200e-02 -1.710910e-01 -4.162080e-01 -3.449787e-01 -4.899538e-14 3.449787e-01 4.162080e-01 1.710910e-01 -7.741200e-02 -3.788440e-01 -5.802488e-01 -7.173787e-01 -7.573961e-01 -7.451045e-01 -6.844642e-01 -5.983410e-01 -4.925598e-01 -3.772604e-01 -2.541944e-01 -1.282266e-01 
