# vtk DataFile Version 2.0
Comment goes here
ASCII

DATASET STRUCTURED_POINTS
FIELD FieldData 1
TIME 1 1 double
1.34000000
DIMENSIONS    32   32   1

ORIGIN    0.000   0.000   0.000
SPACING   0.03125 0.03125   1.000

POINT_DATA   1024
SCALARS uX double
LOOKUP_TABLE default

-1.263879e-13 5.718845e-03 -5.504088e-03 -4.617217e-02 -1.246069e-01 -2.433326e-01 -3.940237e-01 -5.738138e-01 -7.523029e-01 -9.308972e-01 -1.057371e+00 -1.147774e+00 -1.133434e+00 -1.042232e+00 -8.075514e-01 -4.506171e-01 7.795776e-13 4.506171e-01 8.075514e-01 1.042232e+00 1.133434e+00 1.147774e+00 1.057371e+00 9.308972e-01 7.523029e-01 5.738138e-01 3.940237e-01 2.433326e-01 1.246069e-01 4.617217e-02 5.504088e-03 -5.718845e-03 
-1.919334e-13 1.142674e-02 5.970508e-03 -2.955215e-02 -1.022334e-01 -2.155089e-01 -3.600199e-01 -5.333816e-01 -7.064444e-01 -8.783545e-01 -1.002385e+00 -1.088472e+00 -1.077941e+00 -9.932269e-01 -7.729458e-01 -4.330295e-01 2.203857e-13 4.330295e-01 7.729458e-01 9.932269e-01 1.077941e+00 1.088472e+00 1.002385e+00 8.783545e-01 7.064444e-01 5.333816e-01 3.600199e-01 2.155089e-01 1.022334e-01 2.955215e-02 -5.970508e-03 -1.142674e-02 
-2.380872e-13 3.395983e-02 5.003405e-02 3.747811e-02 -1.330271e-02 -1.005421e-01 -2.188741e-01 -3.623859e-01 -5.053670e-01 -6.499432e-01 -7.476038e-01 -8.250998e-01 -8.156133e-01 -7.736029e-01 -6.174212e-01 -3.540182e-01 -2.510056e-13 3.540182e-01 6.174212e-01 7.736029e-01 8.156133e-01 8.250998e-01 7.476038e-01 6.499432e-01 5.053670e-01 3.623859e-01 2.188741e-01 1.005421e-01 1.330271e-02 -3.747811e-02 -5.003405e-02 -3.395983e-02 
-2.791585e-13 6.295543e-02 1.069443e-01 1.213269e-01 9.686013e-02 3.687896e-02 -5.329059e-02 -1.674447e-01 -2.832835e-01 -4.019971e-01 -4.836370e-01 -5.505503e-01 -5.491531e-01 -5.457667e-01 -4.511052e-01 -2.659082e-01 -4.657190e-13 2.659082e-01 4.511052e-01 5.457667e-01 5.491531e-01 5.505503e-01 4.836370e-01 4.019971e-01 2.832835e-01 1.674447e-01 5.329059e-02 -3.687896e-02 -9.686013e-02 -1.213269e-01 -1.069443e-01 -6.295543e-02 
-3.021963e-13 9.851119e-02 1.752076e-01 2.236178e-01 2.279972e-01 2.027276e-01 1.429713e-01 6.665536e-02 -1.523856e-02 -1.000384e-01 -1.463085e-01 -1.948271e-01 -1.639018e-01 -2.155570e-01 -2.094635e-01 -1.282624e-01 -5.482098e-13 1.282624e-01 2.094635e-01 2.155570e-01 1.639018e-01 1.948271e-01 1.463085e-01 1.000384e-01 1.523856e-02 -6.665536e-02 -1.429713e-01 -2.027276e-01 -2.279972e-01 -2.236178e-01 -1.752076e-01 -9.851119e-02 
-3.095114e-13 1.306652e-01 2.372014e-01 3.136646e-01 3.428299e-01 3.412529e-01 3.037687e-01 2.470580e-01 1.807100e-01 1.052921e-01 5.195643e-02 9.168492e-03 4.506552e-02 -2.474276e-02 -1.092004e-02 1.706726e-02 -8.666506e-15 -1.706726e-02 1.092004e-02 2.474276e-02 -4.506552e-02 -9.168492e-03 -5.195643e-02 -1.052921e-01 -1.807100e-01 -2.470580e-01 -3.037687e-01 -3.412529e-01 -3.428299e-01 -3.136646e-01 -2.372014e-01 -1.306652e-01 
-2.769781e-13 1.563046e-01 2.843812e-01 3.852750e-01 4.294036e-01 4.518823e-01 4.243961e-01 3.909671e-01 3.304441e-01 2.726621e-01 2.366525e-01 2.381093e-01 4.280080e-01 3.350644e-01 2.980646e-01 2.482218e-01 5.559970e-13 -2.482218e-01 -2.980646e-01 -3.350644e-01 -4.280080e-01 -2.381093e-01 -2.366525e-01 -2.726621e-01 -3.304441e-01 -3.909671e-01 -4.243961e-01 -4.518823e-01 -4.294036e-01 -3.852750e-01 -2.843812e-01 -1.563046e-01 
-1.676796e-13 1.698329e-01 3.094949e-01 4.227545e-01 4.764466e-01 5.097846e-01 4.925700e-01 4.598459e-01 4.017872e-01 3.165355e-01 2.167730e-01 2.342732e-01 3.419773e-01 3.137191e-01 5.895549e-01 5.146100e-01 2.573287e-12 -5.146100e-01 -5.895549e-01 -3.137191e-01 -3.419773e-01 -2.342732e-01 -2.167730e-01 -3.165355e-01 -4.017872e-01 -4.598459e-01 -4.925700e-01 -5.097846e-01 -4.764466e-01 -4.227545e-01 -3.094949e-01 -1.698329e-01 
9.698238e-15 1.662388e-01 3.004370e-01 4.152315e-01 4.616766e-01 5.060280e-01 4.759908e-01 4.547732e-01 3.525380e-01 2.322390e-01 1.325832e-02 2.779889e-01 5.617805e-01 9.205650e-01 8.803401e-01 3.585201e-01 3.172826e-12 -3.585201e-01 -8.803401e-01 -9.205650e-01 -5.617805e-01 -2.779889e-01 -1.325832e-02 -2.322390e-01 -3.525380e-01 -4.547732e-01 -4.759908e-01 -5.060280e-01 -4.616766e-01 -4.152315e-01 -3.004370e-01 -1.662388e-01 
2.957168e-13 1.463338e-01 2.629664e-01 3.689969e-01 4.069585e-01 4.582771e-01 4.367608e-01 4.195982e-01 3.739102e-01 1.665791e-01 1.118551e-01 5.992438e-01 6.607038e-01 5.202797e-01 3.312661e-02 -1.924984e-01 5.035152e-13 1.924984e-01 -3.312661e-02 -5.202797e-01 -6.607038e-01 -5.992438e-01 -1.118551e-01 -1.665791e-01 -3.739102e-01 -4.195982e-01 -4.367608e-01 -4.582771e-01 -4.069585e-01 -3.689969e-01 -2.629664e-01 -1.463338e-01 
5.696664e-13 1.034700e-01 1.850502e-01 2.681474e-01 2.883940e-01 3.507927e-01 3.184727e-01 3.472858e-01 2.357081e-01 -2.396405e-01 3.489173e-01 2.509312e-01 -2.401124e-01 -4.958841e-01 -2.839001e-01 9.311264e-02 -8.872423e-13 -9.311264e-02 2.839001e-01 4.958841e-01 2.401124e-01 -2.509312e-01 -3.489173e-01 2.396405e-01 -2.357081e-01 -3.472858e-01 -3.184727e-01 -3.507927e-01 -2.883940e-01 -2.681474e-01 -1.850502e-01 -1.034700e-01 
8.955359e-13 4.398509e-02 7.720604e-02 1.356027e-01 1.374963e-01 2.266758e-01 1.622668e-01 2.754340e-01 9.752522e-03 -4.157281e-01 4.054225e-01 2.809331e-02 3.604576e-01 6.882686e-01 7.842140e-01 5.529188e-01 -1.316065e-12 -5.529188e-01 -7.842140e-01 -6.882686e-01 -3.604576e-01 -2.809331e-02 -4.054225e-01 4.157281e-01 -9.752522e-03 -2.754340e-01 -1.622668e-01 -2.266758e-01 -1.374963e-01 -1.356027e-01 -7.720604e-02 -4.398509e-02 
1.046019e-12 -4.418147e-02 -7.537632e-02 -6.745949e-02 -6.645549e-02 3.748047e-02 -3.376394e-02 1.877431e-01 -6.298045e-01 -4.452040e-01 6.095421e-01 2.257671e-01 5.838855e-01 4.139375e-01 2.850596e-01 2.978183e-02 -2.057172e-13 -2.978183e-02 -2.850596e-01 -4.139375e-01 -5.838855e-01 -2.257671e-01 -6.095421e-01 4.452040e-01 6.298045e-01 -1.877431e-01 3.376394e-02 -3.748047e-02 6.645549e-02 6.745949e-02 7.537632e-02 4.418147e-02 
1.197221e-12 -1.525326e-01 -2.693094e-01 -3.190240e-01 -3.244444e-01 -1.876628e-01 -2.237402e-01 1.857124e-01 -7.471234e-01 5.515683e-01 1.214585e+00 3.721561e-01 1.429316e-01 -9.746509e-02 -1.293395e-01 -1.534430e-01 1.264312e-13 1.534430e-01 1.293395e-01 9.746509e-02 -1.429316e-01 -3.721561e-01 -1.214585e+00 -5.515683e-01 7.471234e-01 -1.857124e-01 2.237402e-01 1.876628e-01 3.244444e-01 3.190240e-01 2.693094e-01 1.525326e-01 
1.009217e-12 -2.887741e-01 -5.117171e-01 -6.847511e-01 -7.036137e-01 -7.218177e-01 -5.532696e-01 -4.704300e-01 2.564180e-02 1.171818e+00 3.264180e-01 1.170249e-01 2.723944e-02 1.191661e-01 -3.187517e-03 -4.993959e-02 -2.663551e-14 4.993959e-02 3.187517e-03 -1.191661e-01 -2.723944e-02 -1.170249e-01 -3.264180e-01 -1.171818e+00 -2.564180e-02 4.704300e-01 5.532696e-01 7.218177e-01 7.036137e-01 6.847511e-01 5.117171e-01 2.887741e-01 
8.578204e-13 -4.126665e-01 -7.304741e-01 -1.013769e+00 -1.033914e+00 -1.169698e+00 -7.583156e-01 -8.868223e-01 7.706914e-01 5.561045e-01 -5.145704e-01 3.960874e-01 7.595791e-02 1.389341e-01 -4.258489e-02 -3.971701e-02 8.068418e-14 3.971701e-02 4.258489e-02 -1.389341e-01 -7.595791e-02 -3.960874e-01 5.145704e-01 -5.561045e-01 -7.706914e-01 8.868223e-01 7.583156e-01 1.169698e+00 1.033914e+00 1.013769e+00 7.304741e-01 4.126665e-01 
8.175368e-14 -4.567766e-01 -8.105293e-01 -1.108906e+00 -1.123592e+00 -1.209770e+00 -7.178231e-01 -6.554034e-01 1.164459e+00 4.471117e-01 -2.243806e-01 9.679846e-01 3.708620e-01 4.348535e-01 1.085674e-01 5.578481e-02 -1.106296e-13 -5.578481e-02 -1.085674e-01 -4.348535e-01 -3.708620e-01 -9.679846e-01 2.243806e-01 -4.471117e-01 -1.164459e+00 6.554034e-01 7.178231e-01 1.209770e+00 1.123592e+00 1.108906e+00 8.105293e-01 4.567766e-01 
-6.497423e-13 -4.126665e-01 -7.304741e-01 -1.013769e+00 -1.033914e+00 -1.169698e+00 -7.583156e-01 -8.868223e-01 7.706914e-01 5.561045e-01 -5.145704e-01 3.960874e-01 7.595791e-02 1.389341e-01 -4.258489e-02 -3.971701e-02 -6.195293e-13 3.971701e-02 4.258489e-02 -1.389341e-01 -7.595791e-02 -3.960874e-01 5.145704e-01 -5.561045e-01 -7.706914e-01 8.868223e-01 7.583156e-01 1.169698e+00 1.033914e+00 1.013769e+00 7.304741e-01 4.126665e-01 
-1.149315e-12 -2.887741e-01 -5.117171e-01 -6.847511e-01 -7.036137e-01 -7.218177e-01 -5.532696e-01 -4.704300e-01 2.564180e-02 1.171818e+00 3.264180e-01 1.170249e-01 2.723944e-02 1.191661e-01 -3.187517e-03 -4.993959e-02 -2.948321e-13 4.993959e-02 3.187517e-03 -1.191661e-01 -2.723944e-02 -1.170249e-01 -3.264180e-01 -1.171818e+00 -2.564180e-02 4.704300e-01 5.532696e-01 7.218177e-01 7.036137e-01 6.847511e-01 5.117171e-01 2.887741e-01 
-1.512403e-12 -1.525326e-01 -2.693094e-01 -3.190240e-01 -3.244444e-01 -1.876628e-01 -2.237402e-01 1.857124e-01 -7.471234e-01 5.515683e-01 1.214585e+00 3.721561e-01 1.429316e-01 -9.746509e-02 -1.293395e-01 -1.534430e-01 -2.879145e-13 1.534430e-01 1.293395e-01 9.746509e-02 -1.429316e-01 -3.721561e-01 -1.214585e+00 -5.515683e-01 7.471234e-01 -1.857124e-01 2.237402e-01 1.876628e-01 3.244444e-01 3.190240e-01 2.693094e-01 1.525326e-01 
-1.480074e-12 -4.418147e-02 -7.537632e-02 -6.745949e-02 -6.645549e-02 3.748047e-02 -3.376394e-02 1.877431e-01 -6.298045e-01 -4.452040e-01 6.095421e-01 2.257671e-01 5.838855e-01 4.139375e-01 2.850596e-01 2.978183e-02 1.346772e-12 -2.978183e-02 -2.850596e-01 -4.139375e-01 -5.838855e-01 -2.257671e-01 -6.095421e-01 4.452040e-01 6.298045e-01 -1.877431e-01 3.376394e-02 -3.748047e-02 6.645549e-02 6.745949e-02 7.537632e-02 4.418147e-02 
-1.387457e-12 4.398509e-02 7.720604e-02 1.356027e-01 1.374963e-01 2.266758e-01 1.622668e-01 2.754340e-01 9.752522e-03 -4.157281e-01 4.054225e-01 2.809331e-02 3.604576e-01 6.882686e-01 7.842140e-01 5.529188e-01 6.759059e-12 -5.529188e-01 -7.842140e-01 -6.882686e-01 -3.604576e-01 -2.809331e-02 -4.054225e-01 4.157281e-01 -9.752522e-03 -2.754340e-01 -1.622668e-01 -2.266758e-01 -1.374963e-01 -1.356027e-01 -7.720604e-02 -4.398509e-02 
-1.004550e-12 1.034700e-01 1.850502e-01 2.681474e-01 2.883940e-01 3.507927e-01 3.184727e-01 3.472858e-01 2.357081e-01 -2.396405e-01 3.489173e-01 2.509312e-01 -2.401124e-01 -4.958841e-01 -2.839001e-01 9.311264e-02 5.037627e-12 -9.311264e-02 2.839001e-01 4.958841e-01 2.401124e-01 -2.509312e-01 -3.489173e-01 2.396405e-01 -2.357081e-01 -3.472858e-01 -3.184727e-01 -3.507927e-01 -2.883940e-01 -2.681474e-01 -1.850502e-01 -1.034700e-01 
-7.029235e-13 1.463338e-01 2.629664e-01 3.689969e-01 4.069585e-01 4.582771e-01 4.367608e-01 4.195982e-01 3.739102e-01 1.665791e-01 1.118551e-01 5.992438e-01 6.607038e-01 5.202797e-01 3.312661e-02 -1.924984e-01 -1.207826e-12 1.924984e-01 -3.312661e-02 -5.202797e-01 -6.607038e-01 -5.992438e-01 -1.118551e-01 -1.665791e-01 -3.739102e-01 -4.195982e-01 -4.367608e-01 -4.582771e-01 -4.069585e-01 -3.689969e-01 -2.629664e-01 -1.463338e-01 
-2.990059e-13 1.662388e-01 3.004370e-01 4.152315e-01 4.616766e-01 5.060280e-01 4.759908e-01 4.547732e-01 3.525380e-01 2.322390e-01 1.325832e-02 2.779889e-01 5.617805e-01 9.205650e-01 8.803401e-01 3.585201e-01 -8.466891e-12 -3.585201e-01 -8.803401e-01 -9.205650e-01 -5.617805e-01 -2.779889e-01 -1.325832e-02 -2.322390e-01 -3.525380e-01 -4.547732e-01 -4.759908e-01 -5.060280e-01 -4.616766e-01 -4.152315e-01 -3.004370e-01 -1.662388e-01 
-8.263717e-14 1.698329e-01 3.094949e-01 4.227545e-01 4.764466e-01 5.097846e-01 4.925700e-01 4.598459e-01 4.017872e-01 3.165355e-01 2.167730e-01 2.342732e-01 3.419773e-01 3.137191e-01 5.895549e-01 5.146100e-01 -8.976510e-12 -5.146100e-01 -5.895549e-01 -3.137191e-01 -3.419773e-01 -2.342732e-01 -2.167730e-01 -3.165355e-01 -4.017872e-01 -4.598459e-01 -4.925700e-01 -5.097846e-01 -4.764466e-01 -4.227545e-01 -3.094949e-01 -1.698329e-01 
1.137669e-13 1.563046e-01 2.843812e-01 3.852750e-01 4.294036e-01 4.518823e-01 4.243961e-01 3.909671e-01 3.304441e-01 2.726621e-01 2.366525e-01 2.381093e-01 4.280080e-01 3.350644e-01 2.980646e-01 2.482218e-01 -3.981969e-12 -2.482218e-01 -2.980646e-01 -3.350644e-01 -4.280080e-01 -2.381093e-01 -2.366525e-01 -2.726621e-01 -3.304441e-01 -3.909671e-01 -4.243961e-01 -4.518823e-01 -4.294036e-01 -3.852750e-01 -2.843812e-01 -1.563046e-01 
1.415541e-13 1.306652e-01 2.372014e-01 3.136646e-01 3.428299e-01 3.412529e-01 3.037687e-01 2.470580e-01 1.807100e-01 1.052921e-01 5.195643e-02 9.168492e-03 4.506552e-02 -2.474276e-02 -1.092004e-02 1.706726e-02 -1.642183e-12 -1.706726e-02 1.092004e-02 2.474276e-02 -4.506552e-02 -9.168492e-03 -5.195643e-02 -1.052921e-01 -1.807100e-01 -2.470580e-01 -3.037687e-01 -3.412529e-01 -3.428299e-01 -3.136646e-01 -2.372014e-01 -1.306652e-01 
1.512111e-13 9.851119e-02 1.752076e-01 2.236178e-01 2.279972e-01 2.027276e-01 1.429713e-01 6.665536e-02 -1.523856e-02 -1.000384e-01 -1.463085e-01 -1.948271e-01 -1.639018e-01 -2.155570e-01 -2.094635e-01 -1.282624e-01 4.616174e-13 1.282624e-01 2.094635e-01 2.155570e-01 1.639018e-01 1.948271e-01 1.463085e-01 1.000384e-01 1.523856e-02 -6.665536e-02 -1.429713e-01 -2.027276e-01 -2.279972e-01 -2.236178e-01 -1.752076e-01 -9.851119e-02 
8.286068e-14 6.295543e-02 1.069443e-01 1.213269e-01 9.686013e-02 3.687896e-02 -5.329059e-02 -1.674447e-01 -2.832835e-01 -4.019971e-01 -4.836370e-01 -5.505503e-01 -5.491531e-01 -5.457667e-01 -4.511052e-01 -2.659082e-01 1.150335e-12 2.659082e-01 4.511052e-01 5.457667e-01 5.491531e-01 5.505503e-01 4.836370e-01 4.019971e-01 2.832835e-01 1.674447e-01 5.329059e-02 -3.687896e-02 -9.686013e-02 -1.213269e-01 -1.069443e-01 -6.295543e-02 
2.302673e-14 3.395983e-02 5.003405e-02 3.747811e-02 -1.330271e-02 -1.005421e-01 -2.188741e-01 -3.623859e-01 -5.053670e-01 -6.499432e-01 -7.476038e-01 -8.250998e-01 -8.156133e-01 -7.736029e-01 -6.174212e-01 -3.540182e-01 1.546480e-12 3.540182e-01 6.174212e-01 7.736029e-01 8.156133e-01 8.250998e-01 7.476038e-01 6.499432e-01 5.053670e-01 3.623859e-01 2.188741e-01 1.005421e-01 1.330271e-02 -3.747811e-02 -5.003405e-02 -3.395983e-02 
-5.826048e-14 1.142674e-02 5.970508e-03 -2.955215e-02 -1.022334e-01 -2.155089e-01 -3.600199e-01 -5.333816e-01 -7.064444e-01 -8.783545e-01 -1.002385e+00 -1.088472e+00 -1.077941e+00 -9.932269e-01 -7.729458e-01 -4.330295e-01 1.239720e-12 4.330295e-01 7.729458e-01 9.932269e-01 1.077941e+00 1.088472e+00 1.002385e+00 8.783545e-01 7.064444e-01 5.333816e-01 3.600199e-01 2.155089e-01 1.022334e-01 2.955215e-02 -5.970508e-03 -1.142674e-02 
