# vtk DataFile Version 2.0
Comment goes here
ASCII

DATASET STRUCTURED_POINTS
FIELD FieldData 1
TIME 1 1 double
0.74000000
DIMENSIONS    32   32   1

ORIGIN    0.000   0.000   0.000
SPACING   0.03125 0.03125   1.000

POINT_DATA   1024
SCALARS uX double
LOOKUP_TABLE default

-2.191301e-15 -2.288830e-02 -5.485236e-02 -1.081524e-01 -1.851643e-01 -2.941217e-01 -4.389405e-01 -6.116998e-01 -8.237664e-01 -1.027390e+00 -1.242793e+00 -1.374043e+00 -1.461259e+00 -1.379165e+00 -1.170943e+00 -7.056179e-01 3.129684e-14 7.056179e-01 1.170943e+00 1.379165e+00 1.461259e+00 1.374043e+00 1.242793e+00 1.027390e+00 8.237664e-01 6.116998e-01 4.389405e-01 2.941217e-01 1.851643e-01 1.081524e-01 5.485236e-02 2.288830e-02 
-3.834102e-15 -1.801231e-02 -4.489550e-02 -9.387252e-02 -1.645995e-01 -2.668008e-01 -3.997439e-01 -5.584128e-01 -7.501659e-01 -9.332018e-01 -1.126613e+00 -1.243687e+00 -1.325492e+00 -1.257893e+00 -1.083743e+00 -6.582312e-01 3.123377e-14 6.582312e-01 1.083743e+00 1.257893e+00 1.325492e+00 1.243687e+00 1.126613e+00 9.332018e-01 7.501659e-01 5.584128e-01 3.997439e-01 2.668008e-01 1.645995e-01 9.387252e-02 4.489550e-02 1.801231e-02 
-4.247579e-15 -4.944588e-03 -1.962665e-02 -5.886251e-02 -1.183411e-01 -2.084601e-01 -3.213444e-01 -4.537357e-01 -6.101900e-01 -7.529922e-01 -9.130388e-01 -1.004128e+00 -1.093839e+00 -1.047739e+00 -9.305387e-01 -5.596763e-01 4.046468e-14 5.596763e-01 9.305387e-01 1.047739e+00 1.093839e+00 1.004128e+00 9.130388e-01 7.529922e-01 6.101900e-01 4.537357e-01 3.213444e-01 2.084601e-01 1.183411e-01 5.886251e-02 1.962665e-02 4.944588e-03 
-5.816542e-15 1.658934e-02 2.206068e-02 -2.887499e-03 -4.561090e-02 -1.217948e-01 -2.082530e-01 -3.098540e-01 -4.177635e-01 -5.035790e-01 -5.988433e-01 -6.234430e-01 -6.694801e-01 -6.263711e-01 -5.877792e-01 -3.207482e-01 5.746855e-14 3.207482e-01 5.877792e-01 6.263711e-01 6.694801e-01 6.234430e-01 5.988433e-01 5.035790e-01 4.177635e-01 3.098540e-01 2.082530e-01 1.217948e-01 4.561090e-02 2.887499e-03 -2.206068e-02 -1.658934e-02 
-8.885895e-15 4.587231e-02 7.698752e-02 6.793264e-02 3.952698e-02 -3.035523e-02 -1.010096e-01 -1.876407e-01 -2.636853e-01 -3.080830e-01 -3.577930e-01 -3.298294e-01 -3.699440e-01 -3.089020e-01 -2.749414e-01 -5.688493e-02 6.281304e-14 5.688493e-02 2.749414e-01 3.089020e-01 3.699440e-01 3.298294e-01 3.577930e-01 3.080830e-01 2.636853e-01 1.876407e-01 1.010096e-01 3.035523e-02 -3.952698e-02 -6.793264e-02 -7.698752e-02 -4.587231e-02 
-8.990871e-15 7.960288e-02 1.399862e-01 1.462515e-01 1.304579e-01 5.707844e-02 -8.619938e-03 -1.033747e-01 -1.728888e-01 -2.066294e-01 -2.253250e-01 -9.251401e-02 1.038958e-02 1.689124e-01 2.192538e-01 2.986257e-01 2.313724e-14 -2.986257e-01 -2.192538e-01 -1.689124e-01 -1.038958e-02 9.251401e-02 2.253250e-01 2.066294e-01 1.728888e-01 1.033747e-01 8.619938e-03 -5.707844e-02 -1.304579e-01 -1.462515e-01 -1.399862e-01 -7.960288e-02 
-1.079494e-14 1.173760e-01 2.094909e-01 2.318867e-01 2.251540e-01 1.387328e-01 6.547651e-02 -6.256989e-02 -1.446366e-01 -1.878048e-01 -1.966184e-01 -6.295942e-02 -9.260114e-02 1.330015e-01 3.579810e-01 4.073057e-01 -4.378189e-14 -4.073057e-01 -3.579810e-01 -1.330015e-01 9.260114e-02 6.295942e-02 1.966184e-01 1.878048e-01 1.446366e-01 6.256989e-02 -6.547651e-02 -1.387328e-01 -2.251540e-01 -2.318867e-01 -2.094909e-01 -1.173760e-01 
-4.721011e-15 1.484214e-01 2.666605e-01 3.014424e-01 3.029792e-01 1.975608e-01 1.130826e-01 -7.543928e-02 -2.242749e-01 -4.114737e-01 -5.244106e-01 -2.208376e-01 3.332967e-01 8.825397e-01 8.922841e-01 4.656150e-01 -7.493542e-14 -4.656150e-01 -8.922841e-01 -8.825397e-01 -3.332967e-01 2.208376e-01 5.244106e-01 4.114737e-01 2.242749e-01 7.543928e-02 -1.130826e-01 -1.975608e-01 -3.029792e-01 -3.014424e-01 -2.666605e-01 -1.484214e-01 
1.856013e-15 1.750687e-01 3.143338e-01 3.636168e-01 3.721015e-01 2.475158e-01 1.453452e-01 -1.487912e-01 -3.622107e-01 -5.303938e-01 -4.074082e-02 4.153257e-01 9.026191e-01 7.110645e-01 4.669266e-01 7.352548e-02 -4.432817e-14 -7.352548e-02 -4.669266e-01 -7.110645e-01 -9.026191e-01 -4.153257e-01 4.074082e-02 5.303938e-01 3.622107e-01 1.487912e-01 -1.453452e-01 -2.475158e-01 -3.721015e-01 -3.636168e-01 -3.143338e-01 -1.750687e-01 
1.651411e-14 1.805649e-01 3.207050e-01 3.784173e-01 3.967854e-01 2.699618e-01 2.032049e-01 -1.433012e-01 -4.011286e-01 -2.581236e-01 5.587037e-01 2.482306e-01 -9.550530e-02 -6.133911e-01 -4.038337e-01 -1.980204e-01 7.064607e-14 1.980204e-01 4.038337e-01 6.133911e-01 9.550530e-02 -2.482306e-01 -5.587037e-01 2.581236e-01 4.011286e-01 1.433012e-01 -2.032049e-01 -2.699618e-01 -3.967854e-01 -3.784173e-01 -3.207050e-01 -1.805649e-01 
2.874511e-14 1.750857e-01 3.074617e-01 3.868424e-01 4.206465e-01 3.316307e-01 2.839305e-01 -2.827123e-01 -6.293443e-01 1.228338e-01 2.457831e-01 2.692825e-02 4.669169e-01 7.889046e-01 8.706635e-01 5.298490e-01 4.309159e-14 -5.298490e-01 -8.706635e-01 -7.889046e-01 -4.669169e-01 -2.692825e-02 -2.457831e-01 -1.228338e-01 6.293443e-01 2.827123e-01 -2.839305e-01 -3.316307e-01 -4.206465e-01 -3.868424e-01 -3.074617e-01 -1.750857e-01 
4.021757e-14 1.268191e-01 2.102740e-01 2.991828e-01 3.199624e-01 2.621049e-01 2.322739e-01 -8.487764e-01 -2.506024e-01 9.259221e-01 6.900462e-01 1.034120e+00 1.072331e+00 9.061147e-01 6.783913e-01 3.152331e-01 -4.176944e-16 -3.152331e-01 -6.783913e-01 -9.061147e-01 -1.072331e+00 -1.034120e+00 -6.900462e-01 -9.259221e-01 2.506024e-01 8.487764e-01 -2.322739e-01 -2.621049e-01 -3.199624e-01 -2.991828e-01 -2.102740e-01 -1.268191e-01 
5.080705e-14 4.873848e-02 7.338008e-02 1.960295e-01 2.167556e-01 4.266349e-01 8.345193e-02 -9.218751e-01 1.201586e+00 1.334446e+00 1.023597e+00 7.499107e-01 3.393814e-01 6.891931e-02 -2.495874e-02 -5.819556e-02 -9.298469e-16 5.819556e-02 2.495874e-02 -6.891931e-02 -3.393814e-01 -7.499107e-01 -1.023597e+00 -1.334446e+00 -1.201586e+00 9.218751e-01 -8.345193e-02 -4.266349e-01 -2.167556e-01 -1.960295e-01 -7.338008e-02 -4.873848e-02 
4.470305e-14 -9.505014e-02 -2.000889e-01 -9.218942e-02 -2.033676e-01 3.765639e-01 -6.718153e-01 2.843410e-01 2.092332e+00 8.180645e-01 6.542218e-01 2.214529e-01 2.161898e-01 1.975069e-01 1.169968e-01 2.828164e-02 -7.951838e-15 -2.828164e-02 -1.169968e-01 -1.975069e-01 -2.161898e-01 -2.214529e-01 -6.542218e-01 -8.180645e-01 -2.092332e+00 -2.843410e-01 6.718153e-01 -3.765639e-01 2.033676e-01 9.218942e-02 2.000889e-01 9.505014e-02 
4.809589e-14 -2.811875e-01 -5.004415e-01 -5.369398e-01 -5.719865e-01 -1.274935e-01 -5.280022e-01 1.641396e+00 1.302853e+00 4.207022e-01 4.949593e-01 4.407456e-01 2.928386e-01 1.507783e-01 3.630951e-02 -1.486236e-02 -1.472936e-14 1.486236e-02 -3.630951e-02 -1.507783e-01 -2.928386e-01 -4.407456e-01 -4.949593e-01 -4.207022e-01 -1.302853e+00 -1.641396e+00 5.280022e-01 1.274935e-01 5.719865e-01 5.369398e-01 5.004415e-01 2.811875e-01 
1.914482e-14 -4.389352e-01 -7.147020e-01 -9.363446e-01 -7.366069e-01 -7.746744e-01 7.398709e-01 1.754817e+00 1.244922e-01 5.690210e-01 5.722197e-01 6.766779e-01 4.582706e-01 3.425816e-01 1.684299e-01 6.924435e-02 -1.622830e-14 -6.924435e-02 -1.684299e-01 -3.425816e-01 -4.582706e-01 -6.766779e-01 -5.722197e-01 -5.690210e-01 -1.244922e-01 -1.754817e+00 -7.398709e-01 7.746744e-01 7.366069e-01 9.363446e-01 7.147020e-01 4.389352e-01 
-9.718528e-15 -5.291298e-01 -8.683191e-01 -1.192859e+00 -9.825498e-01 -1.262289e+00 1.183245e+00 1.443557e+00 -1.649765e-01 8.299733e-01 7.304975e-01 9.020561e-01 5.705158e-01 3.871106e-01 1.680593e-01 6.349577e-02 -2.834846e-14 -6.349577e-02 -1.680593e-01 -3.871106e-01 -5.705158e-01 -9.020561e-01 -7.304975e-01 -8.299733e-01 1.649765e-01 -1.443557e+00 -1.183245e+00 1.262289e+00 9.825498e-01 1.192859e+00 8.683191e-01 5.291298e-01 
-2.396076e-14 -4.389352e-01 -7.147020e-01 -9.363446e-01 -7.366069e-01 -7.746744e-01 7.398709e-01 1.754817e+00 1.244922e-01 5.690210e-01 5.722197e-01 6.766779e-01 4.582706e-01 3.425816e-01 1.684299e-01 6.924435e-02 -2.685313e-14 -6.924435e-02 -1.684299e-01 -3.425816e-01 -4.582706e-01 -6.766779e-01 -5.722197e-01 -5.690210e-01 -1.244922e-01 -1.754817e+00 -7.398709e-01 7.746744e-01 7.366069e-01 9.363446e-01 7.147020e-01 4.389352e-01 
-4.233587e-14 -2.811875e-01 -5.004415e-01 -5.369398e-01 -5.719865e-01 -1.274935e-01 -5.280022e-01 1.641396e+00 1.302853e+00 4.207022e-01 4.949593e-01 4.407456e-01 2.928386e-01 1.507783e-01 3.630951e-02 -1.486236e-02 -4.378344e-14 1.486236e-02 -3.630951e-02 -1.507783e-01 -2.928386e-01 -4.407456e-01 -4.949593e-01 -4.207022e-01 -1.302853e+00 -1.641396e+00 5.280022e-01 1.274935e-01 5.719865e-01 5.369398e-01 5.004415e-01 2.811875e-01 
-4.146080e-14 -9.505014e-02 -2.000889e-01 -9.218942e-02 -2.033676e-01 3.765639e-01 -6.718153e-01 2.843410e-01 2.092332e+00 8.180645e-01 6.542218e-01 2.214529e-01 2.161898e-01 1.975069e-01 1.169968e-01 2.828164e-02 -5.267163e-14 -2.828164e-02 -1.169968e-01 -1.975069e-01 -2.161898e-01 -2.214529e-01 -6.542218e-01 -8.180645e-01 -2.092332e+00 -2.843410e-01 6.718153e-01 -3.765639e-01 2.033676e-01 9.218942e-02 2.000889e-01 9.505014e-02 
-4.925316e-14 4.873848e-02 7.338008e-02 1.960295e-01 2.167556e-01 4.266349e-01 8.345193e-02 -9.218751e-01 1.201586e+00 1.334446e+00 1.023597e+00 7.499107e-01 3.393814e-01 6.891931e-02 -2.495874e-02 -5.819556e-02 -6.589247e-14 5.819556e-02 2.495874e-02 -6.891931e-02 -3.393814e-01 -7.499107e-01 -1.023597e+00 -1.334446e+00 -1.201586e+00 9.218751e-01 -8.345193e-02 -4.266349e-01 -2.167556e-01 -1.960295e-01 -7.338008e-02 -4.873848e-02 
-2.957494e-14 1.268191e-01 2.102740e-01 2.991828e-01 3.199624e-01 2.621049e-01 2.322739e-01 -8.487764e-01 -2.506024e-01 9.259221e-01 6.900462e-01 1.034120e+00 1.072331e+00 9.061147e-01 6.783913e-01 3.152331e-01 -7.445311e-14 -3.152331e-01 -6.783913e-01 -9.061147e-01 -1.072331e+00 -1.034120e+00 -6.900462e-01 -9.259221e-01 2.506024e-01 8.487764e-01 -2.322739e-01 -2.621049e-01 -3.199624e-01 -2.991828e-01 -2.102740e-01 -1.268191e-01 
-2.482508e-14 1.750857e-01 3.074617e-01 3.868424e-01 4.206465e-01 3.316307e-01 2.839305e-01 -2.827123e-01 -6.293443e-01 1.228338e-01 2.457831e-01 2.692825e-02 4.669169e-01 7.889046e-01 8.706635e-01 5.298490e-01 -7.011871e-14 -5.298490e-01 -8.706635e-01 -7.889046e-01 -4.669169e-01 -2.692825e-02 -2.457831e-01 -1.228338e-01 6.293443e-01 2.827123e-01 -2.839305e-01 -3.316307e-01 -4.206465e-01 -3.868424e-01 -3.074617e-01 -1.750857e-01 
-1.202619e-14 1.805649e-01 3.207050e-01 3.784173e-01 3.967854e-01 2.699618e-01 2.032049e-01 -1.433012e-01 -4.011286e-01 -2.581236e-01 5.587037e-01 2.482306e-01 -9.550530e-02 -6.133911e-01 -4.038337e-01 -1.980204e-01 1.995720e-15 1.980204e-01 4.038337e-01 6.133911e-01 9.550530e-02 -2.482306e-01 -5.587037e-01 2.581236e-01 4.011286e-01 1.433012e-01 -2.032049e-01 -2.699618e-01 -3.967854e-01 -3.784173e-01 -3.207050e-01 -1.805649e-01 
-1.782601e-15 1.750687e-01 3.143338e-01 3.636168e-01 3.721015e-01 2.475158e-01 1.453452e-01 -1.487912e-01 -3.622107e-01 -5.303938e-01 -4.074082e-02 4.153257e-01 9.026191e-01 7.110645e-01 4.669266e-01 7.352548e-02 7.513614e-14 -7.352548e-02 -4.669266e-01 -7.110645e-01 -9.026191e-01 -4.153257e-01 4.074082e-02 5.303938e-01 3.622107e-01 1.487912e-01 -1.453452e-01 -2.475158e-01 -3.721015e-01 -3.636168e-01 -3.143338e-01 -1.750687e-01 
9.595917e-16 1.484214e-01 2.666605e-01 3.014424e-01 3.029792e-01 1.975608e-01 1.130826e-01 -7.543928e-02 -2.242749e-01 -4.114737e-01 -5.244106e-01 -2.208376e-01 3.332967e-01 8.825397e-01 8.922841e-01 4.656150e-01 6.906835e-14 -4.656150e-01 -8.922841e-01 -8.825397e-01 -3.332967e-01 2.208376e-01 5.244106e-01 4.114737e-01 2.242749e-01 7.543928e-02 -1.130826e-01 -1.975608e-01 -3.029792e-01 -3.014424e-01 -2.666605e-01 -1.484214e-01 
6.713564e-15 1.173760e-01 2.094909e-01 2.318867e-01 2.251540e-01 1.387328e-01 6.547651e-02 -6.256989e-02 -1.446366e-01 -1.878048e-01 -1.966184e-01 -6.295942e-02 -9.260114e-02 1.330015e-01 3.579810e-01 4.073057e-01 9.882824e-14 -4.073057e-01 -3.579810e-01 -1.330015e-01 9.260114e-02 6.295942e-02 1.966184e-01 1.878048e-01 1.446366e-01 6.256989e-02 -6.547651e-02 -1.387328e-01 -2.251540e-01 -2.318867e-01 -2.094909e-01 -1.173760e-01 
1.079266e-15 7.960288e-02 1.399862e-01 1.462515e-01 1.304579e-01 5.707844e-02 -8.619938e-03 -1.033747e-01 -1.728888e-01 -2.066294e-01 -2.253250e-01 -9.251401e-02 1.038958e-02 1.689124e-01 2.192538e-01 2.986257e-01 8.910622e-15 -2.986257e-01 -2.192538e-01 -1.689124e-01 -1.038958e-02 9.251401e-02 2.253250e-01 2.066294e-01 1.728888e-01 1.033747e-01 8.619938e-03 -5.707844e-02 -1.304579e-01 -1.462515e-01 -1.399862e-01 -7.960288e-02 
3.292381e-15 4.587231e-02 7.698752e-02 6.793264e-02 3.952698e-02 -3.035523e-02 -1.010096e-01 -1.876407e-01 -2.636853e-01 -3.080830e-01 -3.577930e-01 -3.298294e-01 -3.699440e-01 -3.089020e-01 -2.749414e-01 -5.688493e-02 -4.420435e-14 5.688493e-02 2.749414e-01 3.089020e-01 3.699440e-01 3.298294e-01 3.577930e-01 3.080830e-01 2.636853e-01 1.876407e-01 1.010096e-01 3.035523e-02 -3.952698e-02 -6.793264e-02 -7.698752e-02 -4.587231e-02 
-3.138145e-15 1.658934e-02 2.206068e-02 -2.887499e-03 -4.561090e-02 -1.217948e-01 -2.082530e-01 -3.098540e-01 -4.177635e-01 -5.035790e-01 -5.988433e-01 -6.234430e-01 -6.694801e-01 -6.263711e-01 -5.877792e-01 -3.207482e-01 -4.497187e-14 3.207482e-01 5.877792e-01 6.263711e-01 6.694801e-01 6.234430e-01 5.988433e-01 5.035790e-01 4.177635e-01 3.098540e-01 2.082530e-01 1.217948e-01 4.561090e-02 2.887499e-03 -2.206068e-02 -1.658934e-02 
-5.477788e-16 -4.944588e-03 -1.962665e-02 -5.886251e-02 -1.183411e-01 -2.084601e-01 -3.213444e-01 -4.537357e-01 -6.101900e-01 -7.529922e-01 -9.130388e-01 -1.004128e+00 -1.093839e+00 -1.047739e+00 -9.305387e-01 -5.596763e-01 -1.058655e-14 5.596763e-01 9.305387e-01 1.047739e+00 1.093839e+00 1.004128e+00 9.130388e-01 7.529922e-01 6.101900e-01 4.537357e-01 3.213444e-01 2.084601e-01 1.183411e-01 5.886251e-02 1.962665e-02 4.944588e-03 
-4.054278e-15 -1.801231e-02 -4.489550e-02 -9.387252e-02 -1.645995e-01 -2.668008e-01 -3.997439e-01 -5.584128e-01 -7.501659e-01 -9.332018e-01 -1.126613e+00 -1.243687e+00 -1.325492e+00 -1.257893e+00 -1.083743e+00 -6.582312e-01 2.106344e-14 6.582312e-01 1.083743e+00 1.257893e+00 1.325492e+00 1.243687e+00 1.126613e+00 9.332018e-01 7.501659e-01 5.584128e-01 3.997439e-01 2.668008e-01 1.645995e-01 9.387252e-02 4.489550e-02 1.801231e-02 
