# vtk DataFile Version 2.0
Comment goes here
ASCII

DATASET STRUCTURED_POINTS
FIELD FieldData 1
TIME 1 1 double
1.02000000
DIMENSIONS    32   32   1

ORIGIN    0.000   0.000   0.000
SPACING   0.03125 0.03125   1.000

POINT_DATA   1024
SCALARS uX double
LOOKUP_TABLE default

-1.662436e-14 2.746619e-02 3.727250e-02 2.167986e-02 -3.694663e-02 -1.335908e-01 -2.788100e-01 -4.573932e-01 -6.616906e-01 -8.733091e-01 -1.059135e+00 -1.206242e+00 -1.256463e+00 -1.195646e+00 -9.700335e-01 -5.679389e-01 9.296532e-14 5.679389e-01 9.700335e-01 1.195646e+00 1.256463e+00 1.206242e+00 1.059135e+00 8.733091e-01 6.616906e-01 4.573932e-01 2.788100e-01 1.335908e-01 3.694663e-02 -2.167986e-02 -3.727250e-02 -2.746619e-02 
-9.863333e-15 3.476752e-02 5.169929e-02 4.347130e-02 -7.046721e-03 -9.368741e-02 -2.269689e-01 -3.912958e-01 -5.804539e-01 -7.761246e-01 -9.480614e-01 -1.084840e+00 -1.133985e+00 -1.084643e+00 -8.890790e-01 -5.308899e-01 4.058679e-14 5.308899e-01 8.890790e-01 1.084643e+00 1.133985e+00 1.084840e+00 9.480614e-01 7.761246e-01 5.804539e-01 3.912958e-01 2.269689e-01 9.368741e-02 7.046721e-03 -4.347130e-02 -5.169929e-02 -3.476752e-02 
-6.297801e-15 5.507711e-02 9.134477e-02 1.029745e-01 7.294094e-02 1.243265e-02 -9.115227e-02 -2.180833e-01 -3.686507e-01 -5.252349e-01 -6.629854e-01 -7.865444e-01 -8.437894e-01 -8.437603e-01 -7.338245e-01 -4.617087e-01 1.082450e-14 4.617087e-01 7.338245e-01 8.437603e-01 8.437894e-01 7.865444e-01 6.629854e-01 5.252349e-01 3.686507e-01 2.180833e-01 9.115227e-02 -1.243265e-02 -7.294094e-02 -1.029745e-01 -9.134477e-02 -5.507711e-02 
-6.273824e-16 8.587266e-02 1.507673e-01 1.900426e-01 1.867453e-01 1.585909e-01 9.153646e-02 1.111583e-02 -9.089501e-02 -1.964395e-01 -2.885836e-01 -3.843885e-01 -4.327145e-01 -4.662981e-01 -4.636955e-01 -3.291889e-01 -5.080257e-15 3.291889e-01 4.636955e-01 4.662981e-01 4.327145e-01 3.843885e-01 2.885836e-01 1.964395e-01 9.089501e-02 -1.111583e-02 -9.153646e-02 -1.585909e-01 -1.867453e-01 -1.900426e-01 -1.507673e-01 -8.587266e-02 
8.486945e-15 1.223837e-01 2.204073e-01 2.900585e-01 3.131422e-01 3.164314e-01 2.814536e-01 2.477399e-01 1.908915e-01 1.380170e-01 9.435201e-02 1.149116e-02 -3.513904e-02 -1.379740e-01 -2.533745e-01 -1.865716e-01 7.904044e-15 1.865716e-01 2.533745e-01 1.379740e-01 3.513904e-02 -1.149116e-02 -9.435201e-02 -1.380170e-01 -1.908915e-01 -2.477399e-01 -2.814536e-01 -3.164314e-01 -3.131422e-01 -2.900585e-01 -2.204073e-01 -1.223837e-01 
1.918366e-14 1.595787e-01 2.906947e-01 3.889247e-01 4.339032e-01 4.603401e-01 4.451416e-01 4.421974e-01 4.114181e-01 3.938412e-01 3.838464e-01 3.202669e-01 3.720860e-01 3.771183e-01 2.234336e-01 1.456968e-01 8.834851e-14 -1.456968e-01 -2.234336e-01 -3.771183e-01 -3.720860e-01 -3.202669e-01 -3.838464e-01 -3.938412e-01 -4.114181e-01 -4.421974e-01 -4.451416e-01 -4.603401e-01 -4.339032e-01 -3.889247e-01 -2.906947e-01 -1.595787e-01 
3.648547e-14 1.894184e-01 3.473811e-01 4.668446e-01 5.272236e-01 5.693883e-01 5.622891e-01 5.872815e-01 5.670211e-01 6.031979e-01 6.526014e-01 6.104734e-01 7.285020e-01 5.829961e-01 4.703258e-01 4.750881e-01 2.009291e-13 -4.750881e-01 -4.703258e-01 -5.829961e-01 -7.285020e-01 -6.104734e-01 -6.526014e-01 -6.031979e-01 -5.670211e-01 -5.872815e-01 -5.622891e-01 -5.693883e-01 -5.272236e-01 -4.668446e-01 -3.473811e-01 -1.894184e-01 
5.276450e-14 2.066543e-01 3.806436e-01 5.118045e-01 5.804680e-01 6.310582e-01 6.249716e-01 6.627171e-01 6.278212e-01 6.747688e-01 6.260750e-01 4.829129e-01 8.533618e-01 1.293744e+00 1.598009e+00 1.067073e+00 3.174117e-13 -1.067073e+00 -1.598009e+00 -1.293744e+00 -8.533618e-01 -4.829129e-01 -6.260750e-01 -6.747688e-01 -6.278212e-01 -6.627171e-01 -6.249716e-01 -6.310582e-01 -5.804680e-01 -5.118045e-01 -3.806436e-01 -2.066543e-01 
6.764683e-14 2.024056e-01 3.757412e-01 4.996662e-01 5.682273e-01 6.123663e-01 5.995383e-01 6.483634e-01 5.547828e-01 6.929282e-01 6.673638e-01 1.169454e+00 1.569239e+00 1.568137e+00 1.364710e+00 5.005571e-01 1.983178e-13 -5.005571e-01 -1.364710e+00 -1.568137e+00 -1.569239e+00 -1.169454e+00 -6.673638e-01 -6.929282e-01 -5.547828e-01 -6.483634e-01 -5.995383e-01 -6.123663e-01 -5.682273e-01 -4.996662e-01 -3.757412e-01 -2.024056e-01 
7.471138e-14 1.768463e-01 3.318347e-01 4.356284e-01 4.979669e-01 5.365089e-01 5.319176e-01 6.058976e-01 5.424521e-01 6.028827e-01 8.432136e-01 1.130603e+00 5.168333e-01 -2.598890e-01 -6.058850e-01 -4.629293e-01 -2.910580e-13 4.629293e-01 6.058850e-01 2.598890e-01 -5.168333e-01 -1.130603e+00 -8.432136e-01 -6.028827e-01 -5.424521e-01 -6.058976e-01 -5.319176e-01 -5.365089e-01 -4.979669e-01 -4.356284e-01 -3.318347e-01 -1.768463e-01 
7.261412e-14 1.251268e-01 2.420563e-01 3.029483e-01 3.597690e-01 3.599259e-01 3.862495e-01 3.739732e-01 -3.487852e-02 -3.230173e-01 1.313257e-01 -3.299494e-01 -6.469765e-01 -2.433556e-01 -1.925946e-02 2.315326e-01 -2.381829e-13 -2.315326e-01 1.925946e-02 2.433556e-01 6.469765e-01 3.299494e-01 -1.313257e-01 3.230173e-01 3.487852e-02 -3.739732e-01 -3.862495e-01 -3.599259e-01 -3.597690e-01 -3.029483e-01 -2.420563e-01 -1.251268e-01 
6.531265e-14 4.983504e-02 1.083027e-01 1.147310e-01 1.531931e-01 1.096756e-01 9.391782e-02 -3.591718e-02 -8.844678e-01 -4.436684e-01 -2.776188e-02 -3.087666e-01 2.306963e-01 4.227196e-01 3.396837e-01 2.615218e-01 -2.065662e-14 -2.615218e-01 -3.396837e-01 -4.227196e-01 -2.306963e-01 3.087666e-01 2.776188e-02 4.436684e-01 8.844678e-01 3.591718e-02 -9.391782e-02 -1.096756e-01 -1.531931e-01 -1.147310e-01 -1.083027e-01 -4.983504e-02 
4.430609e-14 -5.290506e-02 -7.946729e-02 -1.345523e-01 -1.072009e-01 -2.266235e-01 -1.572733e-01 -7.526675e-01 -1.122503e+00 4.887187e-01 1.536719e-01 -1.398226e-01 -1.733764e-02 -1.927084e-01 -1.621712e-01 -1.376818e-01 5.322500e-14 1.376818e-01 1.621712e-01 1.927084e-01 1.733764e-02 1.398226e-01 -1.536719e-01 -4.887187e-01 1.122503e+00 7.526675e-01 1.572733e-01 2.266235e-01 1.072009e-01 1.345523e-01 7.946729e-02 5.290506e-02 
2.150882e-14 -1.890240e-01 -3.248035e-01 -4.582026e-01 -4.231332e-01 -6.116640e-01 -3.026776e-01 -1.286147e+00 -2.676395e-01 7.921801e-01 -3.118646e-01 -1.214464e-01 -3.408232e-01 -2.094735e-01 -1.214477e-01 -8.921976e-02 6.212712e-14 8.921976e-02 1.214477e-01 2.094735e-01 3.408232e-01 1.214464e-01 3.118646e-01 -7.921801e-01 2.676395e-01 1.286147e+00 3.026776e-01 6.116640e-01 4.231332e-01 4.582026e-01 3.248035e-01 1.890240e-01 
-1.086894e-14 -3.558407e-01 -6.575389e-01 -8.475120e-01 -9.325623e-01 -9.341675e-01 -8.283614e-01 -7.833325e-01 6.427742e-01 2.531630e-02 -5.054116e-01 -3.075962e-02 -1.792333e-01 -1.474949e-01 -1.594928e-01 -1.137968e-01 4.571684e-14 1.137968e-01 1.594928e-01 1.474949e-01 1.792333e-01 3.075962e-02 5.054116e-01 -2.531630e-02 -6.427742e-01 7.833325e-01 8.283614e-01 9.341675e-01 9.325623e-01 8.475120e-01 6.575389e-01 3.558407e-01 
-1.436486e-14 -5.245305e-01 -9.891387e-01 -1.226400e+00 -1.422097e+00 -1.190822e+00 -1.257839e+00 -8.567930e-03 2.417647e-01 -1.047440e+00 -2.768636e-01 -3.434127e-02 -6.545445e-02 -7.327771e-02 -8.101892e-02 -6.206363e-02 -2.702585e-15 6.206363e-02 8.101892e-02 7.327771e-02 6.545445e-02 3.434127e-02 2.768636e-01 1.047440e+00 -2.417647e-01 8.567930e-03 1.257839e+00 1.190822e+00 1.422097e+00 1.226400e+00 9.891387e-01 5.245305e-01 
-1.801791e-14 -5.987978e-01 -1.117121e+00 -1.382536e+00 -1.566133e+00 -1.285916e+00 -1.226677e+00 2.508438e-01 -1.971851e-01 -1.326543e+00 -2.700444e-03 1.975572e-01 1.059329e-01 2.396552e-02 -4.379283e-02 -4.689878e-02 -3.125624e-14 4.689878e-02 4.379283e-02 -2.396552e-02 -1.059329e-01 -1.975572e-01 2.700444e-03 1.326543e+00 1.971851e-01 -2.508438e-01 1.226677e+00 1.285916e+00 1.566133e+00 1.382536e+00 1.117121e+00 5.987978e-01 
6.656026e-15 -5.245305e-01 -9.891387e-01 -1.226400e+00 -1.422097e+00 -1.190822e+00 -1.257839e+00 -8.567930e-03 2.417647e-01 -1.047440e+00 -2.768636e-01 -3.434127e-02 -6.545445e-02 -7.327771e-02 -8.101892e-02 -6.206363e-02 -8.210955e-14 6.206363e-02 8.101892e-02 7.327771e-02 6.545445e-02 3.434127e-02 2.768636e-01 1.047440e+00 -2.417647e-01 8.567930e-03 1.257839e+00 1.190822e+00 1.422097e+00 1.226400e+00 9.891387e-01 5.245305e-01 
-4.578368e-15 -3.558407e-01 -6.575389e-01 -8.475120e-01 -9.325623e-01 -9.341675e-01 -8.283614e-01 -7.833325e-01 6.427742e-01 2.531630e-02 -5.054116e-01 -3.075962e-02 -1.792333e-01 -1.474949e-01 -1.594928e-01 -1.137968e-01 -1.121134e-13 1.137968e-01 1.594928e-01 1.474949e-01 1.792333e-01 3.075962e-02 5.054116e-01 -2.531630e-02 -6.427742e-01 7.833325e-01 8.283614e-01 9.341675e-01 9.325623e-01 8.475120e-01 6.575389e-01 3.558407e-01 
-3.110518e-14 -1.890240e-01 -3.248035e-01 -4.582026e-01 -4.231332e-01 -6.116640e-01 -3.026776e-01 -1.286147e+00 -2.676395e-01 7.921801e-01 -3.118646e-01 -1.214464e-01 -3.408232e-01 -2.094735e-01 -1.214477e-01 -8.921976e-02 -1.372514e-13 8.921976e-02 1.214477e-01 2.094735e-01 3.408232e-01 1.214464e-01 3.118646e-01 -7.921801e-01 2.676395e-01 1.286147e+00 3.026776e-01 6.116640e-01 4.231332e-01 4.582026e-01 3.248035e-01 1.890240e-01 
-4.354076e-14 -5.290506e-02 -7.946729e-02 -1.345523e-01 -1.072009e-01 -2.266235e-01 -1.572733e-01 -7.526675e-01 -1.122503e+00 4.887187e-01 1.536719e-01 -1.398226e-01 -1.733764e-02 -1.927084e-01 -1.621712e-01 -1.376818e-01 -4.733956e-14 1.376818e-01 1.621712e-01 1.927084e-01 1.733764e-02 1.398226e-01 -1.536719e-01 -4.887187e-01 1.122503e+00 7.526675e-01 1.572733e-01 2.266235e-01 1.072009e-01 1.345523e-01 7.946729e-02 5.290506e-02 
-7.249835e-14 4.983504e-02 1.083027e-01 1.147310e-01 1.531931e-01 1.096756e-01 9.391782e-02 -3.591718e-02 -8.844678e-01 -4.436684e-01 -2.776188e-02 -3.087666e-01 2.306963e-01 4.227196e-01 3.396837e-01 2.615218e-01 1.831414e-13 -2.615218e-01 -3.396837e-01 -4.227196e-01 -2.306963e-01 3.087666e-01 2.776188e-02 4.436684e-01 8.844678e-01 3.591718e-02 -9.391782e-02 -1.096756e-01 -1.531931e-01 -1.147310e-01 -1.083027e-01 -4.983504e-02 
-7.167283e-14 1.251268e-01 2.420563e-01 3.029483e-01 3.597690e-01 3.599259e-01 3.862495e-01 3.739732e-01 -3.487852e-02 -3.230173e-01 1.313257e-01 -3.299494e-01 -6.469765e-01 -2.433556e-01 -1.925946e-02 2.315326e-01 7.812136e-13 -2.315326e-01 1.925946e-02 2.433556e-01 6.469765e-01 3.299494e-01 -1.313257e-01 3.230173e-01 3.487852e-02 -3.739732e-01 -3.862495e-01 -3.599259e-01 -3.597690e-01 -3.029483e-01 -2.420563e-01 -1.251268e-01 
-8.673302e-14 1.768463e-01 3.318347e-01 4.356284e-01 4.979669e-01 5.365089e-01 5.319176e-01 6.058976e-01 5.424521e-01 6.028827e-01 8.432136e-01 1.130603e+00 5.168333e-01 -2.598890e-01 -6.058850e-01 -4.629293e-01 7.278498e-13 4.629293e-01 6.058850e-01 2.598890e-01 -5.168333e-01 -1.130603e+00 -8.432136e-01 -6.028827e-01 -5.424521e-01 -6.058976e-01 -5.319176e-01 -5.365089e-01 -4.979669e-01 -4.356284e-01 -3.318347e-01 -1.768463e-01 
-7.536172e-14 2.024056e-01 3.757412e-01 4.996662e-01 5.682273e-01 6.123663e-01 5.995383e-01 6.483634e-01 5.547828e-01 6.929282e-01 6.673638e-01 1.169454e+00 1.569239e+00 1.568137e+00 1.364710e+00 5.005571e-01 -7.412411e-13 -5.005571e-01 -1.364710e+00 -1.568137e+00 -1.569239e+00 -1.169454e+00 -6.673638e-01 -6.929282e-01 -5.547828e-01 -6.483634e-01 -5.995383e-01 -6.123663e-01 -5.682273e-01 -4.996662e-01 -3.757412e-01 -2.024056e-01 
-6.918535e-14 2.066543e-01 3.806436e-01 5.118045e-01 5.804680e-01 6.310582e-01 6.249716e-01 6.627171e-01 6.278212e-01 6.747688e-01 6.260750e-01 4.829129e-01 8.533618e-01 1.293744e+00 1.598009e+00 1.067073e+00 -1.069101e-12 -1.067073e+00 -1.598009e+00 -1.293744e+00 -8.533618e-01 -4.829129e-01 -6.260750e-01 -6.747688e-01 -6.278212e-01 -6.627171e-01 -6.249716e-01 -6.310582e-01 -5.804680e-01 -5.118045e-01 -3.806436e-01 -2.066543e-01 
-5.321585e-14 1.894184e-01 3.473811e-01 4.668446e-01 5.272236e-01 5.693883e-01 5.622891e-01 5.872815e-01 5.670211e-01 6.031979e-01 6.526014e-01 6.104734e-01 7.285020e-01 5.829961e-01 4.703258e-01 4.750881e-01 -6.550791e-13 -4.750881e-01 -4.703258e-01 -5.829961e-01 -7.285020e-01 -6.104734e-01 -6.526014e-01 -6.031979e-01 -5.670211e-01 -5.872815e-01 -5.622891e-01 -5.693883e-01 -5.272236e-01 -4.668446e-01 -3.473811e-01 -1.894184e-01 
-4.076907e-14 1.595787e-01 2.906947e-01 3.889247e-01 4.339032e-01 4.603401e-01 4.451416e-01 4.421974e-01 4.114181e-01 3.938412e-01 3.838464e-01 3.202669e-01 3.720860e-01 3.771183e-01 2.234336e-01 1.456968e-01 -2.494475e-13 -1.456968e-01 -2.234336e-01 -3.771183e-01 -3.720860e-01 -3.202669e-01 -3.838464e-01 -3.938412e-01 -4.114181e-01 -4.421974e-01 -4.451416e-01 -4.603401e-01 -4.339032e-01 -3.889247e-01 -2.906947e-01 -1.595787e-01 
-3.453198e-14 1.223837e-01 2.204073e-01 2.900585e-01 3.131422e-01 3.164314e-01 2.814536e-01 2.477399e-01 1.908915e-01 1.380170e-01 9.435201e-02 1.149116e-02 -3.513904e-02 -1.379740e-01 -2.533745e-01 -1.865716e-01 9.246491e-14 1.865716e-01 2.533745e-01 1.379740e-01 3.513904e-02 -1.149116e-02 -9.435201e-02 -1.380170e-01 -1.908915e-01 -2.477399e-01 -2.814536e-01 -3.164314e-01 -3.131422e-01 -2.900585e-01 -2.204073e-01 -1.223837e-01 
-2.635871e-14 8.587266e-02 1.507673e-01 1.900426e-01 1.867453e-01 1.585909e-01 9.153646e-02 1.111583e-02 -9.089501e-02 -1.964395e-01 -2.885836e-01 -3.843885e-01 -4.327145e-01 -4.662981e-01 -4.636955e-01 -3.291889e-01 1.729941e-13 3.291889e-01 4.636955e-01 4.662981e-01 4.327145e-01 3.843885e-01 2.885836e-01 1.964395e-01 9.089501e-02 -1.111583e-02 -9.153646e-02 -1.585909e-01 -1.867453e-01 -1.900426e-01 -1.507673e-01 -8.587266e-02 
-2.538043e-14 5.507711e-02 9.134477e-02 1.029745e-01 7.294094e-02 1.243265e-02 -9.115227e-02 -2.180833e-01 -3.686507e-01 -5.252349e-01 -6.629854e-01 -7.865444e-01 -8.437894e-01 -8.437603e-01 -7.338245e-01 -4.617087e-01 2.110997e-13 4.617087e-01 7.338245e-01 8.437603e-01 8.437894e-01 7.865444e-01 6.629854e-01 5.252349e-01 3.686507e-01 2.180833e-01 9.115227e-02 -1.243265e-02 -7.294094e-02 -1.029745e-01 -9.134477e-02 -5.507711e-02 
-1.934151e-14 3.476752e-02 5.169929e-02 4.347130e-02 -7.046721e-03 -9.368741e-02 -2.269689e-01 -3.912958e-01 -5.804539e-01 -7.761246e-01 -9.480614e-01 -1.084840e+00 -1.133985e+00 -1.084643e+00 -8.890790e-01 -5.308899e-01 1.342374e-13 5.308899e-01 8.890790e-01 1.084643e+00 1.133985e+00 1.084840e+00 9.480614e-01 7.761246e-01 5.804539e-01 3.912958e-01 2.269689e-01 9.368741e-02 7.046721e-03 -4.347130e-02 -5.169929e-02 -3.476752e-02 
