# vtk DataFile Version 2.0
Comment goes here
ASCII

DATASET STRUCTURED_POINTS
FIELD FieldData 1
TIME 1 1 double
0.12000000
DIMENSIONS    32   32   1

ORIGIN    0.000   0.000   0.000
SPACING   0.03125 0.03125   1.000

POINT_DATA   1024
SCALARS uX double
LOOKUP_TABLE default

5.736776e-16 -1.770873e-01 -3.538048e-01 -5.295089e-01 -7.000936e-01 -8.653850e-01 -1.010569e+00 -1.140031e+00 -1.225082e+00 -1.278605e+00 -1.262953e+00 -1.202304e+00 -1.068823e+00 -9.020078e-01 -6.812967e-01 -4.054580e-01 -4.187845e-15 4.054580e-01 6.812967e-01 9.020078e-01 1.068823e+00 1.202304e+00 1.262953e+00 1.278605e+00 1.225082e+00 1.140031e+00 1.010569e+00 8.653850e-01 7.000936e-01 5.295089e-01 3.538048e-01 1.770873e-01 
1.898264e-15 -1.779374e-01 -3.549502e-01 -5.336153e-01 -7.055592e-01 -8.763997e-01 -1.024606e+00 -1.160341e+00 -1.248376e+00 -1.304926e+00 -1.288014e+00 -1.227962e+00 -1.095838e+00 -9.342080e-01 -7.185907e-01 -4.264616e-01 -4.295267e-15 4.264616e-01 7.185907e-01 9.342080e-01 1.095838e+00 1.227962e+00 1.288014e+00 1.304926e+00 1.248376e+00 1.160341e+00 1.024606e+00 8.763997e-01 7.055592e-01 5.336153e-01 3.549502e-01 1.779374e-01 
2.143318e-15 -1.778774e-01 -3.574194e-01 -5.374928e-01 -7.176402e-01 -8.954268e-01 -1.057957e+00 -1.207820e+00 -1.312768e+00 -1.384369e+00 -1.375862e+00 -1.312526e+00 -1.170065e+00 -9.995344e-01 -7.668298e-01 -4.284644e-01 -3.539157e-15 4.284644e-01 7.668298e-01 9.995344e-01 1.170065e+00 1.312526e+00 1.375862e+00 1.384369e+00 1.312768e+00 1.207820e+00 1.057957e+00 8.954268e-01 7.176402e-01 5.374928e-01 3.574194e-01 1.778774e-01 
3.234139e-15 -1.779405e-01 -3.589491e-01 -5.459516e-01 -7.364548e-01 -9.343222e-01 -1.119362e+00 -1.300667e+00 -1.432448e+00 -1.524217e+00 -1.517585e+00 -1.448473e+00 -1.283707e+00 -1.068425e+00 -7.607897e-01 -3.700834e-01 -6.383410e-15 3.700834e-01 7.607897e-01 1.068425e+00 1.283707e+00 1.448473e+00 1.517585e+00 1.524217e+00 1.432448e+00 1.300667e+00 1.119362e+00 9.343222e-01 7.364548e-01 5.459516e-01 3.589491e-01 1.779405e-01 
5.512761e-15 -1.746435e-01 -3.579778e-01 -5.466128e-01 -7.544673e-01 -9.701481e-01 -1.192161e+00 -1.417919e+00 -1.601157e+00 -1.756330e+00 -1.797839e+00 -1.731852e+00 -1.514090e+00 -1.206715e+00 -7.841104e-01 -3.549558e-01 -5.057995e-15 3.549558e-01 7.841104e-01 1.206715e+00 1.514090e+00 1.731852e+00 1.797839e+00 1.756330e+00 1.601157e+00 1.417919e+00 1.192161e+00 9.701481e-01 7.544673e-01 5.466128e-01 3.579778e-01 1.746435e-01 
4.802931e-15 -1.655537e-01 -3.438887e-01 -5.371828e-01 -7.614029e-01 -1.015795e+00 -1.294635e+00 -1.614613e+00 -1.903103e+00 -2.157923e+00 -2.263045e+00 -2.217336e+00 -1.925387e+00 -1.497164e+00 -9.751123e-01 -4.783535e-01 -2.384952e-15 4.783535e-01 9.751123e-01 1.497164e+00 1.925387e+00 2.217336e+00 2.263045e+00 2.157923e+00 1.903103e+00 1.614613e+00 1.294635e+00 1.015795e+00 7.614029e-01 5.371828e-01 3.438887e-01 1.655537e-01 
5.575261e-15 -1.485542e-01 -3.199143e-01 -5.045840e-01 -7.537244e-01 -1.033933e+00 -1.397287e+00 -1.841075e+00 -2.325783e+00 -2.875917e+00 -3.109850e+00 -2.840342e+00 -2.198958e+00 -1.608986e+00 -1.063162e+00 -5.705902e-01 -8.125203e-15 5.705902e-01 1.063162e+00 1.608986e+00 2.198958e+00 2.840342e+00 3.109850e+00 2.875917e+00 2.325783e+00 1.841075e+00 1.397287e+00 1.033933e+00 7.537244e-01 5.045840e-01 3.199143e-01 1.485542e-01 
1.527561e-15 -1.123885e-01 -2.546778e-01 -4.221138e-01 -6.787746e-01 -1.016065e+00 -1.529367e+00 -2.352319e+00 -3.244999e+00 -3.608201e+00 -3.066692e+00 -2.212780e+00 -1.517228e+00 -1.134915e+00 -6.460673e-01 -3.153785e-01 -4.286325e-14 3.153785e-01 6.460673e-01 1.134915e+00 1.517228e+00 2.212780e+00 3.066692e+00 3.608201e+00 3.244999e+00 2.352319e+00 1.529367e+00 1.016065e+00 6.787746e-01 4.221138e-01 2.546778e-01 1.123885e-01 
3.144838e-15 -6.336275e-02 -1.692367e-01 -3.013001e-01 -5.940546e-01 -9.743124e-01 -1.731432e+00 -2.622446e+00 -2.791666e+00 -1.780739e+00 -4.312130e-01 3.167104e-01 5.239591e-01 4.189651e-01 4.900026e-01 3.514499e-01 -5.774988e-14 -3.514499e-01 -4.900026e-01 -4.189651e-01 -5.239591e-01 -3.167104e-01 4.312130e-01 1.780739e+00 2.791666e+00 2.622446e+00 1.731432e+00 9.743124e-01 5.940546e-01 3.013001e-01 1.692367e-01 6.336275e-02 
-3.039395e-15 2.457137e-02 -8.336038e-04 -5.695256e-02 -3.146170e-01 -7.016206e-01 -1.283525e+00 -1.598691e+00 -1.124862e-01 1.537696e+00 2.707196e+00 3.122745e+00 3.181964e+00 2.877364e+00 2.113932e+00 1.122958e+00 -2.654778e-15 -1.122958e+00 -2.113932e+00 -2.877364e+00 -3.181964e+00 -3.122745e+00 -2.707196e+00 -1.537696e+00 1.124862e-01 1.598691e+00 1.283525e+00 7.016206e-01 3.146170e-01 5.695256e-02 8.336038e-04 -2.457137e-02 
-1.039470e-15 1.295841e-01 2.199720e-01 2.445723e-01 3.469588e-02 4.103563e-02 -4.141396e-01 5.069754e-01 2.681558e+00 3.758523e+00 4.368489e+00 4.205832e+00 3.652431e+00 3.008005e+00 1.989180e+00 9.765815e-01 2.322934e-14 -9.765815e-01 -1.989180e+00 -3.008005e+00 -3.652431e+00 -4.205832e+00 -4.368489e+00 -3.758523e+00 -2.681558e+00 -5.069754e-01 4.141396e-01 -4.103563e-02 -3.469588e-02 -2.445723e-01 -2.199720e-01 -1.295841e-01 
-8.059279e-15 2.775135e-01 5.254649e-01 7.301853e-01 6.994959e-01 1.064663e+00 3.332274e-01 2.680067e+00 4.059982e+00 4.027665e+00 3.074913e+00 1.859376e+00 1.215250e+00 8.141800e-01 4.425630e-01 2.099001e-01 1.905702e-14 -2.099001e-01 -4.425630e-01 -8.141800e-01 -1.215250e+00 -1.859376e+00 -3.074913e+00 -4.027665e+00 -4.059982e+00 -2.680067e+00 -3.332274e-01 -1.064663e+00 -6.994959e-01 -7.301853e-01 -5.254649e-01 -2.775135e-01 
-4.671102e-15 4.155185e-01 9.127168e-01 1.053839e+00 1.732259e+00 1.069577e+00 1.666241e+00 3.677946e+00 3.100182e+00 1.847174e+00 5.083679e-01 -1.380557e-01 -1.247673e-01 -3.335716e-02 -1.352347e-02 2.360228e-03 1.270611e-14 -2.360228e-03 1.352347e-02 3.335716e-02 1.247673e-01 1.380557e-01 -5.083679e-01 -1.847174e+00 -3.100182e+00 -3.677946e+00 -1.666241e+00 -1.069577e+00 -1.732259e+00 -1.053839e+00 -9.127168e-01 -4.155185e-01 
-7.806839e-15 4.513778e-01 1.034820e+00 1.420446e+00 1.736337e+00 9.410050e-01 3.253630e+00 3.231690e+00 1.841504e+00 1.083538e+00 5.358226e-01 4.617609e-01 2.334316e-01 1.556447e-01 9.654406e-02 4.903783e-02 4.041901e-15 -4.903783e-02 -9.654406e-02 -1.556447e-01 -2.334316e-01 -4.617609e-01 -5.358226e-01 -1.083538e+00 -1.841504e+00 -3.231690e+00 -3.253630e+00 -9.410050e-01 -1.736337e+00 -1.420446e+00 -1.034820e+00 -4.513778e-01 
-9.963168e-15 3.606076e-01 8.125229e-01 1.264754e+00 7.359039e-01 1.949297e+00 3.378390e+00 2.240227e+00 1.604241e+00 1.672322e+00 1.398523e+00 1.123424e+00 6.445852e-01 3.944582e-01 2.239309e-01 1.058698e-01 4.067377e-15 -1.058698e-01 -2.239309e-01 -3.944582e-01 -6.445852e-01 -1.123424e+00 -1.398523e+00 -1.672322e+00 -1.604241e+00 -2.240227e+00 -3.378390e+00 -1.949297e+00 -7.359039e-01 -1.264754e+00 -8.125229e-01 -3.606076e-01 
1.745747e-14 -1.196426e-01 -2.469854e-01 -5.481511e-02 7.609752e-01 2.538534e+00 2.664638e+00 2.114876e+00 2.039926e+00 1.946369e+00 1.817404e+00 1.662669e+00 1.191516e+00 7.875230e-01 4.475213e-01 2.083808e-01 -1.572395e-15 -2.083808e-01 -4.475213e-01 -7.875230e-01 -1.191516e+00 -1.662669e+00 -1.817404e+00 -1.946369e+00 -2.039926e+00 -2.114876e+00 -2.664638e+00 -2.538534e+00 -7.609752e-01 5.481511e-02 2.469854e-01 1.196426e-01 
1.119108e-14 -5.054573e-01 -1.127522e+00 -8.168409e-01 1.334150e+00 2.493207e+00 2.507262e+00 2.468255e+00 2.515865e+00 2.317279e+00 2.141722e+00 1.955923e+00 1.442632e+00 9.563350e-01 5.303220e-01 2.409560e-01 -1.345899e-15 -2.409560e-01 -5.303220e-01 -9.563350e-01 -1.442632e+00 -1.955923e+00 -2.141722e+00 -2.317279e+00 -2.515865e+00 -2.468255e+00 -2.507262e+00 -2.493207e+00 -1.334150e+00 8.168409e-01 1.127522e+00 5.054573e-01 
-1.831354e-14 -1.196426e-01 -2.469854e-01 -5.481511e-02 7.609752e-01 2.538534e+00 2.664638e+00 2.114876e+00 2.039926e+00 1.946369e+00 1.817404e+00 1.662669e+00 1.191516e+00 7.875230e-01 4.475213e-01 2.083808e-01 -3.525023e-15 -2.083808e-01 -4.475213e-01 -7.875230e-01 -1.191516e+00 -1.662669e+00 -1.817404e+00 -1.946369e+00 -2.039926e+00 -2.114876e+00 -2.664638e+00 -2.538534e+00 -7.609752e-01 5.481511e-02 2.469854e-01 1.196426e-01 
2.389678e-14 3.606076e-01 8.125229e-01 1.264754e+00 7.359039e-01 1.949297e+00 3.378390e+00 2.240227e+00 1.604241e+00 1.672322e+00 1.398523e+00 1.123424e+00 6.445852e-01 3.944582e-01 2.239309e-01 1.058698e-01 -1.150271e-14 -1.058698e-01 -2.239309e-01 -3.944582e-01 -6.445852e-01 -1.123424e+00 -1.398523e+00 -1.672322e+00 -1.604241e+00 -2.240227e+00 -3.378390e+00 -1.949297e+00 -7.359039e-01 -1.264754e+00 -8.125229e-01 -3.606076e-01 
-1.270832e-15 4.513778e-01 1.034820e+00 1.420446e+00 1.736337e+00 9.410050e-01 3.253630e+00 3.231690e+00 1.841504e+00 1.083538e+00 5.358226e-01 4.617609e-01 2.334316e-01 1.556447e-01 9.654406e-02 4.903783e-02 -1.494903e-14 -4.903783e-02 -9.654406e-02 -1.556447e-01 -2.334316e-01 -4.617609e-01 -5.358226e-01 -1.083538e+00 -1.841504e+00 -3.231690e+00 -3.253630e+00 -9.410050e-01 -1.736337e+00 -1.420446e+00 -1.034820e+00 -4.513778e-01 
8.561626e-15 4.155185e-01 9.127168e-01 1.053839e+00 1.732259e+00 1.069577e+00 1.666241e+00 3.677946e+00 3.100182e+00 1.847174e+00 5.083679e-01 -1.380557e-01 -1.247673e-01 -3.335716e-02 -1.352347e-02 2.360228e-03 -2.690589e-14 -2.360228e-03 1.352347e-02 3.335716e-02 1.247673e-01 1.380557e-01 -5.083679e-01 -1.847174e+00 -3.100182e+00 -3.677946e+00 -1.666241e+00 -1.069577e+00 -1.732259e+00 -1.053839e+00 -9.127168e-01 -4.155185e-01 
1.144271e-14 2.775135e-01 5.254649e-01 7.301853e-01 6.994959e-01 1.064663e+00 3.332274e-01 2.680067e+00 4.059982e+00 4.027665e+00 3.074913e+00 1.859376e+00 1.215250e+00 8.141800e-01 4.425630e-01 2.099001e-01 -3.282178e-14 -2.099001e-01 -4.425630e-01 -8.141800e-01 -1.215250e+00 -1.859376e+00 -3.074913e+00 -4.027665e+00 -4.059982e+00 -2.680067e+00 -3.332274e-01 -1.064663e+00 -6.994959e-01 -7.301853e-01 -5.254649e-01 -2.775135e-01 
-3.597473e-15 1.295841e-01 2.199720e-01 2.445723e-01 3.469588e-02 4.103563e-02 -4.141396e-01 5.069754e-01 2.681558e+00 3.758523e+00 4.368489e+00 4.205832e+00 3.652431e+00 3.008005e+00 1.989180e+00 9.765815e-01 -5.691326e-15 -9.765815e-01 -1.989180e+00 -3.008005e+00 -3.652431e+00 -4.205832e+00 -4.368489e+00 -3.758523e+00 -2.681558e+00 -5.069754e-01 4.141396e-01 -4.103563e-02 -3.469588e-02 -2.445723e-01 -2.199720e-01 -1.295841e-01 
1.209196e-14 2.457137e-02 -8.336038e-04 -5.695256e-02 -3.146170e-01 -7.016206e-01 -1.283525e+00 -1.598691e+00 -1.124862e-01 1.537696e+00 2.707196e+00 3.122745e+00 3.181964e+00 2.877364e+00 2.113932e+00 1.122958e+00 9.158869e-14 -1.122958e+00 -2.113932e+00 -2.877364e+00 -3.181964e+00 -3.122745e+00 -2.707196e+00 -1.537696e+00 1.124862e-01 1.598691e+00 1.283525e+00 7.016206e-01 3.146170e-01 5.695256e-02 8.336038e-04 -2.457137e-02 
-5.861399e-15 -6.336275e-02 -1.692367e-01 -3.013001e-01 -5.940546e-01 -9.743124e-01 -1.731432e+00 -2.622446e+00 -2.791666e+00 -1.780739e+00 -4.312130e-01 3.167104e-01 5.239591e-01 4.189651e-01 4.900026e-01 3.514499e-01 1.522909e-13 -3.514499e-01 -4.900026e-01 -4.189651e-01 -5.239591e-01 -3.167104e-01 4.312130e-01 1.780739e+00 2.791666e+00 2.622446e+00 1.731432e+00 9.743124e-01 5.940546e-01 3.013001e-01 1.692367e-01 6.336275e-02 
6.384855e-15 -1.123885e-01 -2.546778e-01 -4.221138e-01 -6.787746e-01 -1.016065e+00 -1.529367e+00 -2.352319e+00 -3.244999e+00 -3.608201e+00 -3.066692e+00 -2.212780e+00 -1.517228e+00 -1.134915e+00 -6.460673e-01 -3.153785e-01 8.189635e-14 3.153785e-01 6.460673e-01 1.134915e+00 1.517228e+00 2.212780e+00 3.066692e+00 3.608201e+00 3.244999e+00 2.352319e+00 1.529367e+00 1.016065e+00 6.787746e-01 4.221138e-01 2.546778e-01 1.123885e-01 
-5.719087e-15 -1.485542e-01 -3.199143e-01 -5.045840e-01 -7.537244e-01 -1.033933e+00 -1.397287e+00 -1.841075e+00 -2.325783e+00 -2.875917e+00 -3.109850e+00 -2.840342e+00 -2.198958e+00 -1.608986e+00 -1.063162e+00 -5.705902e-01 -1.179624e-14 5.705902e-01 1.063162e+00 1.608986e+00 2.198958e+00 2.840342e+00 3.109850e+00 2.875917e+00 2.325783e+00 1.841075e+00 1.397287e+00 1.033933e+00 7.537244e-01 5.045840e-01 3.199143e-01 1.485542e-01 
6.429771e-16 -1.655537e-01 -3.438887e-01 -5.371828e-01 -7.614029e-01 -1.015795e+00 -1.294635e+00 -1.614613e+00 -1.903103e+00 -2.157923e+00 -2.263045e+00 -2.217336e+00 -1.925387e+00 -1.497164e+00 -9.751123e-01 -4.783535e-01 -3.255843e-14 4.783535e-01 9.751123e-01 1.497164e+00 1.925387e+00 2.217336e+00 2.263045e+00 2.157923e+00 1.903103e+00 1.614613e+00 1.294635e+00 1.015795e+00 7.614029e-01 5.371828e-01 3.438887e-01 1.655537e-01 
-5.652367e-15 -1.746435e-01 -3.579778e-01 -5.466128e-01 -7.544673e-01 -9.701481e-01 -1.192161e+00 -1.417919e+00 -1.601157e+00 -1.756330e+00 -1.797839e+00 -1.731852e+00 -1.514090e+00 -1.206715e+00 -7.841104e-01 -3.549558e-01 -2.155031e-14 3.549558e-01 7.841104e-01 1.206715e+00 1.514090e+00 1.731852e+00 1.797839e+00 1.756330e+00 1.601157e+00 1.417919e+00 1.192161e+00 9.701481e-01 7.544673e-01 5.466128e-01 3.579778e-01 1.746435e-01 
3.736650e-17 -1.779405e-01 -3.589491e-01 -5.459516e-01 -7.364548e-01 -9.343222e-01 -1.119362e+00 -1.300667e+00 -1.432448e+00 -1.524217e+00 -1.517585e+00 -1.448473e+00 -1.283707e+00 -1.068425e+00 -7.607897e-01 -3.700834e-01 -2.114163e-14 3.700834e-01 7.607897e-01 1.068425e+00 1.283707e+00 1.448473e+00 1.517585e+00 1.524217e+00 1.432448e+00 1.300667e+00 1.119362e+00 9.343222e-01 7.364548e-01 5.459516e-01 3.589491e-01 1.779405e-01 
-1.822658e-15 -1.778774e-01 -3.574194e-01 -5.374928e-01 -7.176402e-01 -8.954268e-01 -1.057957e+00 -1.207820e+00 -1.312768e+00 -1.384369e+00 -1.375862e+00 -1.312526e+00 -1.170065e+00 -9.995344e-01 -7.668298e-01 -4.284644e-01 -1.256862e-14 4.284644e-01 7.668298e-01 9.995344e-01 1.170065e+00 1.312526e+00 1.375862e+00 1.384369e+00 1.312768e+00 1.207820e+00 1.057957e+00 8.954268e-01 7.176402e-01 5.374928e-01 3.574194e-01 1.778774e-01 
1.981744e-15 -1.779374e-01 -3.549502e-01 -5.336153e-01 -7.055592e-01 -8.763997e-01 -1.024606e+00 -1.160341e+00 -1.248376e+00 -1.304926e+00 -1.288014e+00 -1.227962e+00 -1.095838e+00 -9.342080e-01 -7.185907e-01 -4.264616e-01 -8.421915e-15 4.264616e-01 7.185907e-01 9.342080e-01 1.095838e+00 1.227962e+00 1.288014e+00 1.304926e+00 1.248376e+00 1.160341e+00 1.024606e+00 8.763997e-01 7.055592e-01 5.336153e-01 3.549502e-01 1.779374e-01 
