# vtk DataFile Version 2.0
Comment goes here
ASCII

DATASET STRUCTURED_POINTS
FIELD FieldData 1
TIME 1 1 double
0.80000000
DIMENSIONS    32   32   1

ORIGIN    0.000   0.000   0.000
SPACING   0.03125 0.03125   1.000

POINT_DATA   1024
SCALARS uX double
LOOKUP_TABLE default

7.522252e-16 5.454068e-03 -1.025197e-03 -2.874622e-02 -8.702437e-02 -1.827268e-01 -3.170866e-01 -4.927139e-01 -6.893241e-01 -9.005768e-01 -1.086433e+00 -1.238682e+00 -1.304427e+00 -1.251815e+00 -1.026346e+00 -5.758533e-01 1.725511e-14 5.758533e-01 1.026346e+00 1.251815e+00 1.304427e+00 1.238682e+00 1.086433e+00 9.005768e-01 6.893241e-01 4.927139e-01 3.170866e-01 1.827268e-01 8.702437e-02 2.874622e-02 1.025197e-03 -5.454068e-03 
-1.289305e-15 9.352254e-03 6.408744e-03 -1.693421e-02 -7.058379e-02 -1.584804e-01 -2.833789e-01 -4.455375e-01 -6.279641e-01 -8.234680e-01 -9.928010e-01 -1.130113e+00 -1.176417e+00 -1.119295e+00 -8.885596e-01 -4.883262e-01 2.580765e-14 4.883262e-01 8.885596e-01 1.119295e+00 1.176417e+00 1.130113e+00 9.928010e-01 8.234680e-01 6.279641e-01 4.455375e-01 2.833789e-01 1.584804e-01 7.058379e-02 1.693421e-02 -6.408744e-03 -9.352254e-03 
-5.712859e-15 2.634018e-02 3.999091e-02 3.396365e-02 4.730694e-04 -6.117723e-02 -1.510115e-01 -2.696420e-01 -4.007179e-01 -5.435412e-01 -6.612660e-01 -7.596188e-01 -7.901840e-01 -7.580347e-01 -6.243669e-01 -3.395828e-01 2.589855e-14 3.395828e-01 6.243669e-01 7.580347e-01 7.901840e-01 7.596188e-01 6.612660e-01 5.435412e-01 4.007179e-01 2.696420e-01 1.510115e-01 6.117723e-02 -4.730694e-04 -3.396365e-02 -3.999091e-02 -2.634018e-02 
-6.789287e-15 4.936242e-02 8.380219e-02 9.882629e-02 8.611684e-02 5.334102e-02 -8.734923e-04 -7.072746e-02 -1.473851e-01 -2.308415e-01 -2.957805e-01 -3.549366e-01 -3.556976e-01 -3.216272e-01 -1.925063e-01 -7.156317e-02 9.343198e-15 7.156317e-02 1.925063e-01 3.216272e-01 3.556976e-01 3.549366e-01 2.957805e-01 2.308415e-01 1.473851e-01 7.072746e-02 8.734923e-04 -5.334102e-02 -8.611684e-02 -9.882629e-02 -8.380219e-02 -4.936242e-02 
-1.459172e-14 8.156674e-02 1.445419e-01 1.854535e-01 1.962850e-01 1.920904e-01 1.738613e-01 1.513359e-01 1.342441e-01 1.139283e-01 1.168887e-01 1.065273e-01 1.653856e-01 1.697205e-01 8.540059e-02 2.756837e-02 -2.825399e-14 -2.756837e-02 -8.540059e-02 -1.697205e-01 -1.653856e-01 -1.065273e-01 -1.168887e-01 -1.139283e-01 -1.342441e-01 -1.513359e-01 -1.738613e-01 -1.920904e-01 -1.962850e-01 -1.854535e-01 -1.445419e-01 -8.156674e-02 
-1.354090e-14 1.160695e-01 2.075136e-01 2.724955e-01 2.988352e-01 3.133449e-01 3.130851e-01 3.194368e-01 3.328436e-01 3.490047e-01 3.625217e-01 3.589979e-01 4.957632e-01 7.284368e-01 9.560012e-01 7.072773e-01 -1.773493e-14 -7.072773e-01 -9.560012e-01 -7.284368e-01 -4.957632e-01 -3.589979e-01 -3.625217e-01 -3.490047e-01 -3.328436e-01 -3.194368e-01 -3.130851e-01 -3.133449e-01 -2.988352e-01 -2.724955e-01 -2.075136e-01 -1.160695e-01 
-2.049182e-14 1.522228e-01 2.730611e-01 3.611541e-01 3.989284e-01 4.241294e-01 4.306348e-01 4.512600e-01 4.888157e-01 5.402663e-01 6.111318e-01 8.126640e-01 1.578140e+00 2.229955e+00 1.915374e+00 9.113453e-01 8.966303e-14 -9.113453e-01 -1.915374e+00 -2.229955e+00 -1.578140e+00 -8.126640e-01 -6.111318e-01 -5.402663e-01 -4.888157e-01 -4.512600e-01 -4.306348e-01 -4.241294e-01 -3.989284e-01 -3.611541e-01 -2.730611e-01 -1.522228e-01 
-1.206919e-14 1.821174e-01 3.261069e-01 4.331787e-01 4.753272e-01 5.050017e-01 5.067726e-01 5.300168e-01 5.848498e-01 6.897470e-01 8.726241e-01 1.427279e+00 1.749240e+00 9.084879e-01 -3.514174e-01 -6.105262e-01 1.961174e-13 6.105262e-01 3.514174e-01 -9.084879e-01 -1.749240e+00 -1.427279e+00 -8.726241e-01 -6.897470e-01 -5.848498e-01 -5.300168e-01 -5.067726e-01 -5.050017e-01 -4.753272e-01 -4.331787e-01 -3.261069e-01 -1.821174e-01 
-1.087543e-14 2.004058e-01 3.582059e-01 4.780470e-01 5.185400e-01 5.471502e-01 5.279353e-01 5.344595e-01 5.958742e-01 6.880970e-01 6.895840e-01 8.046291e-01 -2.138303e-01 -1.588035e+00 -1.233815e+00 -4.648211e-01 5.952915e-14 4.648211e-01 1.233815e+00 1.588035e+00 2.138303e-01 -8.046291e-01 -6.895840e-01 -6.880970e-01 -5.958742e-01 -5.344595e-01 -5.279353e-01 -5.471502e-01 -5.185400e-01 -4.780470e-01 -3.582059e-01 -2.004058e-01 
5.714573e-15 1.989747e-01 3.552610e-01 4.804941e-01 5.137432e-01 5.424241e-01 4.938394e-01 4.693883e-01 5.947210e-01 3.321606e-01 1.581663e-01 -1.118532e-01 -5.327766e-01 -1.801544e-01 6.432895e-01 5.840652e-01 1.736540e-14 -5.840652e-01 -6.432895e-01 1.801544e-01 5.327766e-01 1.118532e-01 -1.581663e-01 -3.321606e-01 -5.947210e-01 -4.693883e-01 -4.938394e-01 -5.424241e-01 -5.137432e-01 -4.804941e-01 -3.552610e-01 -1.989747e-01 
1.437323e-14 1.708385e-01 3.076984e-01 4.286627e-01 4.537526e-01 4.919559e-01 3.930549e-01 3.801524e-01 3.283410e-01 -3.765452e-01 6.802001e-02 -1.136967e-01 -8.398402e-02 6.696510e-01 5.857943e-01 3.384172e-01 -2.791148e-14 -3.384172e-01 -5.857943e-01 -6.696510e-01 8.398402e-02 1.136967e-01 -6.802001e-02 3.765452e-01 -3.283410e-01 -3.801524e-01 -3.930549e-01 -4.919559e-01 -4.537526e-01 -4.286627e-01 -3.076984e-01 -1.708385e-01 
2.868949e-14 1.089521e-01 2.036393e-01 3.109582e-01 3.280985e-01 3.982759e-01 1.901524e-01 4.021510e-01 -3.686294e-01 -4.964233e-01 3.903532e-01 -1.735971e-01 -1.622903e-01 3.296118e-02 -2.432392e-02 -1.317255e-02 -4.568203e-14 1.317255e-02 2.432392e-02 -3.296118e-02 1.622903e-01 1.735971e-01 -3.903532e-01 4.964233e-01 3.686294e-01 -4.021510e-01 -1.901524e-01 -3.982759e-01 -3.280985e-01 -3.109582e-01 -2.036393e-01 -1.089521e-01 
3.291918e-14 9.168131e-03 3.601516e-02 1.044305e-01 1.351967e-01 2.185381e-01 2.509635e-02 2.636333e-01 -9.804972e-01 -8.950358e-04 2.117851e-01 -4.707128e-01 -3.108890e-02 -1.906266e-01 -1.581903e-01 -1.455921e-01 -2.882927e-14 1.455921e-01 1.581903e-01 1.906266e-01 3.108890e-02 4.707128e-01 -2.117851e-01 8.950358e-04 9.804972e-01 -2.636333e-01 -2.509635e-02 -2.185381e-01 -1.351967e-01 -1.044305e-01 -3.601516e-02 -9.168131e-03 
2.769741e-14 -1.335675e-01 -2.063844e-01 -2.193087e-01 -1.454050e-01 -1.009278e-01 -8.431993e-02 -3.379541e-01 -6.622651e-01 3.582033e-01 -7.430224e-02 -2.618518e-01 -5.722107e-02 -1.658289e-01 -1.322608e-01 -1.062569e-01 -1.246015e-14 1.062569e-01 1.322608e-01 1.658289e-01 5.722107e-02 2.618518e-01 7.430224e-02 -3.582033e-01 6.622651e-01 3.379541e-01 8.431993e-02 1.009278e-01 1.454050e-01 2.193087e-01 2.063844e-01 1.335675e-01 
1.317597e-14 -3.129590e-01 -5.392607e-01 -7.046914e-01 -6.929098e-01 -7.603943e-01 -5.947361e-01 -9.683945e-01 2.868647e-02 1.265275e-01 -3.871158e-01 9.715201e-03 -6.072125e-02 -2.283253e-02 -8.089138e-02 -5.480554e-02 -1.990593e-14 5.480554e-02 8.089138e-02 2.283253e-02 6.072125e-02 -9.715201e-03 3.871158e-01 -1.265275e-01 -2.868647e-02 9.683945e-01 5.947361e-01 7.603943e-01 6.929098e-01 7.046914e-01 5.392607e-01 3.129590e-01 
-7.186789e-15 -5.312609e-01 -9.763473e-01 -1.359710e+00 -1.486132e+00 -1.552979e+00 -1.135277e+00 -8.667738e-01 2.938293e-01 -1.783827e-01 -4.207815e-01 2.460739e-01 3.939857e-02 1.170192e-01 -1.022260e-02 -1.497422e-03 1.006587e-14 1.497422e-03 1.022260e-02 -1.170192e-01 -3.939857e-02 -2.460739e-01 4.207815e-01 1.783827e-01 -2.938293e-01 8.667738e-01 1.135277e+00 1.552979e+00 1.486132e+00 1.359710e+00 9.763473e-01 5.312609e-01 
-2.050850e-14 -6.606203e-01 -1.239480e+00 -1.745294e+00 -1.933507e+00 -1.921858e+00 -1.292583e+00 -5.928955e-01 2.998313e-01 -1.950985e-01 -2.116230e-01 4.596671e-01 1.769917e-01 2.322199e-01 4.773536e-02 3.079466e-02 -2.185196e-15 -3.079466e-02 -4.773536e-02 -2.322199e-01 -1.769917e-01 -4.596671e-01 2.116230e-01 1.950985e-01 -2.998313e-01 5.928955e-01 1.292583e+00 1.921858e+00 1.933507e+00 1.745294e+00 1.239480e+00 6.606203e-01 
-1.091408e-14 -5.312609e-01 -9.763473e-01 -1.359710e+00 -1.486132e+00 -1.552979e+00 -1.135277e+00 -8.667738e-01 2.938293e-01 -1.783827e-01 -4.207815e-01 2.460739e-01 3.939857e-02 1.170192e-01 -1.022260e-02 -1.497422e-03 2.174729e-14 1.497422e-03 1.022260e-02 -1.170192e-01 -3.939857e-02 -2.460739e-01 4.207815e-01 1.783827e-01 -2.938293e-01 8.667738e-01 1.135277e+00 1.552979e+00 1.486132e+00 1.359710e+00 9.763473e-01 5.312609e-01 
-2.441935e-14 -3.129590e-01 -5.392607e-01 -7.046914e-01 -6.929098e-01 -7.603943e-01 -5.947361e-01 -9.683945e-01 2.868647e-02 1.265275e-01 -3.871158e-01 9.715201e-03 -6.072125e-02 -2.283253e-02 -8.089138e-02 -5.480554e-02 2.432892e-14 5.480554e-02 8.089138e-02 2.283253e-02 6.072125e-02 -9.715201e-03 3.871158e-01 -1.265275e-01 -2.868647e-02 9.683945e-01 5.947361e-01 7.603943e-01 6.929098e-01 7.046914e-01 5.392607e-01 3.129590e-01 
-3.073119e-14 -1.335675e-01 -2.063844e-01 -2.193087e-01 -1.454050e-01 -1.009278e-01 -8.431993e-02 -3.379541e-01 -6.622651e-01 3.582033e-01 -7.430224e-02 -2.618518e-01 -5.722107e-02 -1.658289e-01 -1.322608e-01 -1.062569e-01 4.046058e-14 1.062569e-01 1.322608e-01 1.658289e-01 5.722107e-02 2.618518e-01 7.430224e-02 -3.582033e-01 6.622651e-01 3.379541e-01 8.431993e-02 1.009278e-01 1.454050e-01 2.193087e-01 2.063844e-01 1.335675e-01 
-2.547675e-14 9.168131e-03 3.601516e-02 1.044305e-01 1.351967e-01 2.185381e-01 2.509635e-02 2.636333e-01 -9.804972e-01 -8.950358e-04 2.117851e-01 -4.707128e-01 -3.108890e-02 -1.906266e-01 -1.581903e-01 -1.455921e-01 4.607284e-14 1.455921e-01 1.581903e-01 1.906266e-01 3.108890e-02 4.707128e-01 -2.117851e-01 8.950358e-04 9.804972e-01 -2.636333e-01 -2.509635e-02 -2.185381e-01 -1.351967e-01 -1.044305e-01 -3.601516e-02 -9.168131e-03 
-1.852140e-14 1.089521e-01 2.036393e-01 3.109582e-01 3.280985e-01 3.982759e-01 1.901524e-01 4.021510e-01 -3.686294e-01 -4.964233e-01 3.903532e-01 -1.735971e-01 -1.622903e-01 3.296118e-02 -2.432392e-02 -1.317255e-02 6.080614e-14 1.317255e-02 2.432392e-02 -3.296118e-02 1.622903e-01 1.735971e-01 -3.903532e-01 4.964233e-01 3.686294e-01 -4.021510e-01 -1.901524e-01 -3.982759e-01 -3.280985e-01 -3.109582e-01 -2.036393e-01 -1.089521e-01 
2.185433e-15 1.708385e-01 3.076984e-01 4.286627e-01 4.537526e-01 4.919559e-01 3.930549e-01 3.801524e-01 3.283410e-01 -3.765452e-01 6.802001e-02 -1.136967e-01 -8.398402e-02 6.696510e-01 5.857943e-01 3.384172e-01 -7.080409e-14 -3.384172e-01 -5.857943e-01 -6.696510e-01 8.398402e-02 1.136967e-01 -6.802001e-02 3.765452e-01 -3.283410e-01 -3.801524e-01 -3.930549e-01 -4.919559e-01 -4.537526e-01 -4.286627e-01 -3.076984e-01 -1.708385e-01 
7.912625e-15 1.989747e-01 3.552610e-01 4.804941e-01 5.137432e-01 5.424241e-01 4.938394e-01 4.693883e-01 5.947210e-01 3.321606e-01 1.581663e-01 -1.118532e-01 -5.327766e-01 -1.801544e-01 6.432895e-01 5.840652e-01 -2.852041e-13 -5.840652e-01 -6.432895e-01 1.801544e-01 5.327766e-01 1.118532e-01 -1.581663e-01 -3.321606e-01 -5.947210e-01 -4.693883e-01 -4.938394e-01 -5.424241e-01 -5.137432e-01 -4.804941e-01 -3.552610e-01 -1.989747e-01 
2.503014e-14 2.004058e-01 3.582059e-01 4.780470e-01 5.185400e-01 5.471502e-01 5.279353e-01 5.344595e-01 5.958742e-01 6.880970e-01 6.895840e-01 8.046291e-01 -2.138303e-01 -1.588035e+00 -1.233815e+00 -4.648211e-01 -9.060050e-14 4.648211e-01 1.233815e+00 1.588035e+00 2.138303e-01 -8.046291e-01 -6.895840e-01 -6.880970e-01 -5.958742e-01 -5.344595e-01 -5.279353e-01 -5.471502e-01 -5.185400e-01 -4.780470e-01 -3.582059e-01 -2.004058e-01 
2.132405e-14 1.821174e-01 3.261069e-01 4.331787e-01 4.753272e-01 5.050017e-01 5.067726e-01 5.300168e-01 5.848498e-01 6.897470e-01 8.726241e-01 1.427279e+00 1.749240e+00 9.084879e-01 -3.514174e-01 -6.105262e-01 -6.503405e-14 6.105262e-01 3.514174e-01 -9.084879e-01 -1.749240e+00 -1.427279e+00 -8.726241e-01 -6.897470e-01 -5.848498e-01 -5.300168e-01 -5.067726e-01 -5.050017e-01 -4.753272e-01 -4.331787e-01 -3.261069e-01 -1.821174e-01 
2.749020e-14 1.522228e-01 2.730611e-01 3.611541e-01 3.989284e-01 4.241294e-01 4.306348e-01 4.512600e-01 4.888157e-01 5.402663e-01 6.111318e-01 8.126640e-01 1.578140e+00 2.229955e+00 1.915374e+00 9.113453e-01 -6.497738e-14 -9.113453e-01 -1.915374e+00 -2.229955e+00 -1.578140e+00 -8.126640e-01 -6.111318e-01 -5.402663e-01 -4.888157e-01 -4.512600e-01 -4.306348e-01 -4.241294e-01 -3.989284e-01 -3.611541e-01 -2.730611e-01 -1.522228e-01 
1.705530e-14 1.160695e-01 2.075136e-01 2.724955e-01 2.988352e-01 3.133449e-01 3.130851e-01 3.194368e-01 3.328436e-01 3.490047e-01 3.625217e-01 3.589979e-01 4.957632e-01 7.284368e-01 9.560012e-01 7.072773e-01 1.596040e-14 -7.072773e-01 -9.560012e-01 -7.284368e-01 -4.957632e-01 -3.589979e-01 -3.625217e-01 -3.490047e-01 -3.328436e-01 -3.194368e-01 -3.130851e-01 -3.133449e-01 -2.988352e-01 -2.724955e-01 -2.075136e-01 -1.160695e-01 
1.715251e-14 8.156674e-02 1.445419e-01 1.854535e-01 1.962850e-01 1.920904e-01 1.738613e-01 1.513359e-01 1.342441e-01 1.139283e-01 1.168887e-01 1.065273e-01 1.653856e-01 1.697205e-01 8.540059e-02 2.756837e-02 8.203693e-14 -2.756837e-02 -8.540059e-02 -1.697205e-01 -1.653856e-01 -1.065273e-01 -1.168887e-01 -1.139283e-01 -1.342441e-01 -1.513359e-01 -1.738613e-01 -1.920904e-01 -1.962850e-01 -1.854535e-01 -1.445419e-01 -8.156674e-02 
8.515002e-15 4.936242e-02 8.380219e-02 9.882629e-02 8.611684e-02 5.334102e-02 -8.734923e-04 -7.072746e-02 -1.473851e-01 -2.308415e-01 -2.957805e-01 -3.549366e-01 -3.556976e-01 -3.216272e-01 -1.925063e-01 -7.156317e-02 3.697699e-14 7.156317e-02 1.925063e-01 3.216272e-01 3.556976e-01 3.549366e-01 2.957805e-01 2.308415e-01 1.473851e-01 7.072746e-02 8.734923e-04 -5.334102e-02 -8.611684e-02 -9.882629e-02 -8.380219e-02 -4.936242e-02 
7.204340e-15 2.634018e-02 3.999091e-02 3.396365e-02 4.730694e-04 -6.117723e-02 -1.510115e-01 -2.696420e-01 -4.007179e-01 -5.435412e-01 -6.612660e-01 -7.596188e-01 -7.901840e-01 -7.580347e-01 -6.243669e-01 -3.395828e-01 6.890105e-15 3.395828e-01 6.243669e-01 7.580347e-01 7.901840e-01 7.596188e-01 6.612660e-01 5.435412e-01 4.007179e-01 2.696420e-01 1.510115e-01 6.117723e-02 -4.730694e-04 -3.396365e-02 -3.999091e-02 -2.634018e-02 
2.672534e-15 9.352254e-03 6.408744e-03 -1.693421e-02 -7.058379e-02 -1.584804e-01 -2.833789e-01 -4.455375e-01 -6.279641e-01 -8.234680e-01 -9.928010e-01 -1.130113e+00 -1.176417e+00 -1.119295e+00 -8.885596e-01 -4.883262e-01 1.000314e-14 4.883262e-01 8.885596e-01 1.119295e+00 1.176417e+00 1.130113e+00 9.928010e-01 8.234680e-01 6.279641e-01 4.455375e-01 2.833789e-01 1.584804e-01 7.058379e-02 1.693421e-02 -6.408744e-03 -9.352254e-03 
