# vtk DataFile Version 2.0
Comment goes here
ASCII

DATASET STRUCTURED_POINTS
FIELD FieldData 1
TIME 1 1 double
0.50000000
DIMENSIONS    32   32   1

ORIGIN    0.000   0.000   0.000
SPACING   0.03125 0.03125   1.000

POINT_DATA   1024
SCALARS uX double
LOOKUP_TABLE default

-5.255138e-15 5.031875e-02 9.481842e-02 1.322745e-01 1.529573e-01 1.553863e-01 1.288697e-01 6.206777e-02 -4.340457e-02 -2.119818e-01 -3.917215e-01 -6.203621e-01 -7.538925e-01 -8.420067e-01 -6.971467e-01 -4.132062e-01 -8.460435e-15 4.132062e-01 6.971467e-01 8.420067e-01 7.538925e-01 6.203621e-01 3.917215e-01 2.119818e-01 4.340457e-02 -6.206777e-02 -1.288697e-01 -1.553863e-01 -1.529573e-01 -1.322745e-01 -9.481842e-02 -5.031875e-02 
5.482551e-15 5.428332e-02 1.031424e-01 1.455298e-01 1.730042e-01 1.845224e-01 1.716314e-01 1.237547e-01 4.375870e-02 -9.361106e-02 -2.420099e-01 -4.457442e-01 -5.766176e-01 -6.968672e-01 -6.457133e-01 -4.085506e-01 -2.046752e-14 4.085506e-01 6.457133e-01 6.968672e-01 5.766176e-01 4.457442e-01 2.420099e-01 9.361106e-02 -4.375870e-02 -1.237547e-01 -1.716314e-01 -1.845224e-01 -1.730042e-01 -1.455298e-01 -1.031424e-01 -5.428332e-02 
-2.352947e-15 5.894964e-02 1.117600e-01 1.598106e-01 1.926684e-01 2.162196e-01 2.186485e-01 2.012536e-01 1.589912e-01 7.814550e-02 -1.222809e-02 -1.656887e-01 -2.459540e-01 -3.487950e-01 -2.612257e-01 -1.438488e-01 -1.039061e-14 1.438488e-01 2.612257e-01 3.487950e-01 2.459540e-01 1.656887e-01 1.222809e-02 -7.814550e-02 -1.589912e-01 -2.012536e-01 -2.186485e-01 -2.162196e-01 -1.926684e-01 -1.598106e-01 -1.117600e-01 -5.894964e-02 
7.385138e-15 6.984269e-02 1.329927e-01 1.930081e-01 2.395789e-01 2.851020e-01 3.183229e-01 3.513647e-01 3.756759e-01 3.893554e-01 4.004396e-01 3.405351e-01 3.517206e-01 1.576161e-01 -6.688731e-02 -1.316458e-01 -2.285282e-14 1.316458e-01 6.688731e-02 -1.576161e-01 -3.517206e-01 -3.405351e-01 -4.004396e-01 -3.893554e-01 -3.756759e-01 -3.513647e-01 -3.183229e-01 -2.851020e-01 -2.395789e-01 -1.930081e-01 -1.329927e-01 -6.984269e-02 
-1.254245e-15 8.176775e-02 1.542739e-01 2.245472e-01 2.789209e-01 3.410810e-01 3.935509e-01 4.680818e-01 5.369188e-01 6.338403e-01 6.984758e-01 6.739501e-01 7.613670e-01 7.931525e-01 1.079879e+00 9.035361e-01 -5.981813e-14 -9.035361e-01 -1.079879e+00 -7.931525e-01 -7.613670e-01 -6.739501e-01 -6.984758e-01 -6.338403e-01 -5.369188e-01 -4.680818e-01 -3.935509e-01 -3.410810e-01 -2.789209e-01 -2.245472e-01 -1.542739e-01 -8.176775e-02 
7.034180e-15 9.668967e-02 1.802071e-01 2.598884e-01 3.202903e-01 3.950138e-01 4.654188e-01 5.776624e-01 6.993534e-01 9.134001e-01 1.095301e+00 1.379777e+00 2.154669e+00 2.877142e+00 2.753274e+00 1.469887e+00 -4.954807e-14 -1.469887e+00 -2.753274e+00 -2.877142e+00 -2.154669e+00 -1.379777e+00 -1.095301e+00 -9.134001e-01 -6.993534e-01 -5.776624e-01 -4.654188e-01 -3.950138e-01 -3.202903e-01 -2.598884e-01 -1.802071e-01 -9.668967e-02 
-1.015426e-15 1.147985e-01 2.095082e-01 2.959108e-01 3.544193e-01 4.312369e-01 5.060391e-01 6.401095e-01 8.057102e-01 1.191170e+00 1.496017e+00 2.155981e+00 2.444946e+00 1.681354e+00 1.182961e-01 -5.627796e-01 3.429635e-14 5.627796e-01 -1.182961e-01 -1.681354e+00 -2.444946e+00 -2.155981e+00 -1.496017e+00 -1.191170e+00 -8.057102e-01 -6.401095e-01 -5.060391e-01 -4.312369e-01 -3.544193e-01 -2.959108e-01 -2.095082e-01 -1.147985e-01 
4.547936e-15 1.323371e-01 2.353958e-01 3.213654e-01 3.653253e-01 4.260038e-01 4.831825e-01 5.959343e-01 8.177954e-01 1.202522e+00 1.357769e+00 1.232057e+00 3.975335e-02 -1.311500e+00 -1.341686e+00 -5.427420e-01 9.873518e-14 5.427420e-01 1.341686e+00 1.311500e+00 -3.975335e-02 -1.232057e+00 -1.357769e+00 -1.202522e+00 -8.177954e-01 -5.959343e-01 -4.831825e-01 -4.260038e-01 -3.653253e-01 -3.213654e-01 -2.353958e-01 -1.323371e-01 
1.013359e-16 1.528879e-01 2.663277e-01 3.524749e-01 3.752118e-01 4.076836e-01 4.335367e-01 4.726976e-01 7.851848e-01 6.186657e-01 4.182896e-01 -1.556187e-01 -8.175423e-01 -5.122332e-01 2.824521e-01 4.762083e-01 1.541969e-14 -4.762083e-01 -2.824521e-01 5.122332e-01 8.175423e-01 1.556187e-01 -4.182896e-01 -6.186657e-01 -7.851848e-01 -4.726976e-01 -4.335367e-01 -4.076836e-01 -3.752118e-01 -3.524749e-01 -2.663277e-01 -1.528879e-01 
2.494109e-15 1.619788e-01 2.777038e-01 3.565292e-01 3.405372e-01 3.349747e-01 2.770347e-01 3.069311e-01 4.675183e-01 -2.535840e-01 -1.899122e-01 -3.845034e-01 -5.855771e-01 2.041120e-01 3.240562e-01 2.353682e-01 1.761802e-14 -2.353682e-01 -3.240562e-01 -2.041120e-01 5.855771e-01 3.845034e-01 1.899122e-01 2.535840e-01 -4.675183e-01 -3.069311e-01 -2.770347e-01 -3.349747e-01 -3.405372e-01 -3.565292e-01 -2.777038e-01 -1.619788e-01 
5.594569e-15 1.603333e-01 2.755321e-01 3.586062e-01 3.113583e-01 3.125274e-01 1.347566e-01 3.112071e-01 -1.989466e-01 -5.268690e-01 -9.340039e-02 -5.673646e-01 -5.658654e-01 -9.848338e-02 1.276430e-02 6.336757e-02 5.906466e-15 -6.336757e-02 -1.276430e-02 9.848338e-02 5.658654e-01 5.673646e-01 9.340039e-02 5.268690e-01 1.989466e-01 -3.112071e-01 -1.347566e-01 -3.125274e-01 -3.113583e-01 -3.586062e-01 -2.755321e-01 -1.603333e-01 
8.695894e-15 1.244415e-01 2.197987e-01 2.865561e-01 2.204972e-01 1.766167e-01 -1.037217e-01 -5.981520e-03 -1.047514e+00 -5.095150e-01 -4.623105e-01 -1.183807e+00 -5.383567e-01 -5.778721e-01 -4.202948e-01 -2.670265e-01 7.840918e-15 2.670265e-01 4.202948e-01 5.778721e-01 5.383567e-01 1.183807e+00 4.623105e-01 5.095150e-01 1.047514e+00 5.981520e-03 1.037217e-01 -1.766167e-01 -2.204972e-01 -2.865561e-01 -2.197987e-01 -1.244415e-01 
2.283606e-14 5.351588e-02 1.071746e-01 1.363072e-01 9.405295e-02 7.508458e-03 -1.886895e-01 -4.099319e-01 -1.028093e+00 -3.755981e-01 -7.722101e-01 -1.186640e+00 -6.166664e-01 -7.353906e-01 -4.955266e-01 -3.209786e-01 1.122748e-14 3.209786e-01 4.955266e-01 7.353906e-01 6.166664e-01 1.186640e+00 7.722101e-01 3.755981e-01 1.028093e+00 4.099319e-01 1.886895e-01 -7.508458e-03 -9.405295e-02 -1.363072e-01 -1.071746e-01 -5.351588e-02 
2.617639e-14 -7.252735e-02 -1.060572e-01 -1.417449e-01 -1.435058e-01 -2.743787e-01 -4.301293e-01 -8.956801e-01 -6.634422e-01 -5.400211e-01 -1.027527e+00 -8.369851e-01 -5.802398e-01 -5.552456e-01 -4.235607e-01 -2.665816e-01 -8.360684e-15 2.665816e-01 4.235607e-01 5.552456e-01 5.802398e-01 8.369851e-01 1.027527e+00 5.400211e-01 6.634422e-01 8.956801e-01 4.301293e-01 2.743787e-01 1.435058e-01 1.417449e-01 1.060572e-01 7.252735e-02 
4.232727e-14 -2.663931e-01 -4.702906e-01 -6.598235e-01 -7.311865e-01 -9.205944e-01 -9.802949e-01 -1.230721e+00 -6.422525e-01 -9.479260e-01 -1.129715e+00 -4.533050e-01 -4.992964e-01 -3.560142e-01 -3.253795e-01 -1.808168e-01 7.715763e-15 1.808168e-01 3.253795e-01 3.560142e-01 4.992964e-01 4.533050e-01 1.129715e+00 9.479260e-01 6.422525e-01 1.230721e+00 9.802949e-01 9.205944e-01 7.311865e-01 6.598235e-01 4.702906e-01 2.663931e-01 
2.782774e-14 -5.670458e-01 -1.043183e+00 -1.421132e+00 -1.515727e+00 -1.527855e+00 -1.181739e+00 -1.053986e+00 -6.931452e-01 -1.108547e+00 -9.317496e-01 -1.013295e-01 -2.653516e-01 -9.738478e-02 -1.791889e-01 -8.870867e-02 -2.136263e-14 8.870867e-02 1.791889e-01 9.738478e-02 2.653516e-01 1.013295e-01 9.317496e-01 1.108547e+00 6.931452e-01 1.053986e+00 1.181739e+00 1.527855e+00 1.515727e+00 1.421132e+00 1.043183e+00 5.670458e-01 
-8.070907e-15 -7.620385e-01 -1.403390e+00 -1.867941e+00 -1.903848e+00 -1.746711e+00 -1.163964e+00 -9.674614e-01 -7.916219e-01 -1.130874e+00 -8.187357e-01 1.773387e-02 -1.680847e-01 -5.173621e-03 -1.253730e-01 -5.617029e-02 5.524243e-15 5.617029e-02 1.253730e-01 5.173621e-03 1.680847e-01 -1.773387e-02 8.187357e-01 1.130874e+00 7.916219e-01 9.674614e-01 1.163964e+00 1.746711e+00 1.903848e+00 1.867941e+00 1.403390e+00 7.620385e-01 
-5.996763e-14 -5.670458e-01 -1.043183e+00 -1.421132e+00 -1.515727e+00 -1.527855e+00 -1.181739e+00 -1.053986e+00 -6.931452e-01 -1.108547e+00 -9.317496e-01 -1.013295e-01 -2.653516e-01 -9.738478e-02 -1.791889e-01 -8.870867e-02 -2.535684e-14 8.870867e-02 1.791889e-01 9.738478e-02 2.653516e-01 1.013295e-01 9.317496e-01 1.108547e+00 6.931452e-01 1.053986e+00 1.181739e+00 1.527855e+00 1.515727e+00 1.421132e+00 1.043183e+00 5.670458e-01 
-2.676993e-14 -2.663931e-01 -4.702906e-01 -6.598235e-01 -7.311865e-01 -9.205944e-01 -9.802949e-01 -1.230721e+00 -6.422525e-01 -9.479260e-01 -1.129715e+00 -4.533050e-01 -4.992964e-01 -3.560142e-01 -3.253795e-01 -1.808168e-01 2.735939e-15 1.808168e-01 3.253795e-01 3.560142e-01 4.992964e-01 4.533050e-01 1.129715e+00 9.479260e-01 6.422525e-01 1.230721e+00 9.802949e-01 9.205944e-01 7.311865e-01 6.598235e-01 4.702906e-01 2.663931e-01 
-2.745209e-14 -7.252735e-02 -1.060572e-01 -1.417449e-01 -1.435058e-01 -2.743787e-01 -4.301293e-01 -8.956801e-01 -6.634422e-01 -5.400211e-01 -1.027527e+00 -8.369851e-01 -5.802398e-01 -5.552456e-01 -4.235607e-01 -2.665816e-01 -1.714838e-14 2.665816e-01 4.235607e-01 5.552456e-01 5.802398e-01 8.369851e-01 1.027527e+00 5.400211e-01 6.634422e-01 8.956801e-01 4.301293e-01 2.743787e-01 1.435058e-01 1.417449e-01 1.060572e-01 7.252735e-02 
-4.647445e-15 5.351588e-02 1.071746e-01 1.363072e-01 9.405295e-02 7.508458e-03 -1.886895e-01 -4.099319e-01 -1.028093e+00 -3.755981e-01 -7.722101e-01 -1.186640e+00 -6.166664e-01 -7.353906e-01 -4.955266e-01 -3.209786e-01 9.420201e-16 3.209786e-01 4.955266e-01 7.353906e-01 6.166664e-01 1.186640e+00 7.722101e-01 3.755981e-01 1.028093e+00 4.099319e-01 1.886895e-01 -7.508458e-03 -9.405295e-02 -1.363072e-01 -1.071746e-01 -5.351588e-02 
-4.563549e-15 1.244415e-01 2.197987e-01 2.865561e-01 2.204972e-01 1.766167e-01 -1.037217e-01 -5.981520e-03 -1.047514e+00 -5.095150e-01 -4.623105e-01 -1.183807e+00 -5.383567e-01 -5.778721e-01 -4.202948e-01 -2.670265e-01 -1.622057e-14 2.670265e-01 4.202948e-01 5.778721e-01 5.383567e-01 1.183807e+00 4.623105e-01 5.095150e-01 1.047514e+00 5.981520e-03 1.037217e-01 -1.766167e-01 -2.204972e-01 -2.865561e-01 -2.197987e-01 -1.244415e-01 
4.267415e-15 1.603333e-01 2.755321e-01 3.586062e-01 3.113583e-01 3.125274e-01 1.347566e-01 3.112071e-01 -1.989466e-01 -5.268690e-01 -9.340039e-02 -5.673646e-01 -5.658654e-01 -9.848338e-02 1.276430e-02 6.336757e-02 -7.991961e-15 -6.336757e-02 -1.276430e-02 9.848338e-02 5.658654e-01 5.673646e-01 9.340039e-02 5.268690e-01 1.989466e-01 -3.112071e-01 -1.347566e-01 -3.125274e-01 -3.113583e-01 -3.586062e-01 -2.755321e-01 -1.603333e-01 
1.808176e-15 1.619788e-01 2.777038e-01 3.565292e-01 3.405372e-01 3.349747e-01 2.770347e-01 3.069311e-01 4.675183e-01 -2.535840e-01 -1.899122e-01 -3.845034e-01 -5.855771e-01 2.041120e-01 3.240562e-01 2.353682e-01 -2.919695e-14 -2.353682e-01 -3.240562e-01 -2.041120e-01 5.855771e-01 3.845034e-01 1.899122e-01 2.535840e-01 -4.675183e-01 -3.069311e-01 -2.770347e-01 -3.349747e-01 -3.405372e-01 -3.565292e-01 -2.777038e-01 -1.619788e-01 
-1.128851e-15 1.528879e-01 2.663277e-01 3.524749e-01 3.752118e-01 4.076836e-01 4.335367e-01 4.726976e-01 7.851848e-01 6.186657e-01 4.182896e-01 -1.556187e-01 -8.175423e-01 -5.122332e-01 2.824521e-01 4.762083e-01 -3.998071e-14 -4.762083e-01 -2.824521e-01 5.122332e-01 8.175423e-01 1.556187e-01 -4.182896e-01 -6.186657e-01 -7.851848e-01 -4.726976e-01 -4.335367e-01 -4.076836e-01 -3.752118e-01 -3.524749e-01 -2.663277e-01 -1.528879e-01 
5.252297e-17 1.323371e-01 2.353958e-01 3.213654e-01 3.653253e-01 4.260038e-01 4.831825e-01 5.959343e-01 8.177954e-01 1.202522e+00 1.357769e+00 1.232057e+00 3.975335e-02 -1.311500e+00 -1.341686e+00 -5.427420e-01 7.689354e-14 5.427420e-01 1.341686e+00 1.311500e+00 -3.975335e-02 -1.232057e+00 -1.357769e+00 -1.202522e+00 -8.177954e-01 -5.959343e-01 -4.831825e-01 -4.260038e-01 -3.653253e-01 -3.213654e-01 -2.353958e-01 -1.323371e-01 
-7.771958e-15 1.147985e-01 2.095082e-01 2.959108e-01 3.544193e-01 4.312369e-01 5.060391e-01 6.401095e-01 8.057102e-01 1.191170e+00 1.496017e+00 2.155981e+00 2.444946e+00 1.681354e+00 1.182961e-01 -5.627796e-01 4.727550e-14 5.627796e-01 -1.182961e-01 -1.681354e+00 -2.444946e+00 -2.155981e+00 -1.496017e+00 -1.191170e+00 -8.057102e-01 -6.401095e-01 -5.060391e-01 -4.312369e-01 -3.544193e-01 -2.959108e-01 -2.095082e-01 -1.147985e-01 
-2.048534e-15 9.668967e-02 1.802071e-01 2.598884e-01 3.202903e-01 3.950138e-01 4.654188e-01 5.776624e-01 6.993534e-01 9.134001e-01 1.095301e+00 1.379777e+00 2.154669e+00 2.877142e+00 2.753274e+00 1.469887e+00 1.388578e-14 -1.469887e+00 -2.753274e+00 -2.877142e+00 -2.154669e+00 -1.379777e+00 -1.095301e+00 -9.134001e-01 -6.993534e-01 -5.776624e-01 -4.654188e-01 -3.950138e-01 -3.202903e-01 -2.598884e-01 -1.802071e-01 -9.668967e-02 
-9.915472e-15 8.176775e-02 1.542739e-01 2.245472e-01 2.789209e-01 3.410810e-01 3.935509e-01 4.680818e-01 5.369188e-01 6.338403e-01 6.984758e-01 6.739501e-01 7.613670e-01 7.931525e-01 1.079879e+00 9.035361e-01 -1.401250e-14 -9.035361e-01 -1.079879e+00 -7.931525e-01 -7.613670e-01 -6.739501e-01 -6.984758e-01 -6.338403e-01 -5.369188e-01 -4.680818e-01 -3.935509e-01 -3.410810e-01 -2.789209e-01 -2.245472e-01 -1.542739e-01 -8.176775e-02 
-1.416632e-15 6.984269e-02 1.329927e-01 1.930081e-01 2.395789e-01 2.851020e-01 3.183229e-01 3.513647e-01 3.756759e-01 3.893554e-01 4.004396e-01 3.405351e-01 3.517206e-01 1.576161e-01 -6.688731e-02 -1.316458e-01 3.419865e-15 1.316458e-01 6.688731e-02 -1.576161e-01 -3.517206e-01 -3.405351e-01 -4.004396e-01 -3.893554e-01 -3.756759e-01 -3.513647e-01 -3.183229e-01 -2.851020e-01 -2.395789e-01 -1.930081e-01 -1.329927e-01 -6.984269e-02 
-8.208611e-15 5.894964e-02 1.117600e-01 1.598106e-01 1.926684e-01 2.162196e-01 2.186485e-01 2.012536e-01 1.589912e-01 7.814550e-02 -1.222809e-02 -1.656887e-01 -2.459540e-01 -3.487950e-01 -2.612257e-01 -1.438488e-01 8.346637e-15 1.438488e-01 2.612257e-01 3.487950e-01 2.459540e-01 1.656887e-01 1.222809e-02 -7.814550e-02 -1.589912e-01 -2.012536e-01 -2.186485e-01 -2.162196e-01 -1.926684e-01 -1.598106e-01 -1.117600e-01 -5.894964e-02 
2.419560e-15 5.428332e-02 1.031424e-01 1.455298e-01 1.730042e-01 1.845224e-01 1.716314e-01 1.237547e-01 4.375870e-02 -9.361106e-02 -2.420099e-01 -4.457442e-01 -5.766176e-01 -6.968672e-01 -6.457133e-01 -4.085506e-01 -9.403065e-15 4.085506e-01 6.457133e-01 6.968672e-01 5.766176e-01 4.457442e-01 2.420099e-01 9.361106e-02 -4.375870e-02 -1.237547e-01 -1.716314e-01 -1.845224e-01 -1.730042e-01 -1.455298e-01 -1.031424e-01 -5.428332e-02 
