# vtk DataFile Version 2.0
Comment goes here
ASCII

DATASET STRUCTURED_POINTS
FIELD FieldData 1
TIME 1 1 double
1.00000000
DIMENSIONS    32   32   1

ORIGIN    0.000   0.000   0.000
SPACING   0.03125 0.03125   1.000

POINT_DATA   1024
SCALARS uX double
LOOKUP_TABLE default

-8.956976e-15 4.650241e-02 7.509994e-02 7.952579e-02 3.944917e-02 -3.754296e-02 -1.672582e-01 -3.299871e-01 -5.270131e-01 -7.306046e-01 -9.250642e-01 -1.077775e+00 -1.155616e+00 -1.112217e+00 -9.114290e-01 -5.255532e-01 6.433617e-14 5.255532e-01 9.114290e-01 1.112217e+00 1.155616e+00 1.077775e+00 9.250642e-01 7.306046e-01 5.270131e-01 3.299871e-01 1.672582e-01 3.754296e-02 -3.944917e-02 -7.952579e-02 -7.509994e-02 -4.650241e-02 
-6.910568e-15 5.510469e-02 9.231918e-02 1.061485e-01 7.672972e-02 1.342306e-02 -1.001094e-01 -2.429224e-01 -4.190842e-01 -6.005371e-01 -7.754078e-01 -9.152933e-01 -9.907589e-01 -9.667431e-01 -8.094802e-01 -4.790850e-01 2.916247e-14 4.790850e-01 8.094802e-01 9.667431e-01 9.907589e-01 9.152933e-01 7.754078e-01 6.005371e-01 4.190842e-01 2.429224e-01 1.001094e-01 -1.342306e-02 -7.672972e-02 -1.061485e-01 -9.231918e-02 -5.510469e-02 
-2.225704e-15 7.403763e-02 1.292376e-01 1.617238e-01 1.519441e-01 1.134923e-01 2.960205e-02 -7.788259e-02 -2.155513e-01 -3.601458e-01 -5.024514e-01 -6.254251e-01 -7.100957e-01 -7.259649e-01 -6.376592e-01 -3.942544e-01 1.027748e-15 3.942544e-01 6.376592e-01 7.259649e-01 7.100957e-01 6.254251e-01 5.024514e-01 3.601458e-01 2.155513e-01 7.788259e-02 -2.960205e-02 -1.134923e-01 -1.519441e-01 -1.617238e-01 -1.292376e-01 -7.403763e-02 
-1.055028e-15 1.054769e-01 1.903016e-01 2.524907e-01 2.728409e-01 2.720689e-01 2.326555e-01 1.819740e-01 1.059833e-01 2.757611e-02 -5.566654e-02 -1.409318e-01 -2.151167e-01 -2.902059e-01 -3.488277e-01 -2.713598e-01 -2.590223e-14 2.713598e-01 3.488277e-01 2.902059e-01 2.151167e-01 1.409318e-01 5.566654e-02 -2.757611e-02 -1.059833e-01 -1.819740e-01 -2.326555e-01 -2.720689e-01 -2.728409e-01 -2.524907e-01 -1.903016e-01 -1.054769e-01 
5.887532e-15 1.412911e-01 2.582396e-01 3.510574e-01 3.979940e-01 4.296533e-01 4.256505e-01 4.209521e-01 3.951750e-01 3.634256e-01 3.219901e-01 2.481443e-01 1.417600e-01 1.218517e-02 -1.110331e-01 -1.093704e-01 -2.911948e-14 1.093704e-01 1.110331e-01 -1.218517e-02 -1.417600e-01 -2.481443e-01 -3.219901e-01 -3.634256e-01 -3.951750e-01 -4.209521e-01 -4.256505e-01 -4.296533e-01 -3.979940e-01 -3.510574e-01 -2.582396e-01 -1.412911e-01 
1.169624e-14 1.781890e-01 3.277962e-01 4.501465e-01 5.206539e-01 5.796284e-01 6.038688e-01 6.421399e-01 6.638449e-01 6.980954e-01 7.235347e-01 7.201345e-01 7.498105e-01 6.325072e-01 2.705726e-01 1.050624e-01 -1.041218e-15 -1.050624e-01 -2.705726e-01 -6.325072e-01 -7.498105e-01 -7.201345e-01 -7.235347e-01 -6.980954e-01 -6.638449e-01 -6.421399e-01 -6.038688e-01 -5.796284e-01 -5.206539e-01 -4.501465e-01 -3.277962e-01 -1.781890e-01 
2.532043e-14 2.087374e-01 3.841526e-01 5.307620e-01 6.163201e-01 6.964057e-01 7.356401e-01 8.051322e-01 8.604077e-01 9.322306e-01 1.018871e+00 1.033015e+00 9.819109e-01 8.334468e-01 8.862770e-01 8.807821e-01 6.200723e-14 -8.807821e-01 -8.862770e-01 -8.334468e-01 -9.819109e-01 -1.033015e+00 -1.018871e+00 -9.322306e-01 -8.604077e-01 -8.051322e-01 -7.356401e-01 -6.964057e-01 -6.163201e-01 -5.307620e-01 -3.841526e-01 -2.087374e-01 
3.748549e-14 2.244844e-01 4.127647e-01 5.702390e-01 6.603621e-01 7.480247e-01 7.905917e-01 8.762578e-01 9.446983e-01 1.066725e+00 1.097449e+00 1.263270e+00 1.775892e+00 2.237204e+00 2.263177e+00 1.403624e+00 8.164686e-14 -1.403624e+00 -2.263177e+00 -2.237204e+00 -1.775892e+00 -1.263270e+00 -1.097449e+00 -1.066725e+00 -9.446983e-01 -8.762578e-01 -7.905917e-01 -7.480247e-01 -6.603621e-01 -5.702390e-01 -4.127647e-01 -2.244844e-01 
4.799495e-14 2.207756e-01 4.049915e-01 5.615566e-01 6.455436e-01 7.425872e-01 7.811927e-01 9.020048e-01 9.907498e-01 1.118340e+00 1.294741e+00 1.940460e+00 2.151240e+00 1.682129e+00 9.987769e-01 9.818003e-02 7.656132e-14 -9.818003e-02 -9.987769e-01 -1.682129e+00 -2.151240e+00 -1.940460e+00 -1.294741e+00 -1.118340e+00 -9.907498e-01 -9.020048e-01 -7.811927e-01 -7.425872e-01 -6.455436e-01 -5.615566e-01 -4.049915e-01 -2.207756e-01 
5.180197e-14 1.901220e-01 3.481747e-01 4.818317e-01 5.450615e-01 6.283841e-01 6.549853e-01 7.693372e-01 9.220128e-01 7.794442e-01 8.948677e-01 7.336260e-01 -2.340024e-01 -9.767973e-01 -8.784309e-01 -4.476190e-01 5.765488e-14 4.476190e-01 8.784309e-01 9.767973e-01 2.340024e-01 -7.336260e-01 -8.948677e-01 -7.794442e-01 -9.220128e-01 -7.693372e-01 -6.549853e-01 -6.283841e-01 -5.450615e-01 -4.818317e-01 -3.481747e-01 -1.901220e-01 
4.291701e-14 1.324523e-01 2.440075e-01 3.384706e-01 3.752876e-01 4.510951e-01 4.549626e-01 6.611414e-01 4.789471e-01 -1.223188e-01 -3.246401e-03 -6.106975e-01 -8.156451e-01 -2.943895e-01 2.075619e-02 2.358728e-01 8.414228e-15 -2.358728e-01 -2.075619e-02 2.943895e-01 8.156451e-01 6.106975e-01 3.246401e-03 1.223188e-01 -4.789471e-01 -6.611414e-01 -4.549626e-01 -4.510951e-01 -3.752876e-01 -3.384706e-01 -2.440075e-01 -1.324523e-01 
3.088111e-14 4.694108e-02 8.919880e-02 1.243495e-01 1.162763e-01 1.520554e-01 3.272725e-02 1.977903e-01 -6.560419e-01 -6.602165e-01 -1.780454e-01 -6.367640e-01 -1.669375e-01 -1.854824e-02 2.780787e-02 -1.342945e-03 1.852091e-14 1.342945e-03 -2.780787e-02 1.854824e-02 1.669375e-01 6.367640e-01 1.780454e-01 6.602165e-01 6.560419e-01 -1.977903e-01 -3.272725e-02 -1.520554e-01 -1.162763e-01 -1.243495e-01 -8.919880e-02 -4.694108e-02 
5.926441e-15 -6.914141e-02 -1.175325e-01 -1.699009e-01 -2.070548e-01 -2.901327e-01 -4.352920e-01 -7.247019e-01 -1.549797e+00 -4.574358e-01 -3.449780e-01 -1.088227e+00 -5.776303e-01 -5.390465e-01 -3.003517e-01 -2.199374e-01 8.658995e-14 2.199374e-01 3.003517e-01 5.390465e-01 5.776303e-01 1.088227e+00 3.449780e-01 4.574358e-01 1.549797e+00 7.247019e-01 4.352920e-01 2.901327e-01 2.070548e-01 1.699009e-01 1.175325e-01 6.914141e-02 
-1.448092e-14 -2.143477e-01 -3.750641e-01 -5.243565e-01 -5.542591e-01 -7.161877e-01 -6.447019e-01 -1.220258e+00 -9.800145e-01 6.498201e-02 -6.007741e-01 -7.209369e-01 -5.014157e-01 -3.841722e-01 -2.811749e-01 -1.864571e-01 6.873028e-14 1.864571e-01 2.811749e-01 3.841722e-01 5.014157e-01 7.209369e-01 6.007741e-01 -6.498201e-02 9.800145e-01 1.220258e+00 6.447019e-01 7.161877e-01 5.542591e-01 5.243565e-01 3.750641e-01 2.143477e-01 
-4.120173e-14 -3.939529e-01 -7.161896e-01 -9.828883e-01 -1.078194e+00 -1.216902e+00 -1.072901e+00 -1.343044e+00 -5.208520e-01 -4.246265e-01 -9.234171e-01 -3.960025e-01 -4.675533e-01 -3.546236e-01 -3.028222e-01 -1.798396e-01 4.655803e-14 1.798396e-01 3.028222e-01 3.546236e-01 4.675533e-01 3.960025e-01 9.234171e-01 4.246265e-01 5.208520e-01 1.343044e+00 1.072901e+00 1.216902e+00 1.078194e+00 9.828883e-01 7.161896e-01 3.939529e-01 
-4.213047e-14 -5.859703e-01 -1.085491e+00 -1.460849e+00 -1.637665e+00 -1.677397e+00 -1.570017e+00 -1.204319e+00 -5.813985e-01 -1.376069e+00 -1.105958e+00 -3.031043e-01 -4.174716e-01 -2.332441e-01 -2.436443e-01 -1.228228e-01 4.325953e-15 1.228228e-01 2.436443e-01 2.332441e-01 4.174716e-01 3.031043e-01 1.105958e+00 1.376069e+00 5.813985e-01 1.204319e+00 1.570017e+00 1.677397e+00 1.637665e+00 1.460849e+00 1.085491e+00 5.859703e-01 
-3.138322e-14 -6.749020e-01 -1.248913e+00 -1.661088e+00 -1.843130e+00 -1.814854e+00 -1.670453e+00 -9.572167e-01 -3.511461e-01 -1.368334e+00 -7.979531e-01 7.524112e-02 -2.523576e-01 -1.152560e-01 -1.964588e-01 -9.731293e-02 -1.223561e-14 9.731293e-02 1.964588e-01 1.152560e-01 2.523576e-01 -7.524112e-02 7.979531e-01 1.368334e+00 3.511461e-01 9.572167e-01 1.670453e+00 1.814854e+00 1.843130e+00 1.661088e+00 1.248913e+00 6.749020e-01 
1.473711e-14 -5.859703e-01 -1.085491e+00 -1.460849e+00 -1.637665e+00 -1.677397e+00 -1.570017e+00 -1.204319e+00 -5.813985e-01 -1.376069e+00 -1.105958e+00 -3.031043e-01 -4.174716e-01 -2.332441e-01 -2.436443e-01 -1.228228e-01 -6.846774e-14 1.228228e-01 2.436443e-01 2.332441e-01 4.174716e-01 3.031043e-01 1.105958e+00 1.376069e+00 5.813985e-01 1.204319e+00 1.570017e+00 1.677397e+00 1.637665e+00 1.460849e+00 1.085491e+00 5.859703e-01 
1.036899e-14 -3.939529e-01 -7.161896e-01 -9.828883e-01 -1.078194e+00 -1.216902e+00 -1.072901e+00 -1.343044e+00 -5.208520e-01 -4.246265e-01 -9.234171e-01 -3.960025e-01 -4.675533e-01 -3.546236e-01 -3.028222e-01 -1.798396e-01 -6.243444e-14 1.798396e-01 3.028222e-01 3.546236e-01 4.675533e-01 3.960025e-01 9.234171e-01 4.246265e-01 5.208520e-01 1.343044e+00 1.072901e+00 1.216902e+00 1.078194e+00 9.828883e-01 7.161896e-01 3.939529e-01 
1.503270e-15 -2.143477e-01 -3.750641e-01 -5.243565e-01 -5.542591e-01 -7.161877e-01 -6.447019e-01 -1.220258e+00 -9.800145e-01 6.498201e-02 -6.007741e-01 -7.209369e-01 -5.014157e-01 -3.841722e-01 -2.811749e-01 -1.864571e-01 -1.310203e-13 1.864571e-01 2.811749e-01 3.841722e-01 5.014157e-01 7.209369e-01 6.007741e-01 -6.498201e-02 9.800145e-01 1.220258e+00 6.447019e-01 7.161877e-01 5.542591e-01 5.243565e-01 3.750641e-01 2.143477e-01 
-1.178529e-14 -6.914141e-02 -1.175325e-01 -1.699009e-01 -2.070548e-01 -2.901327e-01 -4.352920e-01 -7.247019e-01 -1.549797e+00 -4.574358e-01 -3.449780e-01 -1.088227e+00 -5.776303e-01 -5.390465e-01 -3.003517e-01 -2.199374e-01 -5.641190e-14 2.199374e-01 3.003517e-01 5.390465e-01 5.776303e-01 1.088227e+00 3.449780e-01 4.574358e-01 1.549797e+00 7.247019e-01 4.352920e-01 2.901327e-01 2.070548e-01 1.699009e-01 1.175325e-01 6.914141e-02 
-3.611647e-14 4.694108e-02 8.919880e-02 1.243495e-01 1.162763e-01 1.520554e-01 3.272725e-02 1.977903e-01 -6.560419e-01 -6.602165e-01 -1.780454e-01 -6.367640e-01 -1.669375e-01 -1.854824e-02 2.780787e-02 -1.342945e-03 5.918484e-14 1.342945e-03 -2.780787e-02 1.854824e-02 1.669375e-01 6.367640e-01 1.780454e-01 6.602165e-01 6.560419e-01 -1.977903e-01 -3.272725e-02 -1.520554e-01 -1.162763e-01 -1.243495e-01 -8.919880e-02 -4.694108e-02 
-4.156505e-14 1.324523e-01 2.440075e-01 3.384706e-01 3.752876e-01 4.510951e-01 4.549626e-01 6.611414e-01 4.789471e-01 -1.223188e-01 -3.246401e-03 -6.106975e-01 -8.156451e-01 -2.943895e-01 2.075619e-02 2.358728e-01 3.359856e-13 -2.358728e-01 -2.075619e-02 2.943895e-01 8.156451e-01 6.106975e-01 3.246401e-03 1.223188e-01 -4.789471e-01 -6.611414e-01 -4.549626e-01 -4.510951e-01 -3.752876e-01 -3.384706e-01 -2.440075e-01 -1.324523e-01 
-5.798767e-14 1.901220e-01 3.481747e-01 4.818317e-01 5.450615e-01 6.283841e-01 6.549853e-01 7.693372e-01 9.220128e-01 7.794442e-01 8.948677e-01 7.336260e-01 -2.340024e-01 -9.767973e-01 -8.784309e-01 -4.476190e-01 5.060605e-13 4.476190e-01 8.784309e-01 9.767973e-01 2.340024e-01 -7.336260e-01 -8.948677e-01 -7.794442e-01 -9.220128e-01 -7.693372e-01 -6.549853e-01 -6.283841e-01 -5.450615e-01 -4.818317e-01 -3.481747e-01 -1.901220e-01 
-4.854033e-14 2.207756e-01 4.049915e-01 5.615566e-01 6.455436e-01 7.425872e-01 7.811927e-01 9.020048e-01 9.907498e-01 1.118340e+00 1.294741e+00 1.940460e+00 2.151240e+00 1.682129e+00 9.987769e-01 9.818003e-02 -2.067083e-13 -9.818003e-02 -9.987769e-01 -1.682129e+00 -2.151240e+00 -1.940460e+00 -1.294741e+00 -1.118340e+00 -9.907498e-01 -9.020048e-01 -7.811927e-01 -7.425872e-01 -6.455436e-01 -5.615566e-01 -4.049915e-01 -2.207756e-01 
-4.585078e-14 2.244844e-01 4.127647e-01 5.702390e-01 6.603621e-01 7.480247e-01 7.905917e-01 8.762578e-01 9.446983e-01 1.066725e+00 1.097449e+00 1.263270e+00 1.775892e+00 2.237204e+00 2.263177e+00 1.403624e+00 -7.931286e-13 -1.403624e+00 -2.263177e+00 -2.237204e+00 -1.775892e+00 -1.263270e+00 -1.097449e+00 -1.066725e+00 -9.446983e-01 -8.762578e-01 -7.905917e-01 -7.480247e-01 -6.603621e-01 -5.702390e-01 -4.127647e-01 -2.244844e-01 
-3.124847e-14 2.087374e-01 3.841526e-01 5.307620e-01 6.163201e-01 6.964057e-01 7.356401e-01 8.051322e-01 8.604077e-01 9.322306e-01 1.018871e+00 1.033015e+00 9.819109e-01 8.334468e-01 8.862770e-01 8.807821e-01 -6.538895e-13 -8.807821e-01 -8.862770e-01 -8.334468e-01 -9.819109e-01 -1.033015e+00 -1.018871e+00 -9.322306e-01 -8.604077e-01 -8.051322e-01 -7.356401e-01 -6.964057e-01 -6.163201e-01 -5.307620e-01 -3.841526e-01 -2.087374e-01 
-2.533962e-14 1.781890e-01 3.277962e-01 4.501465e-01 5.206539e-01 5.796284e-01 6.038688e-01 6.421399e-01 6.638449e-01 6.980954e-01 7.235347e-01 7.201345e-01 7.498105e-01 6.325072e-01 2.705726e-01 1.050624e-01 -1.615732e-13 -1.050624e-01 -2.705726e-01 -6.325072e-01 -7.498105e-01 -7.201345e-01 -7.235347e-01 -6.980954e-01 -6.638449e-01 -6.421399e-01 -6.038688e-01 -5.796284e-01 -5.206539e-01 -4.501465e-01 -3.277962e-01 -1.781890e-01 
-1.883089e-14 1.412911e-01 2.582396e-01 3.510574e-01 3.979940e-01 4.296533e-01 4.256505e-01 4.209521e-01 3.951750e-01 3.634256e-01 3.219901e-01 2.481443e-01 1.417600e-01 1.218517e-02 -1.110331e-01 -1.093704e-01 7.130012e-14 1.093704e-01 1.110331e-01 -1.218517e-02 -1.417600e-01 -2.481443e-01 -3.219901e-01 -3.634256e-01 -3.951750e-01 -4.209521e-01 -4.256505e-01 -4.296533e-01 -3.979940e-01 -3.510574e-01 -2.582396e-01 -1.412911e-01 
-1.735921e-14 1.054769e-01 1.903016e-01 2.524907e-01 2.728409e-01 2.720689e-01 2.326555e-01 1.819740e-01 1.059833e-01 2.757611e-02 -5.566654e-02 -1.409318e-01 -2.151167e-01 -2.902059e-01 -3.488277e-01 -2.713598e-01 1.452212e-13 2.713598e-01 3.488277e-01 2.902059e-01 2.151167e-01 1.409318e-01 5.566654e-02 -2.757611e-02 -1.059833e-01 -1.819740e-01 -2.326555e-01 -2.720689e-01 -2.728409e-01 -2.524907e-01 -1.903016e-01 -1.054769e-01 
-1.474359e-14 7.403763e-02 1.292376e-01 1.617238e-01 1.519441e-01 1.134923e-01 2.960205e-02 -7.788259e-02 -2.155513e-01 -3.601458e-01 -5.024514e-01 -6.254251e-01 -7.100957e-01 -7.259649e-01 -6.376592e-01 -3.942544e-01 1.559530e-13 3.942544e-01 6.376592e-01 7.259649e-01 7.100957e-01 6.254251e-01 5.024514e-01 3.601458e-01 2.155513e-01 7.788259e-02 -2.960205e-02 -1.134923e-01 -1.519441e-01 -1.617238e-01 -1.292376e-01 -7.403763e-02 
-1.389013e-14 5.510469e-02 9.231918e-02 1.061485e-01 7.672972e-02 1.342306e-02 -1.001094e-01 -2.429224e-01 -4.190842e-01 -6.005371e-01 -7.754078e-01 -9.152933e-01 -9.907589e-01 -9.667431e-01 -8.094802e-01 -4.790850e-01 9.760980e-14 4.790850e-01 8.094802e-01 9.667431e-01 9.907589e-01 9.152933e-01 7.754078e-01 6.005371e-01 4.190842e-01 2.429224e-01 1.001094e-01 -1.342306e-02 -7.672972e-02 -1.061485e-01 -9.231918e-02 -5.510469e-02 
