# vtk DataFile Version 2.0
Comment goes here
ASCII

DATASET STRUCTURED_POINTS
FIELD FieldData 1
TIME 1 1 double
0.84000000
DIMENSIONS    32   32   1

ORIGIN    0.000   0.000   0.000
SPACING   0.03125 0.03125   1.000

POINT_DATA   1024
SCALARS uX double
LOOKUP_TABLE default

5.298254e-15 6.108010e-02 1.076507e-01 1.341325e-01 1.234445e-01 7.699487e-02 -1.741101e-02 -1.556329e-01 -3.292333e-01 -5.335236e-01 -7.310824e-01 -9.177484e-01 -1.023879e+00 -1.027330e+00 -8.538182e-01 -5.044697e-01 -4.584078e-15 5.044697e-01 8.538182e-01 1.027330e+00 1.023879e+00 9.177484e-01 7.310824e-01 5.335236e-01 3.292333e-01 1.556329e-01 1.741101e-02 -7.699487e-02 -1.234445e-01 -1.341325e-01 -1.076507e-01 -6.108010e-02 
8.869966e-16 6.727682e-02 1.198613e-01 1.531599e-01 1.501351e-01 1.143633e-01 3.340360e-02 -8.822436e-02 -2.426094e-01 -4.297462e-01 -6.086361e-01 -7.914236e-01 -8.980716e-01 -9.321003e-01 -8.000546e-01 -4.784411e-01 1.422625e-14 4.784411e-01 8.000546e-01 9.321003e-01 8.980716e-01 7.914236e-01 6.086361e-01 4.297462e-01 2.426094e-01 8.822436e-02 -3.340360e-02 -1.143633e-01 -1.501351e-01 -1.531599e-01 -1.198613e-01 -6.727682e-02 
5.818356e-16 8.370320e-02 1.518014e-01 2.019511e-01 2.170648e-01 2.071193e-01 1.581575e-01 7.996197e-02 -2.673542e-02 -1.608426e-01 -2.926502e-01 -4.382949e-01 -5.391805e-01 -5.970497e-01 -5.508494e-01 -3.668132e-01 2.202533e-14 3.668132e-01 5.508494e-01 5.970497e-01 5.391805e-01 4.382949e-01 2.926502e-01 1.608426e-01 2.673542e-02 -7.996197e-02 -1.581575e-01 -2.071193e-01 -2.170648e-01 -2.019511e-01 -1.518014e-01 -8.370320e-02 
-4.243862e-15 1.099076e-01 2.018989e-01 2.769644e-01 3.165581e-01 3.414095e-01 3.342925e-01 3.149438e-01 2.740833e-01 2.094031e-01 1.421414e-01 1.922246e-02 -8.379156e-02 -2.528285e-01 -3.589316e-01 -2.728235e-01 2.963080e-14 2.728235e-01 3.589316e-01 2.528285e-01 8.379156e-02 -1.922246e-02 -1.421414e-01 -2.094031e-01 -2.740833e-01 -3.149438e-01 -3.342925e-01 -3.414095e-01 -3.165581e-01 -2.769644e-01 -2.018989e-01 -1.099076e-01 
-7.000800e-15 1.419015e-01 2.617601e-01 3.632603e-01 4.250986e-01 4.801309e-01 5.071460e-01 5.388878e-01 5.557300e-01 5.562155e-01 5.514925e-01 4.697548e-01 4.086395e-01 3.212552e-01 1.493009e-01 -5.841614e-03 3.088565e-14 5.841614e-03 -1.493009e-01 -3.212552e-01 -4.086395e-01 -4.697548e-01 -5.514925e-01 -5.562155e-01 -5.557300e-01 -5.388878e-01 -5.071460e-01 -4.801309e-01 -4.250986e-01 -3.632603e-01 -2.617601e-01 -1.419015e-01 
-9.493787e-15 1.763978e-01 3.250874e-01 4.528585e-01 5.326222e-01 6.142315e-01 6.670498e-01 7.505430e-01 8.240475e-01 9.123625e-01 9.962119e-01 9.756884e-01 9.925659e-01 6.692070e-01 4.127907e-01 3.478899e-01 1.223673e-14 -3.478899e-01 -4.127907e-01 -6.692070e-01 -9.925659e-01 -9.756884e-01 -9.962119e-01 -9.123625e-01 -8.240475e-01 -7.505430e-01 -6.670498e-01 -6.142315e-01 -5.326222e-01 -4.528585e-01 -3.250874e-01 -1.763978e-01 
-9.630776e-15 2.075738e-01 3.816108e-01 5.308313e-01 6.215534e-01 7.193395e-01 7.839906e-01 8.989092e-01 1.007460e+00 1.147491e+00 1.261899e+00 1.181769e+00 1.258672e+00 1.648501e+00 2.050165e+00 1.408988e+00 -8.578702e-14 -1.408988e+00 -2.050165e+00 -1.648501e+00 -1.258672e+00 -1.181769e+00 -1.261899e+00 -1.147491e+00 -1.007460e+00 -8.989092e-01 -7.839906e-01 -7.193395e-01 -6.215534e-01 -5.308313e-01 -3.816108e-01 -2.075738e-01 
-3.975871e-15 2.264307e-01 4.147526e-01 5.750704e-01 6.658617e-01 7.706723e-01 8.336798e-01 9.810539e-01 1.120803e+00 1.378477e+00 1.528227e+00 1.924464e+00 2.598631e+00 2.876680e+00 2.196738e+00 1.008030e+00 1.463370e-13 -1.008030e+00 -2.196738e+00 -2.876680e+00 -2.598631e+00 -1.924464e+00 -1.528227e+00 -1.378477e+00 -1.120803e+00 -9.810539e-01 -8.336798e-01 -7.706723e-01 -6.658617e-01 -5.750704e-01 -4.147526e-01 -2.264307e-01 
4.018645e-15 2.276429e-01 4.163214e-01 5.759971e-01 6.587266e-01 7.650240e-01 8.219142e-01 1.001115e+00 1.209192e+00 1.471271e+00 1.719820e+00 1.912792e+00 1.504365e+00 2.708224e-01 -6.984486e-01 -5.668101e-01 1.977679e-13 5.668101e-01 6.984486e-01 -2.708224e-01 -1.504365e+00 -1.912792e+00 -1.719820e+00 -1.471271e+00 -1.209192e+00 -1.001115e+00 -8.219142e-01 -7.650240e-01 -6.587266e-01 -5.759971e-01 -4.163214e-01 -2.276429e-01 
1.488844e-14 2.013710e-01 3.678371e-01 5.042098e-01 5.614267e-01 6.441428e-01 6.684953e-01 8.410247e-01 9.784308e-01 7.009046e-01 5.497682e-01 -3.430996e-03 -9.897810e-01 -1.205525e+00 -5.358947e-01 -8.489209e-02 2.009092e-14 8.489209e-02 5.358947e-01 1.205525e+00 9.897810e-01 3.430996e-03 -5.497682e-01 -7.009046e-01 -9.784308e-01 -8.410247e-01 -6.684953e-01 -6.441428e-01 -5.614267e-01 -5.042098e-01 -3.678371e-01 -2.013710e-01 
2.304142e-14 1.482768e-01 2.724233e-01 3.679751e-01 3.914360e-01 4.471041e-01 4.036199e-01 5.975145e-01 1.644914e-01 -4.132202e-01 -4.674947e-01 -8.612482e-01 -6.719806e-01 -9.408350e-02 2.421415e-01 2.043641e-01 -3.830878e-14 -2.043641e-01 -2.421415e-01 9.408350e-02 6.719806e-01 8.612482e-01 4.674947e-01 4.132202e-01 -1.644914e-01 -5.975145e-01 -4.036199e-01 -4.471041e-01 -3.914360e-01 -3.679751e-01 -2.724233e-01 -1.482768e-01 
2.590197e-14 6.498179e-02 1.220949e-01 1.528252e-01 1.334399e-01 1.254491e-01 -1.108910e-02 2.799594e-02 -1.058524e+00 -9.182945e-01 -4.234392e-01 -9.659220e-01 -5.740430e-01 -3.536470e-01 -2.315145e-01 -1.409901e-01 -5.756979e-14 1.409901e-01 2.315145e-01 3.536470e-01 5.740430e-01 9.659220e-01 4.234392e-01 9.182945e-01 1.058524e+00 -2.799594e-02 1.108910e-02 -1.254491e-01 -1.334399e-01 -1.528252e-01 -1.220949e-01 -6.498179e-02 
1.762180e-14 -5.111669e-02 -8.538660e-02 -1.456934e-01 -1.856097e-01 -3.078048e-01 -4.124458e-01 -8.136609e-01 -1.498618e+00 -5.183602e-01 -6.575277e-01 -1.118981e+00 -6.274698e-01 -5.070258e-01 -2.883604e-01 -1.794800e-01 -5.375568e-14 1.794800e-01 2.883604e-01 5.070258e-01 6.274698e-01 1.118981e+00 6.575277e-01 5.183602e-01 1.498618e+00 8.136609e-01 4.124458e-01 3.078048e-01 1.856097e-01 1.456934e-01 8.538660e-02 5.111669e-02 
1.192054e-15 -2.050783e-01 -3.664026e-01 -5.330295e-01 -6.004214e-01 -8.146091e-01 -8.341932e-01 -1.468629e+00 -1.143994e+00 -3.544555e-01 -1.090407e+00 -8.743015e-01 -5.724352e-01 -5.272793e-01 -3.921653e-01 -2.371507e-01 -2.629826e-14 2.371507e-01 3.921653e-01 5.272793e-01 5.724352e-01 8.743015e-01 1.090407e+00 3.544555e-01 1.143994e+00 1.468629e+00 8.341932e-01 8.146091e-01 6.004214e-01 5.330295e-01 3.664026e-01 2.050783e-01 
-2.212948e-14 -4.115143e-01 -7.622022e-01 -1.063996e+00 -1.222248e+00 -1.418224e+00 -1.409031e+00 -1.641602e+00 -8.594546e-01 -1.014646e+00 -1.284777e+00 -6.140639e-01 -6.260087e-01 -4.298943e-01 -3.527382e-01 -1.860583e-01 -2.374967e-14 1.860583e-01 3.527382e-01 4.298943e-01 6.260087e-01 6.140639e-01 1.284777e+00 1.014646e+00 8.594546e-01 1.641602e+00 1.409031e+00 1.418224e+00 1.222248e+00 1.063996e+00 7.622022e-01 4.115143e-01 
-3.189652e-14 -6.412874e-01 -1.185130e+00 -1.582059e+00 -1.759622e+00 -1.795659e+00 -1.691639e+00 -1.358708e+00 -7.522364e-01 -1.498651e+00 -1.093866e+00 -2.842970e-01 -4.730746e-01 -2.745060e-01 -2.909684e-01 -1.416226e-01 5.264717e-15 1.416226e-01 2.909684e-01 2.745060e-01 4.730746e-01 2.842970e-01 1.093866e+00 1.498651e+00 7.522364e-01 1.358708e+00 1.691639e+00 1.795659e+00 1.759622e+00 1.582059e+00 1.185130e+00 6.412874e-01 
-3.150406e-14 -7.540145e-01 -1.380307e+00 -1.794783e+00 -1.935488e+00 -1.862372e+00 -1.689292e+00 -1.166617e+00 -7.748957e-01 -1.602293e+00 -9.304428e-01 -1.457078e-01 -3.901932e-01 -1.977202e-01 -2.486044e-01 -1.122277e-01 -2.429642e-15 1.122277e-01 2.486044e-01 1.977202e-01 3.901932e-01 1.457078e-01 9.304428e-01 1.602293e+00 7.748957e-01 1.166617e+00 1.689292e+00 1.862372e+00 1.935488e+00 1.794783e+00 1.380307e+00 7.540145e-01 
7.516265e-15 -6.412874e-01 -1.185130e+00 -1.582059e+00 -1.759622e+00 -1.795659e+00 -1.691639e+00 -1.358708e+00 -7.522364e-01 -1.498651e+00 -1.093866e+00 -2.842970e-01 -4.730746e-01 -2.745060e-01 -2.909684e-01 -1.416226e-01 1.717694e-14 1.416226e-01 2.909684e-01 2.745060e-01 4.730746e-01 2.842970e-01 1.093866e+00 1.498651e+00 7.522364e-01 1.358708e+00 1.691639e+00 1.795659e+00 1.759622e+00 1.582059e+00 1.185130e+00 6.412874e-01 
-4.586006e-15 -4.115143e-01 -7.622022e-01 -1.063996e+00 -1.222248e+00 -1.418224e+00 -1.409031e+00 -1.641602e+00 -8.594546e-01 -1.014646e+00 -1.284777e+00 -6.140639e-01 -6.260087e-01 -4.298943e-01 -3.527382e-01 -1.860583e-01 1.912451e-14 1.860583e-01 3.527382e-01 4.298943e-01 6.260087e-01 6.140639e-01 1.284777e+00 1.014646e+00 8.594546e-01 1.641602e+00 1.409031e+00 1.418224e+00 1.222248e+00 1.063996e+00 7.622022e-01 4.115143e-01 
-1.011913e-14 -2.050783e-01 -3.664026e-01 -5.330295e-01 -6.004214e-01 -8.146091e-01 -8.341932e-01 -1.468629e+00 -1.143994e+00 -3.544555e-01 -1.090407e+00 -8.743015e-01 -5.724352e-01 -5.272793e-01 -3.921653e-01 -2.371507e-01 3.399560e-14 2.371507e-01 3.921653e-01 5.272793e-01 5.724352e-01 8.743015e-01 1.090407e+00 3.544555e-01 1.143994e+00 1.468629e+00 8.341932e-01 8.146091e-01 6.004214e-01 5.330295e-01 3.664026e-01 2.050783e-01 
-2.157470e-14 -5.111669e-02 -8.538660e-02 -1.456934e-01 -1.856097e-01 -3.078048e-01 -4.124458e-01 -8.136609e-01 -1.498618e+00 -5.183602e-01 -6.575277e-01 -1.118981e+00 -6.274698e-01 -5.070258e-01 -2.883604e-01 -1.794800e-01 2.551792e-14 1.794800e-01 2.883604e-01 5.070258e-01 6.274698e-01 1.118981e+00 6.575277e-01 5.183602e-01 1.498618e+00 8.136609e-01 4.124458e-01 3.078048e-01 1.856097e-01 1.456934e-01 8.538660e-02 5.111669e-02 
-2.315057e-14 6.498179e-02 1.220949e-01 1.528252e-01 1.334399e-01 1.254491e-01 -1.108910e-02 2.799594e-02 -1.058524e+00 -9.182945e-01 -4.234392e-01 -9.659220e-01 -5.740430e-01 -3.536470e-01 -2.315145e-01 -1.409901e-01 8.801836e-15 1.409901e-01 2.315145e-01 3.536470e-01 5.740430e-01 9.659220e-01 4.234392e-01 9.182945e-01 1.058524e+00 -2.799594e-02 1.108910e-02 -1.254491e-01 -1.334399e-01 -1.528252e-01 -1.220949e-01 -6.498179e-02 
-1.333115e-14 1.482768e-01 2.724233e-01 3.679751e-01 3.914360e-01 4.471041e-01 4.036199e-01 5.975145e-01 1.644914e-01 -4.132202e-01 -4.674947e-01 -8.612482e-01 -6.719806e-01 -9.408350e-02 2.421415e-01 2.043641e-01 -1.461430e-13 -2.043641e-01 -2.421415e-01 9.408350e-02 6.719806e-01 8.612482e-01 4.674947e-01 4.132202e-01 -1.644914e-01 -5.975145e-01 -4.036199e-01 -4.471041e-01 -3.914360e-01 -3.679751e-01 -2.724233e-01 -1.482768e-01 
-6.213320e-15 2.013710e-01 3.678371e-01 5.042098e-01 5.614267e-01 6.441428e-01 6.684953e-01 8.410247e-01 9.784308e-01 7.009046e-01 5.497682e-01 -3.430996e-03 -9.897810e-01 -1.205525e+00 -5.358947e-01 -8.489209e-02 3.060970e-14 8.489209e-02 5.358947e-01 1.205525e+00 9.897810e-01 3.430996e-03 -5.497682e-01 -7.009046e-01 -9.784308e-01 -8.410247e-01 -6.684953e-01 -6.441428e-01 -5.614267e-01 -5.042098e-01 -3.678371e-01 -2.013710e-01 
1.083028e-14 2.276429e-01 4.163214e-01 5.759971e-01 6.587266e-01 7.650240e-01 8.219142e-01 1.001115e+00 1.209192e+00 1.471271e+00 1.719820e+00 1.912792e+00 1.504365e+00 2.708224e-01 -6.984486e-01 -5.668101e-01 2.506122e-13 5.668101e-01 6.984486e-01 -2.708224e-01 -1.504365e+00 -1.912792e+00 -1.719820e+00 -1.471271e+00 -1.209192e+00 -1.001115e+00 -8.219142e-01 -7.650240e-01 -6.587266e-01 -5.759971e-01 -4.163214e-01 -2.276429e-01 
1.311759e-14 2.264307e-01 4.147526e-01 5.750704e-01 6.658617e-01 7.706723e-01 8.336798e-01 9.810539e-01 1.120803e+00 1.378477e+00 1.528227e+00 1.924464e+00 2.598631e+00 2.876680e+00 2.196738e+00 1.008030e+00 -1.312713e-13 -1.008030e+00 -2.196738e+00 -2.876680e+00 -2.598631e+00 -1.924464e+00 -1.528227e+00 -1.378477e+00 -1.120803e+00 -9.810539e-01 -8.336798e-01 -7.706723e-01 -6.658617e-01 -5.750704e-01 -4.147526e-01 -2.264307e-01 
2.136939e-14 2.075738e-01 3.816108e-01 5.308313e-01 6.215534e-01 7.193395e-01 7.839906e-01 8.989092e-01 1.007460e+00 1.147491e+00 1.261899e+00 1.181769e+00 1.258672e+00 1.648501e+00 2.050165e+00 1.408988e+00 -6.973524e-14 -1.408988e+00 -2.050165e+00 -1.648501e+00 -1.258672e+00 -1.181769e+00 -1.261899e+00 -1.147491e+00 -1.007460e+00 -8.989092e-01 -7.839906e-01 -7.193395e-01 -6.215534e-01 -5.308313e-01 -3.816108e-01 -2.075738e-01 
1.364020e-14 1.763978e-01 3.250874e-01 4.528585e-01 5.326222e-01 6.142315e-01 6.670498e-01 7.505430e-01 8.240475e-01 9.123625e-01 9.962119e-01 9.756884e-01 9.925659e-01 6.692070e-01 4.127907e-01 3.478899e-01 -5.337687e-14 -3.478899e-01 -4.127907e-01 -6.692070e-01 -9.925659e-01 -9.756884e-01 -9.962119e-01 -9.123625e-01 -8.240475e-01 -7.505430e-01 -6.670498e-01 -6.142315e-01 -5.326222e-01 -4.528585e-01 -3.250874e-01 -1.763978e-01 
1.647235e-14 1.419015e-01 2.617601e-01 3.632603e-01 4.250986e-01 4.801309e-01 5.071460e-01 5.388878e-01 5.557300e-01 5.562155e-01 5.514925e-01 4.697548e-01 4.086395e-01 3.212552e-01 1.493009e-01 -5.841614e-03 -8.317812e-14 5.841614e-03 -1.493009e-01 -3.212552e-01 -4.086395e-01 -4.697548e-01 -5.514925e-01 -5.562155e-01 -5.557300e-01 -5.388878e-01 -5.071460e-01 -4.801309e-01 -4.250986e-01 -3.632603e-01 -2.617601e-01 -1.419015e-01 
7.297830e-15 1.099076e-01 2.018989e-01 2.769644e-01 3.165581e-01 3.414095e-01 3.342925e-01 3.149438e-01 2.740833e-01 2.094031e-01 1.421414e-01 1.922246e-02 -8.379156e-02 -2.528285e-01 -3.589316e-01 -2.728235e-01 -3.888413e-14 2.728235e-01 3.589316e-01 2.528285e-01 8.379156e-02 -1.922246e-02 -1.421414e-01 -2.094031e-01 -2.740833e-01 -3.149438e-01 -3.342925e-01 -3.414095e-01 -3.165581e-01 -2.769644e-01 -2.018989e-01 -1.099076e-01 
9.748875e-15 8.370320e-02 1.518014e-01 2.019511e-01 2.170648e-01 2.071193e-01 1.581575e-01 7.996197e-02 -2.673542e-02 -1.608426e-01 -2.926502e-01 -4.382949e-01 -5.391805e-01 -5.970497e-01 -5.508494e-01 -3.668132e-01 -3.903644e-14 3.668132e-01 5.508494e-01 5.970497e-01 5.391805e-01 4.382949e-01 2.926502e-01 1.608426e-01 2.673542e-02 -7.996197e-02 -1.581575e-01 -2.071193e-01 -2.170648e-01 -2.019511e-01 -1.518014e-01 -8.370320e-02 
2.844938e-15 6.727682e-02 1.198613e-01 1.531599e-01 1.501351e-01 1.143633e-01 3.340360e-02 -8.822436e-02 -2.426094e-01 -4.297462e-01 -6.086361e-01 -7.914236e-01 -8.980716e-01 -9.321003e-01 -8.000546e-01 -4.784411e-01 -1.277702e-14 4.784411e-01 8.000546e-01 9.321003e-01 8.980716e-01 7.914236e-01 6.086361e-01 4.297462e-01 2.426094e-01 8.822436e-02 -3.340360e-02 -1.143633e-01 -1.501351e-01 -1.531599e-01 -1.198613e-01 -6.727682e-02 
