# vtk DataFile Version 2.0
Comment goes here
ASCII

DATASET STRUCTURED_POINTS
FIELD FieldData 1
TIME 1 1 double
0.76000000
DIMENSIONS    32   32   1

ORIGIN    0.000   0.000   0.000
SPACING   0.03125 0.03125   1.000

POINT_DATA   1024
SCALARS uX double
LOOKUP_TABLE default

-3.024839e-16 -4.598244e-02 -1.032662e-01 -1.799983e-01 -2.866960e-01 -4.220940e-01 -6.001656e-01 -8.011332e-01 -1.037801e+00 -1.257412e+00 -1.467300e+00 -1.589278e+00 -1.641274e+00 -1.530349e+00 -1.272200e+00 -7.440777e-01 2.352566e-14 7.440777e-01 1.272200e+00 1.530349e+00 1.641274e+00 1.589278e+00 1.467300e+00 1.257412e+00 1.037801e+00 8.011332e-01 6.001656e-01 4.220940e-01 2.866960e-01 1.799983e-01 1.032662e-01 4.598244e-02 
-2.316031e-15 -4.023874e-02 -9.152130e-02 -1.627049e-01 -2.618688e-01 -3.885964e-01 -5.534841e-01 -7.386278e-01 -9.556046e-01 -1.155823e+00 -1.348560e+00 -1.460667e+00 -1.512724e+00 -1.417192e+00 -1.185104e+00 -6.875072e-01 2.701543e-14 6.875072e-01 1.185104e+00 1.417192e+00 1.512724e+00 1.460667e+00 1.348560e+00 1.155823e+00 9.556046e-01 7.386278e-01 5.534841e-01 3.885964e-01 2.618688e-01 1.627049e-01 9.152130e-02 4.023874e-02 
-3.418420e-15 -2.672587e-02 -6.542294e-02 -1.259181e-01 -2.134442e-01 -3.263129e-01 -4.713523e-01 -6.295770e-01 -8.136743e-01 -9.774112e-01 -1.136621e+00 -1.219574e+00 -1.256111e+00 -1.157665e+00 -9.567244e-01 -5.276544e-01 3.601556e-14 5.276544e-01 9.567244e-01 1.157665e+00 1.256111e+00 1.219574e+00 1.136621e+00 9.774112e-01 8.136743e-01 6.295770e-01 4.713523e-01 3.263129e-01 2.134442e-01 1.259181e-01 6.542294e-02 2.672587e-02 
-4.783299e-15 -3.439656e-03 -2.011810e-02 -6.356838e-02 -1.319377e-01 -2.259630e-01 -3.422065e-01 -4.643942e-01 -6.005346e-01 -7.086619e-01 -8.093276e-01 -8.337467e-01 -8.351862e-01 -7.481633e-01 -6.028245e-01 -2.821917e-01 3.754583e-14 2.821917e-01 6.028245e-01 7.481633e-01 8.351862e-01 8.337467e-01 8.093276e-01 7.086619e-01 6.005346e-01 4.643942e-01 3.422065e-01 2.259630e-01 1.319377e-01 6.356838e-02 2.011810e-02 3.439656e-03 
-8.826347e-15 2.733516e-02 3.792244e-02 1.273215e-02 -4.015010e-02 -1.236684e-01 -2.260630e-01 -3.309995e-01 -4.451517e-01 -5.254242e-01 -5.980439e-01 -5.860076e-01 -5.494324e-01 -4.037770e-01 -2.338959e-01 -2.474101e-02 7.701046e-15 2.474101e-02 2.338959e-01 4.037770e-01 5.494324e-01 5.860076e-01 5.980439e-01 5.254242e-01 4.451517e-01 3.309995e-01 2.260630e-01 1.236684e-01 4.015010e-02 -1.273215e-02 -3.792244e-02 -2.733516e-02 
-8.553165e-15 6.332225e-02 1.059722e-01 9.912537e-02 6.160432e-02 -1.950429e-02 -1.162911e-01 -2.209040e-01 -3.315098e-01 -4.042593e-01 -4.577340e-01 -3.684959e-01 -2.596438e-01 -1.023932e-01 4.702167e-02 1.384166e-01 -5.875237e-14 -1.384166e-01 -4.702167e-02 1.023932e-01 2.596438e-01 3.684959e-01 4.577340e-01 4.042593e-01 3.315098e-01 2.209040e-01 1.162911e-01 1.950429e-02 -6.160432e-02 -9.912537e-02 -1.059722e-01 -6.332225e-02 
-1.138209e-14 1.042902e-01 1.832371e-01 1.961316e-01 1.717680e-01 8.501773e-02 -2.369400e-02 -1.524983e-01 -3.012372e-01 -4.245655e-01 -5.586429e-01 -5.203286e-01 -3.358020e-01 7.489023e-02 3.955514e-01 3.028540e-01 -1.061390e-13 -3.028540e-01 -3.955514e-01 -7.489023e-02 3.358020e-01 5.203286e-01 5.586429e-01 4.245655e-01 3.012372e-01 1.524983e-01 2.369400e-02 -8.501773e-02 -1.717680e-01 -1.961316e-01 -1.832371e-01 -1.042902e-01 
-4.941277e-15 1.396526e-01 2.510853e-01 2.794922e-01 2.692852e-01 1.690956e-01 4.632252e-02 -1.267706e-01 -3.541478e-01 -6.078770e-01 -7.117843e-01 -2.244955e-01 5.376901e-01 8.484900e-01 8.427221e-01 3.452836e-01 -1.926553e-15 -3.452836e-01 -8.427221e-01 -8.484900e-01 -5.376901e-01 2.244955e-01 7.117843e-01 6.078770e-01 3.541478e-01 1.267706e-01 -4.632252e-02 -1.690956e-01 -2.692852e-01 -2.794922e-01 -2.510853e-01 -1.396526e-01 
6.650472e-16 1.723291e-01 3.164599e-01 3.638770e-01 3.775914e-01 2.717130e-01 1.373724e-01 -7.614943e-02 -3.509917e-01 -5.437381e-01 -4.423459e-02 5.433700e-01 8.792152e-01 2.403033e-01 -1.126046e-01 -1.998551e-01 1.699288e-13 1.998551e-01 1.126046e-01 -2.403033e-01 -8.792152e-01 -5.433700e-01 4.423459e-02 5.437381e-01 3.509917e-01 7.614943e-02 -1.373724e-01 -2.717130e-01 -3.775914e-01 -3.638770e-01 -3.164599e-01 -1.723291e-01 
1.541673e-14 1.847682e-01 3.438296e-01 4.022553e-01 4.449070e-01 3.342207e-01 2.283103e-01 1.202612e-02 -2.870617e-01 -2.440134e-01 5.563576e-01 3.486680e-01 -6.861339e-02 -2.702076e-01 -1.098390e-01 6.063793e-02 1.529887e-13 -6.063793e-02 1.098390e-01 2.702076e-01 6.861339e-02 -3.486680e-01 -5.563576e-01 2.440134e-01 2.870617e-01 -1.202612e-02 -2.283103e-01 -3.342207e-01 -4.449070e-01 -4.022553e-01 -3.438296e-01 -1.847682e-01 
2.783731e-14 1.828639e-01 3.529242e-01 4.281921e-01 5.306264e-01 4.469501e-01 4.138972e-01 2.542741e-01 -4.608277e-01 2.265605e-01 6.761546e-01 6.477275e-01 9.326467e-01 1.319739e+00 1.272561e+00 7.436742e-01 6.376595e-15 -7.436742e-01 -1.272561e+00 -1.319739e+00 -9.326467e-01 -6.477275e-01 -6.761546e-01 -2.265605e-01 4.608277e-01 -2.542741e-01 -4.138972e-01 -4.469501e-01 -5.306264e-01 -4.281921e-01 -3.529242e-01 -1.828639e-01 
3.855798e-14 1.403970e-01 2.829124e-01 3.669147e-01 5.171986e-01 4.230493e-01 5.805892e-01 1.600665e-01 -4.621613e-01 1.010727e+00 9.486987e-01 1.144904e+00 1.076425e+00 9.013900e-01 5.645732e-01 2.547678e-01 -9.482842e-15 -2.547678e-01 -5.645732e-01 -9.013900e-01 -1.076425e+00 -1.144904e+00 -9.486987e-01 -1.010727e+00 4.621613e-01 -1.600665e-01 -5.805892e-01 -4.230493e-01 -5.171986e-01 -3.669147e-01 -2.829124e-01 -1.403970e-01 
4.934637e-14 6.052989e-02 1.562510e-01 2.420465e-01 4.882500e-01 3.989493e-01 9.414085e-01 -5.000851e-01 5.401795e-01 1.666301e+00 9.486226e-01 8.149399e-01 2.673438e-01 1.525433e-01 -8.457107e-03 -1.717542e-02 -4.017938e-15 1.717542e-02 8.457107e-03 -1.525433e-01 -2.673438e-01 -8.149399e-01 -9.486226e-01 -1.666301e+00 -5.401795e-01 5.000851e-01 -9.414085e-01 -3.989493e-01 -4.882500e-01 -2.420465e-01 -1.562510e-01 -6.052989e-02 
3.767185e-14 -7.484270e-02 -1.001787e-01 -1.531587e-02 1.735334e-01 4.227274e-01 5.588557e-01 -4.411229e-01 1.804028e+00 1.481222e+00 8.275320e-01 5.970313e-01 3.562469e-01 3.204842e-01 1.609433e-01 5.643580e-02 -6.205689e-15 -5.643580e-02 -1.609433e-01 -3.204842e-01 -3.562469e-01 -5.970313e-01 -8.275320e-01 -1.481222e+00 -1.804028e+00 4.411229e-01 -5.588557e-01 -4.227274e-01 -1.735334e-01 1.531587e-02 1.001787e-01 7.484270e-02 
2.930217e-14 -2.421567e-01 -4.467030e-01 -4.045476e-01 -4.372183e-01 1.232971e-01 -4.067831e-01 8.745068e-01 1.846038e+00 7.977605e-01 8.336987e-01 6.296504e-01 4.675484e-01 2.839738e-01 1.321604e-01 3.836499e-02 -1.273465e-14 -3.836499e-02 -1.321604e-01 -2.839738e-01 -4.675484e-01 -6.296504e-01 -8.336987e-01 -7.977605e-01 -1.846038e+00 -8.745068e-01 4.067831e-01 -1.232971e-01 4.372183e-01 4.045476e-01 4.467030e-01 2.421567e-01 
6.414502e-15 -4.096189e-01 -7.719814e-01 -9.061984e-01 -1.072722e+00 -7.150292e-01 -4.020960e-01 1.819727e+00 1.186992e+00 6.286856e-01 9.948180e-01 7.968022e-01 7.058052e-01 4.675915e-01 2.825077e-01 1.141573e-01 -5.386845e-15 -1.141573e-01 -2.825077e-01 -4.675915e-01 -7.058052e-01 -7.968022e-01 -9.948180e-01 -6.286856e-01 -1.186992e+00 -1.819727e+00 4.020960e-01 7.150292e-01 1.072722e+00 9.061984e-01 7.719814e-01 4.096189e-01 
-2.564137e-14 -5.109487e-01 -9.660714e-01 -1.245029e+00 -1.468151e+00 -1.329798e+00 -1.294056e-01 1.922190e+00 1.009131e+00 8.184462e-01 1.225434e+00 9.697223e-01 8.304561e-01 5.103338e-01 2.950181e-01 1.131432e-01 -2.426403e-14 -1.131432e-01 -2.950181e-01 -5.103338e-01 -8.304561e-01 -9.697223e-01 -1.225434e+00 -8.184462e-01 -1.009131e+00 -1.922190e+00 1.294056e-01 1.329798e+00 1.468151e+00 1.245029e+00 9.660714e-01 5.109487e-01 
-2.947599e-14 -4.096189e-01 -7.719814e-01 -9.061984e-01 -1.072722e+00 -7.150292e-01 -4.020960e-01 1.819727e+00 1.186992e+00 6.286856e-01 9.948180e-01 7.968022e-01 7.058052e-01 4.675915e-01 2.825077e-01 1.141573e-01 -1.700249e-14 -1.141573e-01 -2.825077e-01 -4.675915e-01 -7.058052e-01 -7.968022e-01 -9.948180e-01 -6.286856e-01 -1.186992e+00 -1.819727e+00 4.020960e-01 7.150292e-01 1.072722e+00 9.061984e-01 7.719814e-01 4.096189e-01 
-5.426738e-14 -2.421567e-01 -4.467030e-01 -4.045476e-01 -4.372183e-01 1.232971e-01 -4.067831e-01 8.745068e-01 1.846038e+00 7.977605e-01 8.336987e-01 6.296504e-01 4.675484e-01 2.839738e-01 1.321604e-01 3.836499e-02 -3.516713e-14 -3.836499e-02 -1.321604e-01 -2.839738e-01 -4.675484e-01 -6.296504e-01 -8.336987e-01 -7.977605e-01 -1.846038e+00 -8.745068e-01 4.067831e-01 -1.232971e-01 4.372183e-01 4.045476e-01 4.467030e-01 2.421567e-01 
-4.607443e-14 -7.484270e-02 -1.001787e-01 -1.531587e-02 1.735334e-01 4.227274e-01 5.588557e-01 -4.411229e-01 1.804028e+00 1.481222e+00 8.275320e-01 5.970313e-01 3.562469e-01 3.204842e-01 1.609433e-01 5.643580e-02 -5.250710e-14 -5.643580e-02 -1.609433e-01 -3.204842e-01 -3.562469e-01 -5.970313e-01 -8.275320e-01 -1.481222e+00 -1.804028e+00 4.411229e-01 -5.588557e-01 -4.227274e-01 -1.735334e-01 1.531587e-02 1.001787e-01 7.484270e-02 
-4.628998e-14 6.052989e-02 1.562510e-01 2.420465e-01 4.882500e-01 3.989493e-01 9.414085e-01 -5.000851e-01 5.401795e-01 1.666301e+00 9.486226e-01 8.149399e-01 2.673438e-01 1.525433e-01 -8.457107e-03 -1.717542e-02 -6.153375e-14 1.717542e-02 8.457107e-03 -1.525433e-01 -2.673438e-01 -8.149399e-01 -9.486226e-01 -1.666301e+00 -5.401795e-01 5.000851e-01 -9.414085e-01 -3.989493e-01 -4.882500e-01 -2.420465e-01 -1.562510e-01 -6.052989e-02 
-2.873060e-14 1.403970e-01 2.829124e-01 3.669147e-01 5.171986e-01 4.230493e-01 5.805892e-01 1.600665e-01 -4.621613e-01 1.010727e+00 9.486987e-01 1.144904e+00 1.076425e+00 9.013900e-01 5.645732e-01 2.547678e-01 -1.214119e-13 -2.547678e-01 -5.645732e-01 -9.013900e-01 -1.076425e+00 -1.144904e+00 -9.486987e-01 -1.010727e+00 4.621613e-01 -1.600665e-01 -5.805892e-01 -4.230493e-01 -5.171986e-01 -3.669147e-01 -2.829124e-01 -1.403970e-01 
-1.283487e-14 1.828639e-01 3.529242e-01 4.281921e-01 5.306264e-01 4.469501e-01 4.138972e-01 2.542741e-01 -4.608277e-01 2.265605e-01 6.761546e-01 6.477275e-01 9.326467e-01 1.319739e+00 1.272561e+00 7.436742e-01 -2.552965e-13 -7.436742e-01 -1.272561e+00 -1.319739e+00 -9.326467e-01 -6.477275e-01 -6.761546e-01 -2.265605e-01 4.608277e-01 -2.542741e-01 -4.138972e-01 -4.469501e-01 -5.306264e-01 -4.281921e-01 -3.529242e-01 -1.828639e-01 
-5.922066e-15 1.847682e-01 3.438296e-01 4.022553e-01 4.449070e-01 3.342207e-01 2.283103e-01 1.202612e-02 -2.870617e-01 -2.440134e-01 5.563576e-01 3.486680e-01 -6.861339e-02 -2.702076e-01 -1.098390e-01 6.063793e-02 -9.379045e-14 -6.063793e-02 1.098390e-01 2.702076e-01 6.861339e-02 -3.486680e-01 -5.563576e-01 2.440134e-01 2.870617e-01 -1.202612e-02 -2.283103e-01 -3.342207e-01 -4.449070e-01 -4.022553e-01 -3.438296e-01 -1.847682e-01 
9.652995e-15 1.723291e-01 3.164599e-01 3.638770e-01 3.775914e-01 2.717130e-01 1.373724e-01 -7.614943e-02 -3.509917e-01 -5.437381e-01 -4.423459e-02 5.433700e-01 8.792152e-01 2.403033e-01 -1.126046e-01 -1.998551e-01 1.920382e-13 1.998551e-01 1.126046e-01 -2.403033e-01 -8.792152e-01 -5.433700e-01 4.423459e-02 5.437381e-01 3.509917e-01 7.614943e-02 -1.373724e-01 -2.717130e-01 -3.775914e-01 -3.638770e-01 -3.164599e-01 -1.723291e-01 
7.190329e-15 1.396526e-01 2.510853e-01 2.794922e-01 2.692852e-01 1.690956e-01 4.632252e-02 -1.267706e-01 -3.541478e-01 -6.078770e-01 -7.117843e-01 -2.244955e-01 5.376901e-01 8.484900e-01 8.427221e-01 3.452836e-01 1.200191e-13 -3.452836e-01 -8.427221e-01 -8.484900e-01 -5.376901e-01 2.244955e-01 7.117843e-01 6.078770e-01 3.541478e-01 1.267706e-01 -4.632252e-02 -1.690956e-01 -2.692852e-01 -2.794922e-01 -2.510853e-01 -1.396526e-01 
1.483706e-14 1.042902e-01 1.832371e-01 1.961316e-01 1.717680e-01 8.501773e-02 -2.369400e-02 -1.524983e-01 -3.012372e-01 -4.245655e-01 -5.586429e-01 -5.203286e-01 -3.358020e-01 7.489023e-02 3.955514e-01 3.028540e-01 6.752358e-14 -3.028540e-01 -3.955514e-01 -7.489023e-02 3.358020e-01 5.203286e-01 5.586429e-01 4.245655e-01 3.012372e-01 1.524983e-01 2.369400e-02 -8.501773e-02 -1.717680e-01 -1.961316e-01 -1.832371e-01 -1.042902e-01 
6.288226e-15 6.332225e-02 1.059722e-01 9.912537e-02 6.160432e-02 -1.950429e-02 -1.162911e-01 -2.209040e-01 -3.315098e-01 -4.042593e-01 -4.577340e-01 -3.684959e-01 -2.596438e-01 -1.023932e-01 4.702167e-02 1.384166e-01 3.124678e-14 -1.384166e-01 -4.702167e-02 1.023932e-01 2.596438e-01 3.684959e-01 4.577340e-01 4.042593e-01 3.315098e-01 2.209040e-01 1.162911e-01 1.950429e-02 -6.160432e-02 -9.912537e-02 -1.059722e-01 -6.332225e-02 
8.755770e-15 2.733516e-02 3.792244e-02 1.273215e-02 -4.015010e-02 -1.236684e-01 -2.260630e-01 -3.309995e-01 -4.451517e-01 -5.254242e-01 -5.980439e-01 -5.860076e-01 -5.494324e-01 -4.037770e-01 -2.338959e-01 -2.474101e-02 -7.317512e-15 2.474101e-02 2.338959e-01 4.037770e-01 5.494324e-01 5.860076e-01 5.980439e-01 5.254242e-01 4.451517e-01 3.309995e-01 2.260630e-01 1.236684e-01 4.015010e-02 -1.273215e-02 -3.792244e-02 -2.733516e-02 
9.685266e-16 -3.439656e-03 -2.011810e-02 -6.356838e-02 -1.319377e-01 -2.259630e-01 -3.422065e-01 -4.643942e-01 -6.005346e-01 -7.086619e-01 -8.093276e-01 -8.337467e-01 -8.351862e-01 -7.481633e-01 -6.028245e-01 -2.821917e-01 -3.200582e-14 2.821917e-01 6.028245e-01 7.481633e-01 8.351862e-01 8.337467e-01 8.093276e-01 7.086619e-01 6.005346e-01 4.643942e-01 3.422065e-01 2.259630e-01 1.319377e-01 6.356838e-02 2.011810e-02 3.439656e-03 
2.886994e-15 -2.672587e-02 -6.542294e-02 -1.259181e-01 -2.134442e-01 -3.263129e-01 -4.713523e-01 -6.295770e-01 -8.136743e-01 -9.774112e-01 -1.136621e+00 -1.219574e+00 -1.256111e+00 -1.157665e+00 -9.567244e-01 -5.276544e-01 -1.631809e-14 5.276544e-01 9.567244e-01 1.157665e+00 1.256111e+00 1.219574e+00 1.136621e+00 9.774112e-01 8.136743e-01 6.295770e-01 4.713523e-01 3.263129e-01 2.134442e-01 1.259181e-01 6.542294e-02 2.672587e-02 
-1.239383e-15 -4.023874e-02 -9.152130e-02 -1.627049e-01 -2.618688e-01 -3.885964e-01 -5.534841e-01 -7.386278e-01 -9.556046e-01 -1.155823e+00 -1.348560e+00 -1.460667e+00 -1.512724e+00 -1.417192e+00 -1.185104e+00 -6.875072e-01 1.012815e-14 6.875072e-01 1.185104e+00 1.417192e+00 1.512724e+00 1.460667e+00 1.348560e+00 1.155823e+00 9.556046e-01 7.386278e-01 5.534841e-01 3.885964e-01 2.618688e-01 1.627049e-01 9.152130e-02 4.023874e-02 
