# vtk DataFile Version 2.0
Comment goes here
ASCII

DATASET STRUCTURED_POINTS
FIELD FieldData 1
TIME 1 1 double
0.70000000
DIMENSIONS    32   32   1

ORIGIN    0.000   0.000   0.000
SPACING   0.03125 0.03125   1.000

POINT_DATA   1024
SCALARS uX double
LOOKUP_TABLE default

2.405335e-15 6.557792e-02 1.203289e-01 1.587827e-01 1.663329e-01 1.477967e-01 7.593855e-02 -2.337937e-02 -1.969779e-01 -3.731881e-01 -6.156146e-01 -7.891971e-01 -9.646856e-01 -9.666242e-01 -8.577554e-01 -5.252760e-01 3.128882e-14 5.252760e-01 8.577554e-01 9.666242e-01 9.646856e-01 7.891971e-01 6.156146e-01 3.731881e-01 1.969779e-01 2.337937e-02 -7.593855e-02 -1.477967e-01 -1.663329e-01 -1.587827e-01 -1.203289e-01 -6.557792e-02 
-3.114742e-15 7.083838e-02 1.311428e-01 1.750304e-01 1.900453e-01 1.804042e-01 1.222259e-01 3.992841e-02 -1.121873e-01 -2.652074e-01 -4.888691e-01 -6.500309e-01 -8.337648e-01 -8.626248e-01 -7.964742e-01 -4.989168e-01 2.950827e-14 4.989168e-01 7.964742e-01 8.626248e-01 8.337648e-01 6.500309e-01 4.888691e-01 2.652074e-01 1.121873e-01 -3.992841e-02 -1.222259e-01 -1.804042e-01 -1.900453e-01 -1.750304e-01 -1.311428e-01 -7.083838e-02 
1.698789e-16 8.298002e-02 1.552153e-01 2.095332e-01 2.380345e-01 2.439499e-01 2.115268e-01 1.624035e-01 5.586777e-02 -4.575586e-02 -2.206634e-01 -3.421388e-01 -5.237132e-01 -5.764211e-01 -6.019179e-01 -4.219663e-01 2.127616e-14 4.219663e-01 6.019179e-01 5.764211e-01 5.237132e-01 3.421388e-01 2.206634e-01 4.575586e-02 -5.586777e-02 -1.624035e-01 -2.115268e-01 -2.439499e-01 -2.380345e-01 -2.095332e-01 -1.552153e-01 -8.298002e-02 
-6.819725e-15 1.040206e-01 1.968428e-01 2.683600e-01 3.187828e-01 3.476051e-01 3.534716e-01 3.504292e-01 3.082633e-01 2.784164e-01 1.673580e-01 1.015292e-01 -9.990226e-02 -2.317775e-01 -4.002028e-01 -3.144317e-01 2.874726e-14 3.144317e-01 4.002028e-01 2.317775e-01 9.990226e-02 -1.015292e-01 -1.673580e-01 -2.784164e-01 -3.082633e-01 -3.504292e-01 -3.534716e-01 -3.476051e-01 -3.187828e-01 -2.683600e-01 -1.968428e-01 -1.040206e-01 
-4.848058e-15 1.308447e-01 2.482711e-01 3.372018e-01 4.069955e-01 4.513806e-01 4.865645e-01 5.150114e-01 5.246115e-01 5.507312e-01 5.016634e-01 4.975384e-01 3.387910e-01 2.894439e-01 1.186234e-02 -4.562067e-02 3.225028e-14 4.562067e-02 -1.186234e-02 -2.894439e-01 -3.387910e-01 -4.975384e-01 -5.016634e-01 -5.507312e-01 -5.246115e-01 -5.150114e-01 -4.865645e-01 -4.513806e-01 -4.069955e-01 -3.372018e-01 -2.482711e-01 -1.308447e-01 
-1.279960e-14 1.613614e-01 3.064261e-01 4.128670e-01 5.025042e-01 5.593630e-01 6.257023e-01 6.825948e-01 7.517140e-01 8.404098e-01 8.724353e-01 1.017455e+00 8.590834e-01 6.693060e-01 4.341174e-01 4.743606e-01 5.818806e-14 -4.743606e-01 -4.341174e-01 -6.693060e-01 -8.590834e-01 -1.017455e+00 -8.724353e-01 -8.404098e-01 -7.517140e-01 -6.825948e-01 -6.257023e-01 -5.593630e-01 -5.025042e-01 -4.128670e-01 -3.064261e-01 -1.613614e-01 
-9.363557e-15 1.931251e-01 3.662677e-01 4.875222e-01 5.913912e-01 6.502953e-01 7.339786e-01 7.971039e-01 9.033319e-01 9.962314e-01 1.071855e+00 1.139473e+00 9.387318e-01 1.433529e+00 1.832474e+00 1.396213e+00 -3.395113e-14 -1.396213e+00 -1.832474e+00 -1.433529e+00 -9.387318e-01 -1.139473e+00 -1.071855e+00 -9.962314e-01 -9.033319e-01 -7.971039e-01 -7.339786e-01 -6.502953e-01 -5.913912e-01 -4.875222e-01 -3.662677e-01 -1.931251e-01 
-1.468067e-14 2.135852e-01 4.051445e-01 5.320855e-01 6.436705e-01 6.976157e-01 8.027225e-01 8.693049e-01 1.046497e+00 1.072099e+00 1.213842e+00 1.590148e+00 2.122144e+00 2.498541e+00 2.012301e+00 9.967422e-01 -1.084413e-13 -9.967422e-01 -2.012301e+00 -2.498541e+00 -2.122144e+00 -1.590148e+00 -1.213842e+00 -1.072099e+00 -1.046497e+00 -8.693049e-01 -8.027225e-01 -6.976157e-01 -6.436705e-01 -5.320855e-01 -4.051445e-01 -2.135852e-01 
-3.620082e-15 2.229777e-01 4.246519e-01 5.507158e-01 6.657956e-01 7.110754e-01 8.324077e-01 9.156275e-01 1.098358e+00 1.086758e+00 1.448517e+00 1.455177e+00 1.405201e+00 5.392359e-01 -2.246324e-01 -2.556383e-01 -1.070586e-13 2.556383e-01 2.246324e-01 -5.392359e-01 -1.405201e+00 -1.455177e+00 -1.448517e+00 -1.086758e+00 -1.098358e+00 -9.156275e-01 -8.324077e-01 -7.110754e-01 -6.657956e-01 -5.507158e-01 -4.246519e-01 -2.229777e-01 
5.458266e-16 2.004712e-01 3.818780e-01 4.825379e-01 5.787136e-01 6.042769e-01 7.354285e-01 8.684248e-01 8.487057e-01 5.813913e-01 5.985108e-01 -1.090325e-01 -7.744299e-01 -8.889127e-01 -4.639576e-01 -5.378762e-02 -2.581992e-14 5.378762e-02 4.639576e-01 8.889127e-01 7.744299e-01 1.090325e-01 -5.985108e-01 -5.813913e-01 -8.487057e-01 -8.684248e-01 -7.354285e-01 -6.042769e-01 -5.787136e-01 -4.825379e-01 -3.818780e-01 -2.004712e-01 
1.901786e-14 1.598545e-01 3.053200e-01 3.713511e-01 4.485882e-01 4.431567e-01 5.818559e-01 4.460353e-01 -1.823233e-01 -2.478996e-01 -4.845374e-01 -6.729831e-01 -3.313032e-01 2.300592e-02 2.333852e-01 1.288805e-01 5.317567e-14 -1.288805e-01 -2.333852e-01 -2.300592e-02 3.313032e-01 6.729831e-01 4.845374e-01 2.478996e-01 1.823233e-01 -4.460353e-01 -5.818559e-01 -4.431567e-01 -4.485882e-01 -3.713511e-01 -3.053200e-01 -1.598545e-01 
2.661015e-14 7.468093e-02 1.351132e-01 1.242628e-01 1.230517e-01 -1.659640e-02 -1.612650e-02 -8.724775e-01 -1.276071e+00 -3.998691e-01 -7.449200e-01 -7.738324e-01 -3.212365e-01 -2.832806e-01 -1.399735e-01 -1.690851e-01 3.215757e-14 1.690851e-01 1.399735e-01 2.832806e-01 3.212365e-01 7.738324e-01 7.449200e-01 3.998691e-01 1.276071e+00 8.724775e-01 1.612650e-02 1.659640e-02 -1.230517e-01 -1.242628e-01 -1.351132e-01 -7.468093e-02 
3.753581e-14 -3.421328e-02 -7.741223e-02 -1.472389e-01 -2.094574e-01 -3.686269e-01 -4.940077e-01 -1.486716e+00 -7.567916e-01 -1.209709e-02 -9.822775e-01 -9.022427e-01 -6.622981e-01 -5.743445e-01 -3.489223e-01 -2.337382e-01 2.300656e-14 2.337382e-01 3.489223e-01 5.743445e-01 6.622981e-01 9.022427e-01 9.822775e-01 1.209709e-02 7.567916e-01 1.486716e+00 4.940077e-01 3.686269e-01 2.094574e-01 1.472389e-01 7.741223e-02 3.421328e-02 
4.279717e-14 -1.987831e-01 -4.031307e-01 -5.498917e-01 -7.502589e-01 -8.403054e-01 -1.235180e+00 -1.292332e+00 -3.596847e-01 -6.454023e-01 -1.168165e+00 -8.500548e-01 -6.326697e-01 -5.743785e-01 -3.925041e-01 -2.652933e-01 1.160668e-14 2.652933e-01 3.925041e-01 5.743785e-01 6.326697e-01 8.500548e-01 1.168165e+00 6.454023e-01 3.596847e-01 1.292332e+00 1.235180e+00 8.403054e-01 7.502589e-01 5.498917e-01 4.031307e-01 1.987831e-01 
3.004091e-14 -4.161522e-01 -8.133393e-01 -1.063239e+00 -1.344925e+00 -1.343190e+00 -1.705367e+00 -9.363626e-01 -7.544536e-01 -1.394742e+00 -8.727210e-01 -6.682222e-01 -5.649347e-01 -5.123689e-01 -3.619228e-01 -2.304138e-01 3.888734e-15 2.304138e-01 3.619228e-01 5.123689e-01 5.649347e-01 6.682222e-01 8.727210e-01 1.394742e+00 7.544536e-01 9.363626e-01 1.705367e+00 1.343190e+00 1.344925e+00 1.063239e+00 8.133393e-01 4.161522e-01 
2.248200e-14 -6.261745e-01 -1.153417e+00 -1.445252e+00 -1.606509e+00 -1.532363e+00 -1.388244e+00 -6.458729e-01 -1.207237e+00 -1.461838e+00 -4.501922e-01 -3.261816e-01 -3.192240e-01 -3.268727e-01 -2.533056e-01 -1.695882e-01 -1.294740e-15 1.695882e-01 2.533056e-01 3.268727e-01 3.192240e-01 3.261816e-01 4.501922e-01 1.461838e+00 1.207237e+00 6.458729e-01 1.388244e+00 1.532363e+00 1.606509e+00 1.445252e+00 1.153417e+00 6.261745e-01 
-3.638131e-14 -7.444112e-01 -1.338278e+00 -1.650476e+00 -1.759178e+00 -1.723879e+00 -1.369855e+00 -8.028263e-01 -1.580223e+00 -1.493264e+00 -3.080590e-01 -2.240058e-01 -2.362642e-01 -2.775363e-01 -2.228977e-01 -1.501571e-01 -9.335610e-15 1.501571e-01 2.228977e-01 2.775363e-01 2.362642e-01 2.240058e-01 3.080590e-01 1.493264e+00 1.580223e+00 8.028263e-01 1.369855e+00 1.723879e+00 1.759178e+00 1.650476e+00 1.338278e+00 7.444112e-01 
-3.855176e-14 -6.261745e-01 -1.153417e+00 -1.445252e+00 -1.606509e+00 -1.532363e+00 -1.388244e+00 -6.458729e-01 -1.207237e+00 -1.461838e+00 -4.501922e-01 -3.261816e-01 -3.192240e-01 -3.268727e-01 -2.533056e-01 -1.695882e-01 -1.286232e-14 1.695882e-01 2.533056e-01 3.268727e-01 3.192240e-01 3.261816e-01 4.501922e-01 1.461838e+00 1.207237e+00 6.458729e-01 1.388244e+00 1.532363e+00 1.606509e+00 1.445252e+00 1.153417e+00 6.261745e-01 
-5.323445e-14 -4.161522e-01 -8.133393e-01 -1.063239e+00 -1.344925e+00 -1.343190e+00 -1.705367e+00 -9.363626e-01 -7.544536e-01 -1.394742e+00 -8.727210e-01 -6.682222e-01 -5.649347e-01 -5.123689e-01 -3.619228e-01 -2.304138e-01 -1.872965e-14 2.304138e-01 3.619228e-01 5.123689e-01 5.649347e-01 6.682222e-01 8.727210e-01 1.394742e+00 7.544536e-01 9.363626e-01 1.705367e+00 1.343190e+00 1.344925e+00 1.063239e+00 8.133393e-01 4.161522e-01 
-3.932202e-14 -1.987831e-01 -4.031307e-01 -5.498917e-01 -7.502589e-01 -8.403054e-01 -1.235180e+00 -1.292332e+00 -3.596847e-01 -6.454023e-01 -1.168165e+00 -8.500548e-01 -6.326697e-01 -5.743785e-01 -3.925041e-01 -2.652933e-01 -3.187533e-14 2.652933e-01 3.925041e-01 5.743785e-01 6.326697e-01 8.500548e-01 1.168165e+00 6.454023e-01 3.596847e-01 1.292332e+00 1.235180e+00 8.403054e-01 7.502589e-01 5.498917e-01 4.031307e-01 1.987831e-01 
-3.432005e-14 -3.421328e-02 -7.741223e-02 -1.472389e-01 -2.094574e-01 -3.686269e-01 -4.940077e-01 -1.486716e+00 -7.567916e-01 -1.209709e-02 -9.822775e-01 -9.022427e-01 -6.622981e-01 -5.743445e-01 -3.489223e-01 -2.337382e-01 -2.881376e-14 2.337382e-01 3.489223e-01 5.743445e-01 6.622981e-01 9.022427e-01 9.822775e-01 1.209709e-02 7.567916e-01 1.486716e+00 4.940077e-01 3.686269e-01 2.094574e-01 1.472389e-01 7.741223e-02 3.421328e-02 
-1.900934e-14 7.468093e-02 1.351132e-01 1.242628e-01 1.230517e-01 -1.659640e-02 -1.612650e-02 -8.724775e-01 -1.276071e+00 -3.998691e-01 -7.449200e-01 -7.738324e-01 -3.212365e-01 -2.832806e-01 -1.399735e-01 -1.690851e-01 -1.616257e-14 1.690851e-01 1.399735e-01 2.832806e-01 3.212365e-01 7.738324e-01 7.449200e-01 3.998691e-01 1.276071e+00 8.724775e-01 1.612650e-02 1.659640e-02 -1.230517e-01 -1.242628e-01 -1.351132e-01 -7.468093e-02 
-6.800766e-15 1.598545e-01 3.053200e-01 3.713511e-01 4.485882e-01 4.431567e-01 5.818559e-01 4.460353e-01 -1.823233e-01 -2.478996e-01 -4.845374e-01 -6.729831e-01 -3.313032e-01 2.300592e-02 2.333852e-01 1.288805e-01 6.090202e-14 -1.288805e-01 -2.333852e-01 -2.300592e-02 3.313032e-01 6.729831e-01 4.845374e-01 2.478996e-01 1.823233e-01 -4.460353e-01 -5.818559e-01 -4.431567e-01 -4.485882e-01 -3.713511e-01 -3.053200e-01 -1.598545e-01 
5.273044e-15 2.004712e-01 3.818780e-01 4.825379e-01 5.787136e-01 6.042769e-01 7.354285e-01 8.684248e-01 8.487057e-01 5.813913e-01 5.985108e-01 -1.090325e-01 -7.744299e-01 -8.889127e-01 -4.639576e-01 -5.378762e-02 1.969567e-13 5.378762e-02 4.639576e-01 8.889127e-01 7.744299e-01 1.090325e-01 -5.985108e-01 -5.813913e-01 -8.487057e-01 -8.684248e-01 -7.354285e-01 -6.042769e-01 -5.787136e-01 -4.825379e-01 -3.818780e-01 -2.004712e-01 
1.580686e-14 2.229777e-01 4.246519e-01 5.507158e-01 6.657956e-01 7.110754e-01 8.324077e-01 9.156275e-01 1.098358e+00 1.086758e+00 1.448517e+00 1.455177e+00 1.405201e+00 5.392359e-01 -2.246324e-01 -2.556383e-01 8.101731e-14 2.556383e-01 2.246324e-01 -5.392359e-01 -1.405201e+00 -1.455177e+00 -1.448517e+00 -1.086758e+00 -1.098358e+00 -9.156275e-01 -8.324077e-01 -7.110754e-01 -6.657956e-01 -5.507158e-01 -4.246519e-01 -2.229777e-01 
1.625837e-14 2.135852e-01 4.051445e-01 5.320855e-01 6.436705e-01 6.976157e-01 8.027225e-01 8.693049e-01 1.046497e+00 1.072099e+00 1.213842e+00 1.590148e+00 2.122144e+00 2.498541e+00 2.012301e+00 9.967422e-01 -5.994671e-14 -9.967422e-01 -2.012301e+00 -2.498541e+00 -2.122144e+00 -1.590148e+00 -1.213842e+00 -1.072099e+00 -1.046497e+00 -8.693049e-01 -8.027225e-01 -6.976157e-01 -6.436705e-01 -5.320855e-01 -4.051445e-01 -2.135852e-01 
1.809854e-14 1.931251e-01 3.662677e-01 4.875222e-01 5.913912e-01 6.502953e-01 7.339786e-01 7.971039e-01 9.033319e-01 9.962314e-01 1.071855e+00 1.139473e+00 9.387318e-01 1.433529e+00 1.832474e+00 1.396213e+00 -2.568265e-14 -1.396213e+00 -1.832474e+00 -1.433529e+00 -9.387318e-01 -1.139473e+00 -1.071855e+00 -9.962314e-01 -9.033319e-01 -7.971039e-01 -7.339786e-01 -6.502953e-01 -5.913912e-01 -4.875222e-01 -3.662677e-01 -1.931251e-01 
1.033005e-14 1.613614e-01 3.064261e-01 4.128670e-01 5.025042e-01 5.593630e-01 6.257023e-01 6.825948e-01 7.517140e-01 8.404098e-01 8.724353e-01 1.017455e+00 8.590834e-01 6.693060e-01 4.341174e-01 4.743606e-01 -1.076547e-13 -4.743606e-01 -4.341174e-01 -6.693060e-01 -8.590834e-01 -1.017455e+00 -8.724353e-01 -8.404098e-01 -7.517140e-01 -6.825948e-01 -6.257023e-01 -5.593630e-01 -5.025042e-01 -4.128670e-01 -3.064261e-01 -1.613614e-01 
1.073580e-14 1.308447e-01 2.482711e-01 3.372018e-01 4.069955e-01 4.513806e-01 4.865645e-01 5.150114e-01 5.246115e-01 5.507312e-01 5.016634e-01 4.975384e-01 3.387910e-01 2.894439e-01 1.186234e-02 -4.562067e-02 -1.007871e-13 4.562067e-02 -1.186234e-02 -2.894439e-01 -3.387910e-01 -4.975384e-01 -5.016634e-01 -5.507312e-01 -5.246115e-01 -5.150114e-01 -4.865645e-01 -4.513806e-01 -4.069955e-01 -3.372018e-01 -2.482711e-01 -1.308447e-01 
2.083169e-15 1.040206e-01 1.968428e-01 2.683600e-01 3.187828e-01 3.476051e-01 3.534716e-01 3.504292e-01 3.082633e-01 2.784164e-01 1.673580e-01 1.015292e-01 -9.990226e-02 -2.317775e-01 -4.002028e-01 -3.144317e-01 -3.851950e-14 3.144317e-01 4.002028e-01 2.317775e-01 9.990226e-02 -1.015292e-01 -1.673580e-01 -2.784164e-01 -3.082633e-01 -3.504292e-01 -3.534716e-01 -3.476051e-01 -3.187828e-01 -2.683600e-01 -1.968428e-01 -1.040206e-01 
4.854834e-15 8.298002e-02 1.552153e-01 2.095332e-01 2.380345e-01 2.439499e-01 2.115268e-01 1.624035e-01 5.586777e-02 -4.575586e-02 -2.206634e-01 -3.421388e-01 -5.237132e-01 -5.764211e-01 -6.019179e-01 -4.219663e-01 7.650470e-15 4.219663e-01 6.019179e-01 5.764211e-01 5.237132e-01 3.421388e-01 2.206634e-01 4.575586e-02 -5.586777e-02 -1.624035e-01 -2.115268e-01 -2.439499e-01 -2.380345e-01 -2.095332e-01 -1.552153e-01 -8.298002e-02 
-1.611833e-15 7.083838e-02 1.311428e-01 1.750304e-01 1.900453e-01 1.804042e-01 1.222259e-01 3.992841e-02 -1.121873e-01 -2.652074e-01 -4.888691e-01 -6.500309e-01 -8.337648e-01 -8.626248e-01 -7.964742e-01 -4.989168e-01 3.588260e-14 4.989168e-01 7.964742e-01 8.626248e-01 8.337648e-01 6.500309e-01 4.888691e-01 2.652074e-01 1.121873e-01 -3.992841e-02 -1.222259e-01 -1.804042e-01 -1.900453e-01 -1.750304e-01 -1.311428e-01 -7.083838e-02 
