# vtk DataFile Version 2.0
Comment goes here
ASCII

DATASET STRUCTURED_POINTS
FIELD FieldData 1
TIME 1 1 double
0.72000000
DIMENSIONS    32   32   1

ORIGIN    0.000   0.000   0.000
SPACING   0.03125 0.03125   1.000

POINT_DATA   1024
SCALARS uX double
LOOKUP_TABLE default

3.864814e-16 2.401205e-02 3.691613e-02 3.289698e-02 -1.394508e-03 -6.105200e-02 -1.691977e-01 -3.005780e-01 -4.938174e-01 -6.810177e-01 -9.125189e-01 -1.066931e+00 -1.199511e+00 -1.166059e+00 -1.006266e+00 -6.183671e-01 3.278522e-14 6.183671e-01 1.006266e+00 1.166059e+00 1.199511e+00 1.066931e+00 9.125189e-01 6.810177e-01 4.938174e-01 3.005780e-01 1.691977e-01 6.105200e-02 1.394508e-03 -3.289698e-02 -3.691613e-02 -2.401205e-02 
-3.528111e-15 2.918060e-02 4.730193e-02 4.830602e-02 2.052795e-02 -3.125218e-02 -1.270374e-01 -2.427830e-01 -4.148057e-01 -5.792628e-01 -7.881665e-01 -9.270450e-01 -1.057555e+00 -1.042974e+00 -9.254445e-01 -5.834994e-01 3.212860e-14 5.834994e-01 9.254445e-01 1.042974e+00 1.057555e+00 9.270450e-01 7.881665e-01 5.792628e-01 4.148057e-01 2.427830e-01 1.270374e-01 3.125218e-02 -2.052795e-02 -4.830602e-02 -4.730193e-02 -2.918060e-02 
-1.611281e-15 4.186066e-02 7.204993e-02 8.284853e-02 6.700540e-02 2.800148e-02 -4.606032e-02 -1.337235e-01 -2.676339e-01 -3.875921e-01 -5.601399e-01 -6.696139e-01 -8.117878e-01 -8.304050e-01 -7.857598e-01 -5.194407e-01 3.138432e-14 5.194407e-01 7.857598e-01 8.304050e-01 8.117878e-01 6.696139e-01 5.601399e-01 3.875921e-01 2.676339e-01 1.337235e-01 4.606032e-02 -2.800148e-02 -6.700540e-02 -8.284853e-02 -7.204993e-02 -4.186066e-02 
-6.159104e-15 6.349060e-02 1.138568e-01 1.405355e-01 1.427675e-01 1.213629e-01 7.723718e-02 2.607827e-02 -5.412641e-02 -1.101917e-01 -2.177244e-01 -2.604373e-01 -3.783801e-01 -4.282050e-01 -5.015473e-01 -3.482397e-01 5.076535e-14 3.482397e-01 5.015473e-01 4.282050e-01 3.783801e-01 2.604373e-01 2.177244e-01 1.101917e-01 5.412641e-02 -2.607827e-02 -7.723718e-02 -1.213629e-01 -1.427675e-01 -1.405355e-01 -1.138568e-01 -6.349060e-02 
-5.971249e-15 9.195110e-02 1.675306e-01 2.109034e-01 2.294531e-01 2.178793e-01 1.953708e-01 1.653010e-01 1.249414e-01 1.184066e-01 5.895476e-02 7.544529e-02 -4.313516e-02 -7.789704e-02 -1.809863e-01 -7.985769e-02 6.633631e-14 7.985769e-02 1.809863e-01 7.789704e-02 4.313516e-02 -7.544529e-02 -5.895476e-02 -1.184066e-01 -1.249414e-01 -1.653010e-01 -1.953708e-01 -2.178793e-01 -2.294531e-01 -2.109034e-01 -1.675306e-01 -9.195110e-02 
-1.085862e-14 1.246701e-01 2.284343e-01 2.890309e-01 3.220977e-01 3.146693e-01 3.067583e-01 2.827666e-01 2.682277e-01 2.918878e-01 2.769748e-01 4.291839e-01 4.514776e-01 4.591100e-01 3.519492e-01 3.565877e-01 6.750294e-14 -3.565877e-01 -3.519492e-01 -4.591100e-01 -4.514776e-01 -4.291839e-01 -2.769748e-01 -2.918878e-01 -2.682277e-01 -2.827666e-01 -3.067583e-01 -3.146693e-01 -3.220977e-01 -2.890309e-01 -2.284343e-01 -1.246701e-01 
-8.734379e-15 1.594289e-01 2.924244e-01 3.691209e-01 4.131044e-01 4.000516e-01 3.985213e-01 3.573733e-01 3.582925e-01 3.883834e-01 4.062079e-01 5.774496e-01 3.962559e-01 5.438081e-01 8.618176e-01 8.035259e-01 -2.507023e-14 -8.035259e-01 -8.618176e-01 -5.438081e-01 -3.962559e-01 -5.774496e-01 -4.062079e-01 -3.883834e-01 -3.582925e-01 -3.573733e-01 -3.985213e-01 -4.000516e-01 -4.131044e-01 -3.691209e-01 -2.924244e-01 -1.594289e-01 
-8.658760e-15 1.849468e-01 3.386887e-01 4.261964e-01 4.758603e-01 4.542628e-01 4.564786e-01 3.821974e-01 3.765154e-01 2.846422e-01 1.982130e-01 5.035271e-01 9.642483e-01 1.492930e+00 1.451858e+00 7.733114e-01 -6.850682e-14 -7.733114e-01 -1.451858e+00 -1.492930e+00 -9.642483e-01 -5.035271e-01 -1.982130e-01 -2.846422e-01 -3.765154e-01 -3.821974e-01 -4.564786e-01 -4.542628e-01 -4.758603e-01 -4.261964e-01 -3.386887e-01 -1.849468e-01 
2.417505e-15 2.012932e-01 3.664820e-01 4.615518e-01 5.120559e-01 4.795355e-01 4.855469e-01 3.466663e-01 3.165912e-01 1.964167e-01 5.800672e-01 8.799098e-01 1.284715e+00 9.627849e-01 4.571325e-01 3.457316e-02 -4.788477e-14 -3.457316e-02 -4.571325e-01 -9.627849e-01 -1.284715e+00 -8.799098e-01 -5.800672e-01 -1.964167e-01 -3.165912e-01 -3.466663e-01 -4.855469e-01 -4.795355e-01 -5.120559e-01 -4.615518e-01 -3.664820e-01 -2.012932e-01 
1.208233e-14 1.915128e-01 3.423763e-01 4.306537e-01 4.703225e-01 4.407577e-01 4.715493e-01 3.199414e-01 2.307415e-01 2.000898e-01 7.305634e-01 1.160925e-01 -3.220968e-01 -8.096837e-01 -6.323401e-01 -1.864655e-01 -9.228063e-15 1.864655e-01 6.323401e-01 8.096837e-01 3.220968e-01 -1.160925e-01 -7.305634e-01 -2.000898e-01 -2.307415e-01 -3.199414e-01 -4.715493e-01 -4.407577e-01 -4.703225e-01 -4.306537e-01 -3.423763e-01 -1.915128e-01 
2.752890e-14 1.665749e-01 2.863198e-01 3.698528e-01 3.898221e-01 3.817036e-01 3.968942e-01 -7.627251e-02 -3.874141e-01 -9.699398e-02 -1.444835e-02 -4.018699e-01 -5.783383e-02 3.540445e-01 4.632303e-01 3.462964e-01 2.227775e-15 -3.462964e-01 -4.632303e-01 -3.540445e-01 5.783383e-02 4.018699e-01 1.444835e-02 9.699398e-02 3.874141e-01 7.627251e-02 -3.968942e-01 -3.817036e-01 -3.898221e-01 -3.698528e-01 -2.863198e-01 -1.665749e-01 
3.810028e-14 9.725316e-02 1.435146e-01 1.907151e-01 1.424671e-01 1.063245e-01 -1.010821e-01 -1.065764e+00 -6.906748e-01 3.340203e-02 -1.376066e-01 2.697741e-01 4.339915e-01 4.555413e-01 3.878428e-01 1.336579e-01 -7.269974e-15 -1.336579e-01 -3.878428e-01 -4.555413e-01 -4.339915e-01 -2.697741e-01 1.376066e-01 -3.340203e-02 6.906748e-01 1.065764e+00 1.010821e-01 -1.063245e-01 -1.424671e-01 -1.907151e-01 -1.435146e-01 -9.725316e-02 
4.584274e-14 4.450528e-04 -4.107990e-02 -6.344055e-03 -1.258387e-01 -6.778777e-03 -7.399763e-01 -1.314855e+00 4.006659e-01 4.953289e-01 -3.489973e-02 -5.932992e-02 -1.305145e-01 -2.294037e-01 -1.412559e-01 -1.325089e-01 -8.411169e-15 1.325089e-01 1.412559e-01 2.294037e-01 1.305145e-01 5.932992e-02 3.489973e-02 -4.953289e-01 -4.006659e-01 1.314855e+00 7.399763e-01 6.778777e-03 1.258387e-01 6.344055e-03 4.107990e-02 -4.450528e-04 
5.024540e-14 -1.608875e-01 -3.369766e-01 -3.767719e-01 -5.868079e-01 -3.622090e-01 -1.303647e+00 -2.893814e-01 1.060250e+00 7.131438e-02 -1.506152e-01 -3.601139e-01 -1.639836e-01 -1.509905e-01 -9.632962e-02 -9.996863e-02 -1.200892e-14 9.996863e-02 9.632962e-02 1.509905e-01 1.639836e-01 3.601139e-01 1.506152e-01 -7.131438e-02 -1.060250e+00 2.893814e-01 1.303647e+00 3.622090e-01 5.868079e-01 3.767719e-01 3.369766e-01 1.608875e-01 
3.721246e-14 -3.639473e-01 -6.533577e-01 -8.441944e-01 -9.090508e-01 -8.437600e-01 -7.707822e-01 7.731391e-01 2.969574e-01 -3.426981e-01 -9.999964e-02 -7.735354e-02 -1.193940e-01 -1.717427e-01 -1.551466e-01 -1.214219e-01 -1.707126e-14 1.214219e-01 1.551466e-01 1.717427e-01 1.193940e-01 7.735354e-02 9.999964e-02 3.426981e-01 -2.969574e-01 -7.731391e-01 7.707822e-01 8.437600e-01 9.090508e-01 8.441944e-01 6.533577e-01 3.639473e-01 
2.202773e-14 -5.301666e-01 -8.771960e-01 -1.148666e+00 -9.872352e-01 -1.043916e+00 2.197429e-01 5.869449e-01 -7.761277e-01 -1.918817e-01 8.836150e-02 2.290188e-01 7.229815e-02 2.427141e-02 -3.598842e-02 -4.538384e-02 -2.054371e-14 4.538384e-02 3.598842e-02 -2.427141e-02 -7.229815e-02 -2.290188e-01 -8.836150e-02 1.918817e-01 7.761277e-01 -5.869449e-01 -2.197429e-01 1.043916e+00 9.872352e-01 1.148666e+00 8.771960e-01 5.301666e-01 
-2.592212e-14 -6.192250e-01 -1.017654e+00 -1.320375e+00 -1.151708e+00 -1.252214e+00 3.301686e-01 6.532058e-02 -1.190983e+00 -6.148485e-02 2.410343e-01 4.176564e-01 1.629011e-01 6.368088e-02 -3.179730e-02 -4.396543e-02 -2.875335e-14 4.396543e-02 3.179730e-02 -6.368088e-02 -1.629011e-01 -4.176564e-01 -2.410343e-01 6.148485e-02 1.190983e+00 -6.532058e-02 -3.301686e-01 1.252214e+00 1.151708e+00 1.320375e+00 1.017654e+00 6.192250e-01 
-4.038630e-14 -5.301666e-01 -8.771960e-01 -1.148666e+00 -9.872352e-01 -1.043916e+00 2.197429e-01 5.869449e-01 -7.761277e-01 -1.918817e-01 8.836150e-02 2.290188e-01 7.229815e-02 2.427141e-02 -3.598842e-02 -4.538384e-02 -3.424171e-14 4.538384e-02 3.598842e-02 -2.427141e-02 -7.229815e-02 -2.290188e-01 -8.836150e-02 1.918817e-01 7.761277e-01 -5.869449e-01 -2.197429e-01 1.043916e+00 9.872352e-01 1.148666e+00 8.771960e-01 5.301666e-01 
-5.053953e-14 -3.639473e-01 -6.533577e-01 -8.441944e-01 -9.090508e-01 -8.437600e-01 -7.707822e-01 7.731391e-01 2.969574e-01 -3.426981e-01 -9.999964e-02 -7.735354e-02 -1.193940e-01 -1.717427e-01 -1.551466e-01 -1.214219e-01 -4.938426e-14 1.214219e-01 1.551466e-01 1.717427e-01 1.193940e-01 7.735354e-02 9.999964e-02 3.426981e-01 -2.969574e-01 -7.731391e-01 7.707822e-01 8.437600e-01 9.090508e-01 8.441944e-01 6.533577e-01 3.639473e-01 
-5.049363e-14 -1.608875e-01 -3.369766e-01 -3.767719e-01 -5.868079e-01 -3.622090e-01 -1.303647e+00 -2.893814e-01 1.060250e+00 7.131438e-02 -1.506152e-01 -3.601139e-01 -1.639836e-01 -1.509905e-01 -9.632962e-02 -9.996863e-02 -7.132816e-14 9.996863e-02 9.632962e-02 1.509905e-01 1.639836e-01 3.601139e-01 1.506152e-01 -7.131438e-02 -1.060250e+00 2.893814e-01 1.303647e+00 3.622090e-01 5.868079e-01 3.767719e-01 3.369766e-01 1.608875e-01 
-4.466987e-14 4.450528e-04 -4.107990e-02 -6.344055e-03 -1.258387e-01 -6.778777e-03 -7.399763e-01 -1.314855e+00 4.006659e-01 4.953289e-01 -3.489973e-02 -5.932992e-02 -1.305145e-01 -2.294037e-01 -1.412559e-01 -1.325089e-01 -9.576805e-14 1.325089e-01 1.412559e-01 2.294037e-01 1.305145e-01 5.932992e-02 3.489973e-02 -4.953289e-01 -4.006659e-01 1.314855e+00 7.399763e-01 6.778777e-03 1.258387e-01 6.344055e-03 4.107990e-02 -4.450528e-04 
-2.711581e-14 9.725316e-02 1.435146e-01 1.907151e-01 1.424671e-01 1.063245e-01 -1.010821e-01 -1.065764e+00 -6.906748e-01 3.340203e-02 -1.376066e-01 2.697741e-01 4.339915e-01 4.555413e-01 3.878428e-01 1.336579e-01 -1.221892e-13 -1.336579e-01 -3.878428e-01 -4.555413e-01 -4.339915e-01 -2.697741e-01 1.376066e-01 -3.340203e-02 6.906748e-01 1.065764e+00 1.010821e-01 -1.063245e-01 -1.424671e-01 -1.907151e-01 -1.435146e-01 -9.725316e-02 
-1.869752e-14 1.665749e-01 2.863198e-01 3.698528e-01 3.898221e-01 3.817036e-01 3.968942e-01 -7.627251e-02 -3.874141e-01 -9.699398e-02 -1.444835e-02 -4.018699e-01 -5.783383e-02 3.540445e-01 4.632303e-01 3.462964e-01 -2.627949e-14 -3.462964e-01 -4.632303e-01 -3.540445e-01 5.783383e-02 4.018699e-01 1.444835e-02 9.699398e-02 3.874141e-01 7.627251e-02 -3.968942e-01 -3.817036e-01 -3.898221e-01 -3.698528e-01 -2.863198e-01 -1.665749e-01 
-4.495350e-15 1.915128e-01 3.423763e-01 4.306537e-01 4.703225e-01 4.407577e-01 4.715493e-01 3.199414e-01 2.307415e-01 2.000898e-01 7.305634e-01 1.160925e-01 -3.220968e-01 -8.096837e-01 -6.323401e-01 -1.864655e-01 2.416385e-13 1.864655e-01 6.323401e-01 8.096837e-01 3.220968e-01 -1.160925e-01 -7.305634e-01 -2.000898e-01 -2.307415e-01 -3.199414e-01 -4.715493e-01 -4.407577e-01 -4.703225e-01 -4.306537e-01 -3.423763e-01 -1.915128e-01 
5.114325e-15 2.012932e-01 3.664820e-01 4.615518e-01 5.120559e-01 4.795355e-01 4.855469e-01 3.466663e-01 3.165912e-01 1.964167e-01 5.800672e-01 8.799098e-01 1.284715e+00 9.627849e-01 4.571325e-01 3.457316e-02 2.280171e-13 -3.457316e-02 -4.571325e-01 -9.627849e-01 -1.284715e+00 -8.799098e-01 -5.800672e-01 -1.964167e-01 -3.165912e-01 -3.466663e-01 -4.855469e-01 -4.795355e-01 -5.120559e-01 -4.615518e-01 -3.664820e-01 -2.012932e-01 
9.463215e-15 1.849468e-01 3.386887e-01 4.261964e-01 4.758603e-01 4.542628e-01 4.564786e-01 3.821974e-01 3.765154e-01 2.846422e-01 1.982130e-01 5.035271e-01 9.642483e-01 1.492930e+00 1.451858e+00 7.733114e-01 1.977584e-14 -7.733114e-01 -1.451858e+00 -1.492930e+00 -9.642483e-01 -5.035271e-01 -1.982130e-01 -2.846422e-01 -3.765154e-01 -3.821974e-01 -4.564786e-01 -4.542628e-01 -4.758603e-01 -4.261964e-01 -3.386887e-01 -1.849468e-01 
1.206325e-14 1.594289e-01 2.924244e-01 3.691209e-01 4.131044e-01 4.000516e-01 3.985213e-01 3.573733e-01 3.582925e-01 3.883834e-01 4.062079e-01 5.774496e-01 3.962559e-01 5.438081e-01 8.618176e-01 8.035259e-01 1.019430e-14 -8.035259e-01 -8.618176e-01 -5.438081e-01 -3.962559e-01 -5.774496e-01 -4.062079e-01 -3.883834e-01 -3.582925e-01 -3.573733e-01 -3.985213e-01 -4.000516e-01 -4.131044e-01 -3.691209e-01 -2.924244e-01 -1.594289e-01 
6.428825e-15 1.246701e-01 2.284343e-01 2.890309e-01 3.220977e-01 3.146693e-01 3.067583e-01 2.827666e-01 2.682277e-01 2.918878e-01 2.769748e-01 4.291839e-01 4.514776e-01 4.591100e-01 3.519492e-01 3.565877e-01 -6.494421e-14 -3.565877e-01 -3.519492e-01 -4.591100e-01 -4.514776e-01 -4.291839e-01 -2.769748e-01 -2.918878e-01 -2.682277e-01 -2.827666e-01 -3.067583e-01 -3.146693e-01 -3.220977e-01 -2.890309e-01 -2.284343e-01 -1.246701e-01 
6.700034e-15 9.195110e-02 1.675306e-01 2.109034e-01 2.294531e-01 2.178793e-01 1.953708e-01 1.653010e-01 1.249414e-01 1.184066e-01 5.895476e-02 7.544529e-02 -4.313516e-02 -7.789704e-02 -1.809863e-01 -7.985769e-02 -8.647608e-14 7.985769e-02 1.809863e-01 7.789704e-02 4.313516e-02 -7.544529e-02 -5.895476e-02 -1.184066e-01 -1.249414e-01 -1.653010e-01 -1.953708e-01 -2.178793e-01 -2.294531e-01 -2.109034e-01 -1.675306e-01 -9.195110e-02 
-1.998913e-16 6.349060e-02 1.138568e-01 1.405355e-01 1.427675e-01 1.213629e-01 7.723718e-02 2.607827e-02 -5.412641e-02 -1.101917e-01 -2.177244e-01 -2.604373e-01 -3.783801e-01 -4.282050e-01 -5.015473e-01 -3.482397e-01 -4.822427e-14 3.482397e-01 5.015473e-01 4.282050e-01 3.783801e-01 2.604373e-01 2.177244e-01 1.101917e-01 5.412641e-02 -2.607827e-02 -7.723718e-02 -1.213629e-01 -1.427675e-01 -1.405355e-01 -1.138568e-01 -6.349060e-02 
1.937753e-15 4.186066e-02 7.204993e-02 8.284853e-02 6.700540e-02 2.800148e-02 -4.606032e-02 -1.337235e-01 -2.676339e-01 -3.875921e-01 -5.601399e-01 -6.696139e-01 -8.117878e-01 -8.304050e-01 -7.857598e-01 -5.194407e-01 -2.788895e-15 5.194407e-01 7.857598e-01 8.304050e-01 8.117878e-01 6.696139e-01 5.601399e-01 3.875921e-01 2.676339e-01 1.337235e-01 4.606032e-02 -2.800148e-02 -6.700540e-02 -8.284853e-02 -7.204993e-02 -4.186066e-02 
-2.886756e-15 2.918060e-02 4.730193e-02 4.830602e-02 2.052795e-02 -3.125218e-02 -1.270374e-01 -2.427830e-01 -4.148057e-01 -5.792628e-01 -7.881665e-01 -9.270450e-01 -1.057555e+00 -1.042974e+00 -9.254445e-01 -5.834994e-01 3.023920e-14 5.834994e-01 9.254445e-01 1.042974e+00 1.057555e+00 9.270450e-01 7.881665e-01 5.792628e-01 4.148057e-01 2.427830e-01 1.270374e-01 3.125218e-02 -2.052795e-02 -4.830602e-02 -4.730193e-02 -2.918060e-02 
