# vtk DataFile Version 2.0
Comment goes here
ASCII

DATASET STRUCTURED_POINTS
FIELD FieldData 1
TIME 1 1 double
0.46000000
DIMENSIONS    32   32   1

ORIGIN    0.000   0.000   0.000
SPACING   0.03125 0.03125   1.000

POINT_DATA   1024
SCALARS uX double
LOOKUP_TABLE default

-1.945990e-15 -8.065342e-02 -1.654386e-01 -2.618484e-01 -3.692155e-01 -4.968795e-01 -6.408334e-01 -8.111811e-01 -9.995638e-01 -1.208823e+00 -1.410092e+00 -1.581504e+00 -1.661775e+00 -1.611369e+00 -1.338090e+00 -7.905414e-01 -4.206637e-15 7.905414e-01 1.338090e+00 1.611369e+00 1.661775e+00 1.581504e+00 1.410092e+00 1.208823e+00 9.995638e-01 8.111811e-01 6.408334e-01 4.968795e-01 3.692155e-01 2.618484e-01 1.654386e-01 8.065342e-02 
7.970949e-17 -7.906489e-02 -1.624749e-01 -2.574938e-01 -3.636915e-01 -4.893903e-01 -6.307089e-01 -7.959096e-01 -9.761647e-01 -1.173337e+00 -1.358136e+00 -1.509346e+00 -1.566576e+00 -1.488024e+00 -1.208397e+00 -6.904462e-01 -9.151228e-15 6.904462e-01 1.208397e+00 1.488024e+00 1.566576e+00 1.509346e+00 1.358136e+00 1.173337e+00 9.761647e-01 7.959096e-01 6.307089e-01 4.893903e-01 3.636915e-01 2.574938e-01 1.624749e-01 7.906489e-02 
3.455206e-16 -7.127426e-02 -1.474678e-01 -2.368251e-01 -3.376325e-01 -4.585875e-01 -5.927866e-01 -7.468286e-01 -9.080484e-01 -1.074976e+00 -1.218924e+00 -1.319240e+00 -1.325380e+00 -1.224545e+00 -9.406210e-01 -4.892650e-01 -1.363122e-15 4.892650e-01 9.406210e-01 1.224545e+00 1.325380e+00 1.319240e+00 1.218924e+00 1.074976e+00 9.080484e-01 7.468286e-01 5.927866e-01 4.585875e-01 3.376325e-01 2.368251e-01 1.474678e-01 7.127426e-02 
2.112646e-15 -6.023156e-02 -1.267613e-01 -2.087174e-01 -3.039149e-01 -4.199045e-01 -5.490169e-01 -6.937685e-01 -8.402543e-01 -9.830718e-01 -1.089275e+00 -1.142240e+00 -1.077918e+00 -8.910482e-01 -5.705925e-01 -2.383403e-01 1.314304e-15 2.383403e-01 5.705925e-01 8.910482e-01 1.077918e+00 1.142240e+00 1.089275e+00 9.830718e-01 8.402543e-01 6.937685e-01 5.490169e-01 4.199045e-01 3.039149e-01 2.087174e-01 1.267613e-01 6.023156e-02 
1.340522e-15 -4.144668e-02 -9.171309e-02 -1.627508e-01 -2.502812e-01 -3.642364e-01 -4.929790e-01 -6.404363e-01 -7.902263e-01 -9.335628e-01 -1.034942e+00 -1.046352e+00 -9.326428e-01 -7.459662e-01 -4.125763e-01 -1.521124e-01 4.874700e-16 1.521124e-01 4.125763e-01 7.459662e-01 9.326428e-01 1.046352e+00 1.034942e+00 9.335628e-01 7.902263e-01 6.404363e-01 4.929790e-01 3.642364e-01 2.502812e-01 1.627508e-01 9.171309e-02 4.144668e-02 
3.132788e-15 -1.831827e-02 -4.948295e-02 -1.090441e-01 -1.907462e-01 -3.052901e-01 -4.424420e-01 -6.032620e-01 -7.850102e-01 -9.786669e-01 -1.149009e+00 -1.211095e+00 -9.580516e-01 -4.765223e-01 -5.472003e-02 8.005202e-02 -1.979082e-14 -8.005202e-02 5.472003e-02 4.765223e-01 9.580516e-01 1.211095e+00 1.149009e+00 9.786669e-01 7.850102e-01 6.032620e-01 4.424420e-01 3.052901e-01 1.907462e-01 1.090441e-01 4.948295e-02 1.831827e-02 
1.857684e-15 1.667104e-02 1.432411e-02 -2.809881e-02 -9.998477e-02 -2.184610e-01 -3.658958e-01 -5.583910e-01 -8.072797e-01 -1.119743e+00 -1.280641e+00 -8.727406e-01 -1.665854e-01 2.792623e-01 2.063318e-01 1.423785e-01 7.736501e-15 -1.423785e-01 -2.063318e-01 -2.792623e-01 1.665854e-01 8.727406e-01 1.280641e+00 1.119743e+00 8.072797e-01 5.583910e-01 3.658958e-01 2.184610e-01 9.998477e-02 2.809881e-02 -1.432411e-02 -1.667104e-02 
2.625409e-15 5.700987e-02 8.809995e-02 6.321272e-02 2.053066e-03 -1.192117e-01 -2.837612e-01 -5.048164e-01 -8.165429e-01 -1.008503e+00 -6.821377e-01 7.867962e-02 2.620242e-01 2.159231e-02 -3.093192e-01 -2.579461e-01 7.893295e-14 2.579461e-01 3.093192e-01 -2.159231e-02 -2.620242e-01 -7.867962e-02 6.821377e-01 1.008503e+00 8.165429e-01 5.048164e-01 2.837612e-01 1.192117e-01 -2.053066e-03 -6.321272e-02 -8.809995e-02 -5.700987e-02 
2.160865e-15 1.108757e-01 1.881763e-01 1.947509e-01 1.575081e-01 4.150603e-02 -1.116594e-01 -3.366266e-01 -5.206409e-01 -3.980052e-01 1.727151e-01 2.473838e-01 -1.444990e-01 -2.534734e-03 2.550995e-01 2.027875e-01 1.619495e-14 -2.027875e-01 -2.550995e-01 2.534734e-03 1.444990e-01 -2.473838e-01 -1.727151e-01 3.980052e-01 5.206409e-01 3.366266e-01 1.116594e-01 -4.150603e-02 -1.575081e-01 -1.947509e-01 -1.881763e-01 -1.108757e-01 
3.174462e-15 1.605985e-01 2.870114e-01 3.230670e-01 3.182138e-01 1.974940e-01 6.221851e-02 8.540529e-03 -1.405084e-01 2.178838e-01 5.463032e-01 5.009276e-01 9.585450e-01 1.465285e+00 1.443057e+00 8.743342e-01 -5.513799e-14 -8.743342e-01 -1.443057e+00 -1.465285e+00 -9.585450e-01 -5.009276e-01 -5.463032e-01 -2.178838e-01 1.405084e-01 -8.540529e-03 -6.221851e-02 -1.974940e-01 -3.182138e-01 -3.230670e-01 -2.870114e-01 -1.605985e-01 
5.759119e-15 2.059434e-01 3.829438e-01 4.767124e-01 5.316564e-01 4.606529e-01 4.343237e-01 4.713952e-01 -1.032431e-03 6.223710e-01 9.421340e-01 1.183670e+00 1.608408e+00 1.406502e+00 1.041829e+00 5.308842e-01 -2.390129e-14 -5.308842e-01 -1.041829e+00 -1.406502e+00 -1.608408e+00 -1.183670e+00 -9.421340e-01 -6.223710e-01 1.032431e-03 -4.713952e-01 -4.343237e-01 -4.606529e-01 -5.316564e-01 -4.767124e-01 -3.829438e-01 -2.059434e-01 
1.038636e-14 2.159275e-01 4.271775e-01 5.702724e-01 7.226583e-01 6.097072e-01 9.385754e-01 2.813785e-01 3.134521e-01 1.194115e+00 1.171243e+00 1.062947e+00 6.648753e-01 2.385356e-01 8.505695e-02 8.580018e-03 3.148117e-15 -8.580018e-03 -8.505695e-02 -2.385356e-01 -6.648753e-01 -1.062947e+00 -1.171243e+00 -1.194115e+00 -3.134521e-01 -2.813785e-01 -9.385754e-01 -6.097072e-01 -7.226583e-01 -5.702724e-01 -4.271775e-01 -2.159275e-01 
1.547155e-14 1.789180e-01 3.762111e-01 5.744264e-01 7.657012e-01 8.485755e-01 1.106105e+00 -6.575130e-02 1.133912e+00 1.564434e+00 9.253625e-01 7.410144e-01 3.199396e-01 1.488739e-01 -8.019603e-03 -4.130460e-02 -3.716095e-15 4.130460e-02 8.019603e-03 -1.488739e-01 -3.199396e-01 -7.410144e-01 -9.253625e-01 -1.564434e+00 -1.133912e+00 6.575130e-02 -1.106105e+00 -8.485755e-01 -7.657012e-01 -5.744264e-01 -3.762111e-01 -1.789180e-01 
2.784264e-14 7.570098e-02 1.901436e-01 4.353968e-01 6.737694e-01 1.091431e+00 4.806253e-01 4.368804e-01 1.702754e+00 1.403316e+00 9.409562e-01 8.557200e-01 5.678183e-01 3.640833e-01 1.565331e-01 3.596140e-02 -3.349091e-15 -3.596140e-02 -1.565331e-01 -3.640833e-01 -5.678183e-01 -8.557200e-01 -9.409562e-01 -1.403316e+00 -1.702754e+00 -4.368804e-01 -4.806253e-01 -1.091431e+00 -6.737694e-01 -4.353968e-01 -1.901436e-01 -7.570098e-02 
2.366286e-14 -9.670128e-02 -1.256453e-01 1.597954e-02 2.024700e-01 4.215471e-01 -8.283470e-02 1.323373e+00 1.683953e+00 1.252550e+00 1.299321e+00 1.094903e+00 8.155914e-01 5.088271e-01 2.662751e-01 9.446099e-02 -4.175183e-15 -9.446099e-02 -2.662751e-01 -5.088271e-01 -8.155914e-01 -1.094903e+00 -1.299321e+00 -1.252550e+00 -1.683953e+00 -1.323373e+00 8.283470e-02 -4.215471e-01 -2.024700e-01 -1.597954e-02 1.256453e-01 9.670128e-02 
4.686658e-14 -3.516221e-01 -6.537132e-01 -8.166936e-01 -8.583421e-01 -5.648354e-01 4.245097e-01 1.870957e+00 1.542275e+00 1.328264e+00 1.620056e+00 1.364407e+00 1.149283e+00 7.660987e-01 4.583822e-01 1.878049e-01 -6.455429e-15 -1.878049e-01 -4.583822e-01 -7.660987e-01 -1.149283e+00 -1.364407e+00 -1.620056e+00 -1.328264e+00 -1.542275e+00 -1.870957e+00 -4.245097e-01 5.648354e-01 8.583421e-01 8.166936e-01 6.537132e-01 3.516221e-01 
-1.432688e-14 -5.253182e-01 -1.028220e+00 -1.406541e+00 -1.569659e+00 -9.651135e-01 8.522872e-01 1.917711e+00 1.418289e+00 1.382687e+00 1.800038e+00 1.524228e+00 1.312113e+00 8.705305e-01 5.214537e-01 2.148833e-01 -4.031151e-15 -2.148833e-01 -5.214537e-01 -8.705305e-01 -1.312113e+00 -1.524228e+00 -1.800038e+00 -1.382687e+00 -1.418289e+00 -1.917711e+00 -8.522872e-01 9.651135e-01 1.569659e+00 1.406541e+00 1.028220e+00 5.253182e-01 
-4.214198e-14 -3.516221e-01 -6.537132e-01 -8.166936e-01 -8.583421e-01 -5.648354e-01 4.245097e-01 1.870957e+00 1.542275e+00 1.328264e+00 1.620056e+00 1.364407e+00 1.149283e+00 7.660987e-01 4.583822e-01 1.878049e-01 -4.297212e-15 -1.878049e-01 -4.583822e-01 -7.660987e-01 -1.149283e+00 -1.364407e+00 -1.620056e+00 -1.328264e+00 -1.542275e+00 -1.870957e+00 -4.245097e-01 5.648354e-01 8.583421e-01 8.166936e-01 6.537132e-01 3.516221e-01 
-1.513067e-14 -9.670128e-02 -1.256453e-01 1.597954e-02 2.024700e-01 4.215471e-01 -8.283470e-02 1.323373e+00 1.683953e+00 1.252550e+00 1.299321e+00 1.094903e+00 8.155914e-01 5.088271e-01 2.662751e-01 9.446099e-02 4.902483e-15 -9.446099e-02 -2.662751e-01 -5.088271e-01 -8.155914e-01 -1.094903e+00 -1.299321e+00 -1.252550e+00 -1.683953e+00 -1.323373e+00 8.283470e-02 -4.215471e-01 -2.024700e-01 -1.597954e-02 1.256453e-01 9.670128e-02 
-2.036962e-14 7.570098e-02 1.901436e-01 4.353968e-01 6.737694e-01 1.091431e+00 4.806253e-01 4.368804e-01 1.702754e+00 1.403316e+00 9.409562e-01 8.557200e-01 5.678183e-01 3.640833e-01 1.565331e-01 3.596140e-02 7.841986e-15 -3.596140e-02 -1.565331e-01 -3.640833e-01 -5.678183e-01 -8.557200e-01 -9.409562e-01 -1.403316e+00 -1.702754e+00 -4.368804e-01 -4.806253e-01 -1.091431e+00 -6.737694e-01 -4.353968e-01 -1.901436e-01 -7.570098e-02 
-2.379134e-15 1.789180e-01 3.762111e-01 5.744264e-01 7.657012e-01 8.485755e-01 1.106105e+00 -6.575130e-02 1.133912e+00 1.564434e+00 9.253625e-01 7.410144e-01 3.199396e-01 1.488739e-01 -8.019603e-03 -4.130460e-02 2.138980e-14 4.130460e-02 8.019603e-03 -1.488739e-01 -3.199396e-01 -7.410144e-01 -9.253625e-01 -1.564434e+00 -1.133912e+00 6.575130e-02 -1.106105e+00 -8.485755e-01 -7.657012e-01 -5.744264e-01 -3.762111e-01 -1.789180e-01 
-4.409959e-15 2.159275e-01 4.271775e-01 5.702724e-01 7.226583e-01 6.097072e-01 9.385754e-01 2.813785e-01 3.134521e-01 1.194115e+00 1.171243e+00 1.062947e+00 6.648753e-01 2.385356e-01 8.505695e-02 8.580018e-03 1.732351e-14 -8.580018e-03 -8.505695e-02 -2.385356e-01 -6.648753e-01 -1.062947e+00 -1.171243e+00 -1.194115e+00 -3.134521e-01 -2.813785e-01 -9.385754e-01 -6.097072e-01 -7.226583e-01 -5.702724e-01 -4.271775e-01 -2.159275e-01 
3.418020e-15 2.059434e-01 3.829438e-01 4.767124e-01 5.316564e-01 4.606529e-01 4.343237e-01 4.713952e-01 -1.032431e-03 6.223710e-01 9.421340e-01 1.183670e+00 1.608408e+00 1.406502e+00 1.041829e+00 5.308842e-01 1.940316e-14 -5.308842e-01 -1.041829e+00 -1.406502e+00 -1.608408e+00 -1.183670e+00 -9.421340e-01 -6.223710e-01 1.032431e-03 -4.713952e-01 -4.343237e-01 -4.606529e-01 -5.316564e-01 -4.767124e-01 -3.829438e-01 -2.059434e-01 
-1.505417e-15 1.605985e-01 2.870114e-01 3.230670e-01 3.182138e-01 1.974940e-01 6.221851e-02 8.540529e-03 -1.405084e-01 2.178838e-01 5.463032e-01 5.009276e-01 9.585450e-01 1.465285e+00 1.443057e+00 8.743342e-01 -1.058570e-15 -8.743342e-01 -1.443057e+00 -1.465285e+00 -9.585450e-01 -5.009276e-01 -5.463032e-01 -2.178838e-01 1.405084e-01 -8.540529e-03 -6.221851e-02 -1.974940e-01 -3.182138e-01 -3.230670e-01 -2.870114e-01 -1.605985e-01 
5.179738e-16 1.108757e-01 1.881763e-01 1.947509e-01 1.575081e-01 4.150603e-02 -1.116594e-01 -3.366266e-01 -5.206409e-01 -3.980052e-01 1.727151e-01 2.473838e-01 -1.444990e-01 -2.534734e-03 2.550995e-01 2.027875e-01 -9.075606e-14 -2.027875e-01 -2.550995e-01 2.534734e-03 1.444990e-01 -2.473838e-01 -1.727151e-01 3.980052e-01 5.206409e-01 3.366266e-01 1.116594e-01 -4.150603e-02 -1.575081e-01 -1.947509e-01 -1.881763e-01 -1.108757e-01 
-4.791658e-15 5.700987e-02 8.809995e-02 6.321272e-02 2.053066e-03 -1.192117e-01 -2.837612e-01 -5.048164e-01 -8.165429e-01 -1.008503e+00 -6.821377e-01 7.867962e-02 2.620242e-01 2.159231e-02 -3.093192e-01 -2.579461e-01 -9.504955e-14 2.579461e-01 3.093192e-01 -2.159231e-02 -2.620242e-01 -7.867962e-02 6.821377e-01 1.008503e+00 8.165429e-01 5.048164e-01 2.837612e-01 1.192117e-01 -2.053066e-03 -6.321272e-02 -8.809995e-02 -5.700987e-02 
-3.736224e-15 1.667104e-02 1.432411e-02 -2.809881e-02 -9.998477e-02 -2.184610e-01 -3.658958e-01 -5.583910e-01 -8.072797e-01 -1.119743e+00 -1.280641e+00 -8.727406e-01 -1.665854e-01 2.792623e-01 2.063318e-01 1.423785e-01 -1.538656e-14 -1.423785e-01 -2.063318e-01 -2.792623e-01 1.665854e-01 8.727406e-01 1.280641e+00 1.119743e+00 8.072797e-01 5.583910e-01 3.658958e-01 2.184610e-01 9.998477e-02 2.809881e-02 -1.432411e-02 -1.667104e-02 
-7.048500e-15 -1.831827e-02 -4.948295e-02 -1.090441e-01 -1.907462e-01 -3.052901e-01 -4.424420e-01 -6.032620e-01 -7.850102e-01 -9.786669e-01 -1.149009e+00 -1.211095e+00 -9.580516e-01 -4.765223e-01 -5.472003e-02 8.005202e-02 4.303711e-14 -8.005202e-02 5.472003e-02 4.765223e-01 9.580516e-01 1.211095e+00 1.149009e+00 9.786669e-01 7.850102e-01 6.032620e-01 4.424420e-01 3.052901e-01 1.907462e-01 1.090441e-01 4.948295e-02 1.831827e-02 
-5.419962e-15 -4.144668e-02 -9.171309e-02 -1.627508e-01 -2.502812e-01 -3.642364e-01 -4.929790e-01 -6.404363e-01 -7.902263e-01 -9.335628e-01 -1.034942e+00 -1.046352e+00 -9.326428e-01 -7.459662e-01 -4.125763e-01 -1.521124e-01 5.587828e-14 1.521124e-01 4.125763e-01 7.459662e-01 9.326428e-01 1.046352e+00 1.034942e+00 9.335628e-01 7.902263e-01 6.404363e-01 4.929790e-01 3.642364e-01 2.502812e-01 1.627508e-01 9.171309e-02 4.144668e-02 
-6.311885e-15 -6.023156e-02 -1.267613e-01 -2.087174e-01 -3.039149e-01 -4.199045e-01 -5.490169e-01 -6.937685e-01 -8.402543e-01 -9.830718e-01 -1.089275e+00 -1.142240e+00 -1.077918e+00 -8.910482e-01 -5.705925e-01 -2.383403e-01 3.952834e-14 2.383403e-01 5.705925e-01 8.910482e-01 1.077918e+00 1.142240e+00 1.089275e+00 9.830718e-01 8.402543e-01 6.937685e-01 5.490169e-01 4.199045e-01 3.039149e-01 2.087174e-01 1.267613e-01 6.023156e-02 
-4.414163e-15 -7.127426e-02 -1.474678e-01 -2.368251e-01 -3.376325e-01 -4.585875e-01 -5.927866e-01 -7.468286e-01 -9.080484e-01 -1.074976e+00 -1.218924e+00 -1.319240e+00 -1.325380e+00 -1.224545e+00 -9.406210e-01 -4.892650e-01 2.872455e-14 4.892650e-01 9.406210e-01 1.224545e+00 1.325380e+00 1.319240e+00 1.218924e+00 1.074976e+00 9.080484e-01 7.468286e-01 5.927866e-01 4.585875e-01 3.376325e-01 2.368251e-01 1.474678e-01 7.127426e-02 
-3.322115e-15 -7.906489e-02 -1.624749e-01 -2.574938e-01 -3.636915e-01 -4.893903e-01 -6.307089e-01 -7.959096e-01 -9.761647e-01 -1.173337e+00 -1.358136e+00 -1.509346e+00 -1.566576e+00 -1.488024e+00 -1.208397e+00 -6.904462e-01 9.483020e-15 6.904462e-01 1.208397e+00 1.488024e+00 1.566576e+00 1.509346e+00 1.358136e+00 1.173337e+00 9.761647e-01 7.959096e-01 6.307089e-01 4.893903e-01 3.636915e-01 2.574938e-01 1.624749e-01 7.906489e-02 
