# vtk DataFile Version 2.0
Comment goes here
ASCII

DATASET STRUCTURED_POINTS
FIELD FieldData 1
TIME 1 1 double
0.20000000
DIMENSIONS    32   32   1

ORIGIN    0.000   0.000   0.000
SPACING   0.03125 0.03125   1.000

POINT_DATA   1024
SCALARS uX double
LOOKUP_TABLE default

2.746905e-15 1.697267e-01 3.391585e-01 5.090426e-01 6.750138e-01 8.385432e-01 9.832613e-01 1.114680e+00 1.190216e+00 1.227301e+00 1.149264e+00 9.814052e-01 6.633349e-01 2.501435e-01 -1.231979e-01 -3.768288e-01 -3.591290e-14 3.768288e-01 1.231979e-01 -2.501435e-01 -6.633349e-01 -9.814052e-01 -1.149264e+00 -1.227301e+00 -1.190216e+00 -1.114680e+00 -9.832613e-01 -8.385432e-01 -6.750138e-01 -5.090426e-01 -3.391585e-01 -1.697267e-01 
2.067679e-15 1.712994e-01 3.425216e-01 5.153541e-01 6.853497e-01 8.552089e-01 1.009251e+00 1.152926e+00 1.246476e+00 1.303214e+00 1.253338e+00 1.097778e+00 8.005704e-01 3.420136e-01 -8.768519e-02 -3.536029e-01 -2.770425e-14 3.536029e-01 8.768519e-02 -3.420136e-01 -8.005704e-01 -1.097778e+00 -1.253338e+00 -1.303214e+00 -1.246476e+00 -1.152926e+00 -1.009251e+00 -8.552089e-01 -6.853497e-01 -5.153541e-01 -3.425216e-01 -1.712994e-01 
2.824495e-15 1.698648e-01 3.408983e-01 5.141257e-01 6.888512e-01 8.651306e-01 1.033348e+00 1.195052e+00 1.312566e+00 1.405344e+00 1.379770e+00 1.263096e+00 9.078364e-01 4.234869e-01 -1.573501e-01 -4.774742e-01 -9.301752e-15 4.774742e-01 1.573501e-01 -4.234869e-01 -9.078364e-01 -1.263096e+00 -1.379770e+00 -1.405344e+00 -1.312566e+00 -1.195052e+00 -1.033348e+00 -8.651306e-01 -6.888512e-01 -5.141257e-01 -3.408983e-01 -1.698648e-01 
3.096169e-15 1.699736e-01 3.423644e-01 5.197672e-01 7.039167e-01 8.961771e-01 1.092430e+00 1.293647e+00 1.467583e+00 1.648261e+00 1.722802e+00 1.743962e+00 1.489166e+00 8.299659e-01 1.676453e-01 1.401906e-01 -4.280046e-14 -1.401906e-01 -1.676453e-01 -8.299659e-01 -1.489166e+00 -1.743962e+00 -1.722802e+00 -1.648261e+00 -1.467583e+00 -1.293647e+00 -1.092430e+00 -8.961771e-01 -7.039167e-01 -5.197672e-01 -3.423644e-01 -1.699736e-01 
4.140246e-15 1.655683e-01 3.356386e-01 5.122420e-01 7.043803e-01 9.083680e-01 1.137082e+00 1.375740e+00 1.623634e+00 1.909966e+00 2.131889e+00 2.218450e+00 1.942498e+00 1.810757e+00 2.371864e+00 2.037334e+00 -4.233696e-14 -2.037334e+00 -2.371864e+00 -1.810757e+00 -1.942498e+00 -2.218450e+00 -2.131889e+00 -1.909966e+00 -1.623634e+00 -1.375740e+00 -1.137082e+00 -9.083680e-01 -7.043803e-01 -5.122420e-01 -3.356386e-01 -1.655683e-01 
2.616449e-15 1.587796e-01 3.226510e-01 4.957338e-01 6.891801e-01 9.013045e-01 1.154872e+00 1.428137e+00 1.783806e+00 2.226503e+00 2.573300e+00 2.737591e+00 3.145987e+00 3.605370e+00 3.309128e+00 1.764453e+00 3.050778e-15 -1.764453e+00 -3.309128e+00 -3.605370e+00 -3.145987e+00 -2.737591e+00 -2.573300e+00 -2.226503e+00 -1.783806e+00 -1.428137e+00 -1.154872e+00 -9.013045e-01 -6.891801e-01 -4.957338e-01 -3.226510e-01 -1.587796e-01 
3.216902e-15 1.453253e-01 2.955663e-01 4.546865e-01 6.382039e-01 8.412298e-01 1.111209e+00 1.405780e+00 1.996657e+00 2.503440e+00 2.774791e+00 2.845422e+00 2.495994e+00 1.566591e+00 2.878372e-01 -1.885088e-01 -9.863549e-16 1.885088e-01 -2.878372e-01 -1.566591e+00 -2.495994e+00 -2.845422e+00 -2.774791e+00 -2.503440e+00 -1.996657e+00 -1.405780e+00 -1.111209e+00 -8.412298e-01 -6.382039e-01 -4.546865e-01 -2.955663e-01 -1.453253e-01 
1.710893e-15 1.268863e-01 2.540641e-01 3.870802e-01 5.345366e-01 7.055518e-01 9.492659e-01 1.278796e+00 2.074299e+00 2.130361e+00 1.459845e+00 2.877539e-01 -1.232654e+00 -1.967854e+00 -1.399770e+00 -4.075994e-01 -3.039450e-14 4.075994e-01 1.399770e+00 1.967854e+00 1.232654e+00 -2.877539e-01 -1.459845e+00 -2.130361e+00 -2.074299e+00 -1.278796e+00 -9.492659e-01 -7.055518e-01 -5.345366e-01 -3.870802e-01 -2.540641e-01 -1.268863e-01 
1.527717e-15 1.026685e-01 1.959048e-01 2.859628e-01 3.705107e-01 4.986130e-01 6.874937e-01 1.132983e+00 1.658809e+00 8.129467e-01 -7.217684e-01 -2.232796e+00 -2.278653e+00 -1.165012e+00 -3.672792e-01 2.583253e-03 -1.938859e-14 -2.583253e-03 3.672792e-01 1.165012e+00 2.278653e+00 2.232796e+00 7.217684e-01 -8.129467e-01 -1.658809e+00 -1.132983e+00 -6.874937e-01 -4.986130e-01 -3.705107e-01 -2.859628e-01 -1.959048e-01 -1.026685e-01 
-1.357509e-15 7.957972e-02 1.347110e-01 1.688844e-01 1.730447e-01 2.540290e-01 3.434612e-01 8.330896e-01 3.181810e-01 -9.875939e-01 -2.095460e+00 -2.302567e+00 -1.409037e+00 -2.359089e-01 -3.932597e-02 -1.148736e-02 1.897193e-15 1.148736e-02 3.932597e-02 2.359089e-01 1.409037e+00 2.302567e+00 2.095460e+00 9.875939e-01 -3.181810e-01 -8.330896e-01 -3.434612e-01 -2.540290e-01 -1.730447e-01 -1.688844e-01 -1.347110e-01 -7.957972e-02 
-3.305346e-15 5.950983e-02 7.529497e-02 3.479819e-02 -4.774512e-02 -7.327021e-02 -1.051963e-01 -1.823972e-02 -1.350582e+00 -2.172835e+00 -2.484946e+00 -2.100703e+00 -1.176112e+00 -6.436842e-01 -4.290045e-01 -2.168647e-01 1.770882e-14 2.168647e-01 4.290045e-01 6.436842e-01 1.176112e+00 2.100703e+00 2.484946e+00 2.172835e+00 1.350582e+00 1.823972e-02 1.051963e-01 7.327021e-02 4.774512e-02 -3.479819e-02 -7.529497e-02 -5.950983e-02 
-3.525554e-15 4.101099e-02 2.586251e-02 -9.971832e-02 -2.453621e-01 -4.480005e-01 -5.381031e-01 -1.058773e+00 -1.934495e+00 -2.103325e+00 -2.234418e+00 -1.867135e+00 -1.259336e+00 -1.133304e+00 -8.129603e-01 -4.457521e-01 1.300592e-14 4.457521e-01 8.129603e-01 1.133304e+00 1.259336e+00 1.867135e+00 2.234418e+00 2.103325e+00 1.934495e+00 1.058773e+00 5.381031e-01 4.480005e-01 2.453621e-01 9.971832e-02 -2.586251e-02 -4.101099e-02 
-5.172427e-15 3.359730e-03 -5.535211e-02 -2.451370e-01 -4.466694e-01 -7.905951e-01 -9.897221e-01 -1.724227e+00 -2.018152e+00 -1.968879e+00 -2.008986e+00 -1.543484e+00 -1.353374e+00 -1.298897e+00 -9.748598e-01 -5.578311e-01 9.574872e-15 5.578311e-01 9.748598e-01 1.298897e+00 1.353374e+00 1.543484e+00 2.008986e+00 1.968879e+00 2.018152e+00 1.724227e+00 9.897221e-01 7.905951e-01 4.466694e-01 2.451370e-01 5.535211e-02 -3.359730e-03 
1.421043e-15 -1.045246e-01 -2.562913e-01 -4.959769e-01 -7.741945e-01 -1.209558e+00 -1.563756e+00 -2.179638e+00 -2.496299e+00 -2.321084e+00 -1.772916e+00 -1.245643e+00 -1.143924e+00 -1.070834e+00 -8.235909e-01 -4.866046e-01 7.137528e-15 4.866046e-01 8.235909e-01 1.070834e+00 1.143924e+00 1.245643e+00 1.772916e+00 2.321084e+00 2.496299e+00 2.179638e+00 1.563756e+00 1.209558e+00 7.741945e-01 4.959769e-01 2.562913e-01 1.045246e-01 
5.000019e-15 -3.233897e-01 -6.499265e-01 -9.577735e-01 -1.286023e+00 -1.651551e+00 -2.044065e+00 -2.445912e+00 -2.590158e+00 -2.208169e+00 -1.272343e+00 -8.003039e-01 -7.533097e-01 -7.074572e-01 -5.650431e-01 -3.405915e-01 9.502237e-16 3.405915e-01 5.650431e-01 7.074572e-01 7.533097e-01 8.003039e-01 1.272343e+00 2.208169e+00 2.590158e+00 2.445912e+00 2.044065e+00 1.651551e+00 1.286023e+00 9.577735e-01 6.499265e-01 3.233897e-01 
1.303569e-14 -6.430051e-01 -1.165883e+00 -1.491124e+00 -1.766471e+00 -1.954712e+00 -2.447420e+00 -2.748185e+00 -2.459551e+00 -1.896335e+00 -9.064911e-01 -4.517409e-01 -3.907725e-01 -3.694482e-01 -3.134405e-01 -1.995973e-01 4.797147e-15 1.995973e-01 3.134405e-01 3.694482e-01 3.907725e-01 4.517409e-01 9.064911e-01 1.896335e+00 2.459551e+00 2.748185e+00 2.447420e+00 1.954712e+00 1.766471e+00 1.491124e+00 1.165883e+00 6.430051e-01 
6.111937e-15 -8.155399e-01 -1.415207e+00 -1.706852e+00 -1.918032e+00 -2.034393e+00 -2.643560e+00 -2.957033e+00 -2.455764e+00 -1.790929e+00 -7.460769e-01 -2.807672e-01 -2.330932e-01 -2.217125e-01 -2.091315e-01 -1.404648e-01 3.346837e-15 1.404648e-01 2.091315e-01 2.217125e-01 2.330932e-01 2.807672e-01 7.460769e-01 1.790929e+00 2.455764e+00 2.957033e+00 2.643560e+00 2.034393e+00 1.918032e+00 1.706852e+00 1.415207e+00 8.155399e-01 
-2.568420e-15 -6.430051e-01 -1.165883e+00 -1.491124e+00 -1.766471e+00 -1.954712e+00 -2.447420e+00 -2.748185e+00 -2.459551e+00 -1.896335e+00 -9.064911e-01 -4.517409e-01 -3.907725e-01 -3.694482e-01 -3.134405e-01 -1.995973e-01 1.182161e-14 1.995973e-01 3.134405e-01 3.694482e-01 3.907725e-01 4.517409e-01 9.064911e-01 1.896335e+00 2.459551e+00 2.748185e+00 2.447420e+00 1.954712e+00 1.766471e+00 1.491124e+00 1.165883e+00 6.430051e-01 
1.604375e-15 -3.233897e-01 -6.499265e-01 -9.577735e-01 -1.286023e+00 -1.651551e+00 -2.044065e+00 -2.445912e+00 -2.590158e+00 -2.208169e+00 -1.272343e+00 -8.003039e-01 -7.533097e-01 -7.074572e-01 -5.650431e-01 -3.405915e-01 8.003112e-15 3.405915e-01 5.650431e-01 7.074572e-01 7.533097e-01 8.003039e-01 1.272343e+00 2.208169e+00 2.590158e+00 2.445912e+00 2.044065e+00 1.651551e+00 1.286023e+00 9.577735e-01 6.499265e-01 3.233897e-01 
-1.654114e-15 -1.045246e-01 -2.562913e-01 -4.959769e-01 -7.741945e-01 -1.209558e+00 -1.563756e+00 -2.179638e+00 -2.496299e+00 -2.321084e+00 -1.772916e+00 -1.245643e+00 -1.143924e+00 -1.070834e+00 -8.235909e-01 -4.866046e-01 1.656494e-14 4.866046e-01 8.235909e-01 1.070834e+00 1.143924e+00 1.245643e+00 1.772916e+00 2.321084e+00 2.496299e+00 2.179638e+00 1.563756e+00 1.209558e+00 7.741945e-01 4.959769e-01 2.562913e-01 1.045246e-01 
1.979478e-15 3.359730e-03 -5.535211e-02 -2.451370e-01 -4.466694e-01 -7.905951e-01 -9.897221e-01 -1.724227e+00 -2.018152e+00 -1.968879e+00 -2.008986e+00 -1.543484e+00 -1.353374e+00 -1.298897e+00 -9.748598e-01 -5.578311e-01 1.728088e-14 5.578311e-01 9.748598e-01 1.298897e+00 1.353374e+00 1.543484e+00 2.008986e+00 1.968879e+00 2.018152e+00 1.724227e+00 9.897221e-01 7.905951e-01 4.466694e-01 2.451370e-01 5.535211e-02 -3.359730e-03 
2.061247e-15 4.101099e-02 2.586251e-02 -9.971832e-02 -2.453621e-01 -4.480005e-01 -5.381031e-01 -1.058773e+00 -1.934495e+00 -2.103325e+00 -2.234418e+00 -1.867135e+00 -1.259336e+00 -1.133304e+00 -8.129603e-01 -4.457521e-01 2.821829e-14 4.457521e-01 8.129603e-01 1.133304e+00 1.259336e+00 1.867135e+00 2.234418e+00 2.103325e+00 1.934495e+00 1.058773e+00 5.381031e-01 4.480005e-01 2.453621e-01 9.971832e-02 -2.586251e-02 -4.101099e-02 
-3.760606e-17 5.950983e-02 7.529497e-02 3.479819e-02 -4.774512e-02 -7.327021e-02 -1.051963e-01 -1.823972e-02 -1.350582e+00 -2.172835e+00 -2.484946e+00 -2.100703e+00 -1.176112e+00 -6.436842e-01 -4.290045e-01 -2.168647e-01 3.342480e-14 2.168647e-01 4.290045e-01 6.436842e-01 1.176112e+00 2.100703e+00 2.484946e+00 2.172835e+00 1.350582e+00 1.823972e-02 1.051963e-01 7.327021e-02 4.774512e-02 -3.479819e-02 -7.529497e-02 -5.950983e-02 
8.582464e-16 7.957972e-02 1.347110e-01 1.688844e-01 1.730447e-01 2.540290e-01 3.434612e-01 8.330896e-01 3.181810e-01 -9.875939e-01 -2.095460e+00 -2.302567e+00 -1.409037e+00 -2.359089e-01 -3.932597e-02 -1.148736e-02 4.046063e-14 1.148736e-02 3.932597e-02 2.359089e-01 1.409037e+00 2.302567e+00 2.095460e+00 9.875939e-01 -3.181810e-01 -8.330896e-01 -3.434612e-01 -2.540290e-01 -1.730447e-01 -1.688844e-01 -1.347110e-01 -7.957972e-02 
-1.838130e-15 1.026685e-01 1.959048e-01 2.859628e-01 3.705107e-01 4.986130e-01 6.874937e-01 1.132983e+00 1.658809e+00 8.129467e-01 -7.217684e-01 -2.232796e+00 -2.278653e+00 -1.165012e+00 -3.672792e-01 2.583253e-03 -2.632537e-14 -2.583253e-03 3.672792e-01 1.165012e+00 2.278653e+00 2.232796e+00 7.217684e-01 -8.129467e-01 -1.658809e+00 -1.132983e+00 -6.874937e-01 -4.986130e-01 -3.705107e-01 -2.859628e-01 -1.959048e-01 -1.026685e-01 
-3.472114e-16 1.268863e-01 2.540641e-01 3.870802e-01 5.345366e-01 7.055518e-01 9.492659e-01 1.278796e+00 2.074299e+00 2.130361e+00 1.459845e+00 2.877539e-01 -1.232654e+00 -1.967854e+00 -1.399770e+00 -4.075994e-01 -1.232359e-13 4.075994e-01 1.399770e+00 1.967854e+00 1.232654e+00 -2.877539e-01 -1.459845e+00 -2.130361e+00 -2.074299e+00 -1.278796e+00 -9.492659e-01 -7.055518e-01 -5.345366e-01 -3.870802e-01 -2.540641e-01 -1.268863e-01 
-9.616783e-16 1.453253e-01 2.955663e-01 4.546865e-01 6.382039e-01 8.412298e-01 1.111209e+00 1.405780e+00 1.996657e+00 2.503440e+00 2.774791e+00 2.845422e+00 2.495994e+00 1.566591e+00 2.878372e-01 -1.885088e-01 -5.059113e-14 1.885088e-01 -2.878372e-01 -1.566591e+00 -2.495994e+00 -2.845422e+00 -2.774791e+00 -2.503440e+00 -1.996657e+00 -1.405780e+00 -1.111209e+00 -8.412298e-01 -6.382039e-01 -4.546865e-01 -2.955663e-01 -1.453253e-01 
-6.414601e-16 1.587796e-01 3.226510e-01 4.957338e-01 6.891801e-01 9.013045e-01 1.154872e+00 1.428137e+00 1.783806e+00 2.226503e+00 2.573300e+00 2.737591e+00 3.145987e+00 3.605370e+00 3.309128e+00 1.764453e+00 1.160666e-13 -1.764453e+00 -3.309128e+00 -3.605370e+00 -3.145987e+00 -2.737591e+00 -2.573300e+00 -2.226503e+00 -1.783806e+00 -1.428137e+00 -1.154872e+00 -9.013045e-01 -6.891801e-01 -4.957338e-01 -3.226510e-01 -1.587796e-01 
-6.628467e-16 1.655683e-01 3.356386e-01 5.122420e-01 7.043803e-01 9.083680e-01 1.137082e+00 1.375740e+00 1.623634e+00 1.909966e+00 2.131889e+00 2.218450e+00 1.942498e+00 1.810757e+00 2.371864e+00 2.037334e+00 1.190264e-13 -2.037334e+00 -2.371864e+00 -1.810757e+00 -1.942498e+00 -2.218450e+00 -2.131889e+00 -1.909966e+00 -1.623634e+00 -1.375740e+00 -1.137082e+00 -9.083680e-01 -7.043803e-01 -5.122420e-01 -3.356386e-01 -1.655683e-01 
-7.305338e-17 1.699736e-01 3.423644e-01 5.197672e-01 7.039167e-01 8.961771e-01 1.092430e+00 1.293647e+00 1.467583e+00 1.648261e+00 1.722802e+00 1.743962e+00 1.489166e+00 8.299659e-01 1.676453e-01 1.401906e-01 5.821219e-14 -1.401906e-01 -1.676453e-01 -8.299659e-01 -1.489166e+00 -1.743962e+00 -1.722802e+00 -1.648261e+00 -1.467583e+00 -1.293647e+00 -1.092430e+00 -8.961771e-01 -7.039167e-01 -5.197672e-01 -3.423644e-01 -1.699736e-01 
1.718416e-15 1.698648e-01 3.408983e-01 5.141257e-01 6.888512e-01 8.651306e-01 1.033348e+00 1.195052e+00 1.312566e+00 1.405344e+00 1.379770e+00 1.263096e+00 9.078364e-01 4.234869e-01 -1.573501e-01 -4.774742e-01 -5.580388e-15 4.774742e-01 1.573501e-01 -4.234869e-01 -9.078364e-01 -1.263096e+00 -1.379770e+00 -1.405344e+00 -1.312566e+00 -1.195052e+00 -1.033348e+00 -8.651306e-01 -6.888512e-01 -5.141257e-01 -3.408983e-01 -1.698648e-01 
1.449145e-15 1.712994e-01 3.425216e-01 5.153541e-01 6.853497e-01 8.552089e-01 1.009251e+00 1.152926e+00 1.246476e+00 1.303214e+00 1.253338e+00 1.097778e+00 8.005704e-01 3.420136e-01 -8.768519e-02 -3.536029e-01 -5.894844e-14 3.536029e-01 8.768519e-02 -3.420136e-01 -8.005704e-01 -1.097778e+00 -1.253338e+00 -1.303214e+00 -1.246476e+00 -1.152926e+00 -1.009251e+00 -8.552089e-01 -6.853497e-01 -5.153541e-01 -3.425216e-01 -1.712994e-01 
