# vtk DataFile Version 2.0
Comment goes here
ASCII

DATASET STRUCTURED_POINTS
FIELD FieldData 1
TIME 1 1 double
1.22000000
DIMENSIONS    32   32   1

ORIGIN    0.000   0.000   0.000
SPACING   0.03125 0.03125   1.000

POINT_DATA   1024
SCALARS uX double
LOOKUP_TABLE default

-1.007398e-13 -1.125583e-02 -3.757842e-02 -9.916912e-02 -1.927083e-01 -3.386912e-01 -5.068730e-01 -7.205401e-01 -9.178553e-01 -1.131289e+00 -1.270366e+00 -1.384194e+00 -1.362238e+00 -1.268993e+00 -9.890081e-01 -5.744267e-01 4.631163e-13 5.744267e-01 9.890081e-01 1.268993e+00 1.362238e+00 1.384194e+00 1.270366e+00 1.131289e+00 9.178553e-01 7.205401e-01 5.068730e-01 3.386912e-01 1.927083e-01 9.916912e-02 3.757842e-02 1.125583e-02 
-9.694767e-14 -4.462528e-03 -2.406285e-02 -7.880014e-02 -1.650298e-01 -3.021500e-01 -4.609658e-01 -6.620177e-01 -8.480502e-01 -1.045301e+00 -1.173445e+00 -1.274092e+00 -1.250185e+00 -1.164743e+00 -9.085795e-01 -5.300284e-01 1.518837e-13 5.300284e-01 9.085795e-01 1.164743e+00 1.250185e+00 1.274092e+00 1.173445e+00 1.045301e+00 8.480502e-01 6.620177e-01 4.609658e-01 3.021500e-01 1.650298e-01 7.880014e-02 2.406285e-02 4.462528e-03 
-1.249771e-13 1.841064e-02 2.054784e-02 -1.146337e-02 -7.551873e-02 -1.870253e-01 -3.186071e-01 -4.908209e-01 -6.459671e-01 -8.184055e-01 -9.215217e-01 -1.017975e+00 -9.983969e-01 -9.569343e-01 -7.618463e-01 -4.455360e-01 -4.191654e-14 4.455360e-01 7.618463e-01 9.569343e-01 9.983969e-01 1.017975e+00 9.215217e-01 8.184055e-01 6.459671e-01 4.908209e-01 3.186071e-01 1.870253e-01 7.551873e-02 1.146337e-02 -2.054784e-02 -1.841064e-02 
-1.132660e-13 4.981151e-02 8.177188e-02 7.901154e-02 4.331091e-02 -3.679560e-02 -1.355534e-01 -2.702238e-01 -3.901746e-01 -5.235618e-01 -5.970245e-01 -6.641080e-01 -6.263317e-01 -6.085647e-01 -4.810946e-01 -2.808625e-01 -1.017240e-13 2.808625e-01 4.810946e-01 6.085647e-01 6.263317e-01 6.641080e-01 5.970245e-01 5.235618e-01 3.901746e-01 2.702238e-01 1.355534e-01 3.679560e-02 -4.331091e-02 -7.901154e-02 -8.177188e-02 -4.981151e-02 
-1.281782e-13 8.854239e-02 1.556848e-01 1.886341e-01 1.827667e-01 1.373604e-01 7.038675e-02 -2.814892e-02 -1.136165e-01 -2.209343e-01 -2.656577e-01 -3.324193e-01 -2.770547e-01 -3.284160e-01 -2.743510e-01 -1.411451e-01 -1.688393e-14 1.411451e-01 2.743510e-01 3.284160e-01 2.770547e-01 3.324193e-01 2.656577e-01 2.209343e-01 1.136165e-01 2.814892e-02 -7.038675e-02 -1.373604e-01 -1.827667e-01 -1.886341e-01 -1.556848e-01 -8.854239e-02 
-1.074756e-13 1.248560e-01 2.254422e-01 2.890938e-01 3.093928e-01 2.883655e-01 2.439976e-01 1.666104e-01 9.634530e-02 2.709181e-03 -5.124375e-02 -1.016292e-01 2.611788e-02 1.841342e-02 8.930643e-02 8.884563e-02 2.916610e-13 -8.884563e-02 -8.930643e-02 -1.841342e-02 -2.611788e-02 1.016292e-01 5.124375e-02 -2.709181e-03 -9.634530e-02 -1.666104e-01 -2.439976e-01 -2.883655e-01 -3.093928e-01 -2.890938e-01 -2.254422e-01 -1.248560e-01 
-1.022468e-13 1.567886e-01 2.847406e-01 3.782821e-01 4.170902e-01 4.223483e-01 3.894213e-01 3.327553e-01 2.691426e-01 1.786633e-01 1.275151e-01 5.147901e-02 2.313930e-01 8.922442e-02 1.150943e-01 1.627444e-01 6.147289e-13 -1.627444e-01 -1.150943e-01 -8.922442e-02 -2.313930e-01 -5.147901e-02 -1.275151e-01 -1.786633e-01 -2.691426e-01 -3.327553e-01 -3.894213e-01 -4.223483e-01 -4.170902e-01 -3.782821e-01 -2.847406e-01 -1.567886e-01 
-5.147902e-14 1.749289e-01 3.197841e-01 4.287657e-01 4.808316e-01 4.959591e-01 4.727256e-01 4.098605e-01 3.409859e-01 2.127171e-01 3.314844e-02 2.767406e-02 3.526063e-01 6.972255e-01 8.792962e-01 5.682387e-01 1.204742e-12 -5.682387e-01 -8.792962e-01 -6.972255e-01 -3.526063e-01 -2.767406e-02 -3.314844e-02 -2.127171e-01 -3.409859e-01 -4.098605e-01 -4.727256e-01 -4.959591e-01 -4.808316e-01 -4.287657e-01 -3.197841e-01 -1.749289e-01 
1.200053e-14 1.790150e-01 3.260302e-01 4.451667e-01 4.975393e-01 5.341625e-01 5.049026e-01 4.634264e-01 3.679873e-01 2.555380e-01 1.059116e-01 6.878556e-01 8.760613e-01 1.320993e+00 8.802604e-01 2.995281e-01 9.093015e-13 -2.995281e-01 -8.802604e-01 -1.320993e+00 -8.760613e-01 -6.878556e-01 -1.059116e-01 -2.555380e-01 -3.679873e-01 -4.634264e-01 -5.049026e-01 -5.341625e-01 -4.975393e-01 -4.451667e-01 -3.260302e-01 -1.790150e-01 
1.189746e-13 1.637115e-01 2.984235e-01 4.104210e-01 4.606814e-01 5.035200e-01 4.908883e-01 4.435342e-01 4.565672e-01 2.580256e-01 2.179385e-01 6.773321e-01 2.913911e-01 -2.928282e-01 -8.140168e-01 -4.035628e-01 -5.596432e-13 4.035628e-01 8.140168e-01 2.928282e-01 -2.913911e-01 -6.773321e-01 -2.179385e-01 -2.580256e-01 -4.565672e-01 -4.435342e-01 -4.908883e-01 -5.035200e-01 -4.606814e-01 -4.104210e-01 -2.984235e-01 -1.637115e-01 
2.538846e-13 1.283084e-01 2.334038e-01 3.309843e-01 3.698224e-01 4.386114e-01 4.170616e-01 4.045580e-01 3.503805e-01 -1.937430e-01 2.091276e-01 1.371250e-01 -1.031345e-02 -9.999587e-02 3.033365e-01 5.125801e-01 -6.571199e-13 -5.125801e-01 -3.033365e-01 9.999587e-02 1.031345e-02 -1.371250e-01 -2.091276e-01 1.937430e-01 -3.503805e-01 -4.045580e-01 -4.170616e-01 -4.386114e-01 -3.698224e-01 -3.309843e-01 -2.334038e-01 -1.283084e-01 
3.736753e-13 7.143919e-02 1.293853e-01 2.049358e-01 2.282183e-01 3.225657e-01 2.489536e-01 2.943855e-01 5.457985e-02 -4.621371e-01 6.006594e-01 4.369249e-01 6.760926e-01 9.625043e-01 9.856846e-01 4.921935e-01 -7.875159e-14 -4.921935e-01 -9.856846e-01 -9.625043e-01 -6.760926e-01 -4.369249e-01 -6.006594e-01 4.621371e-01 -5.457985e-02 -2.943855e-01 -2.489536e-01 -3.225657e-01 -2.282183e-01 -2.049358e-01 -1.293853e-01 -7.143919e-02 
5.165425e-13 -1.855830e-02 -2.751933e-02 7.571115e-03 3.697586e-02 1.839363e-01 1.039120e-01 4.756998e-01 -2.735340e-01 -1.015469e-01 9.379388e-01 3.592357e-01 4.521546e-01 2.550135e-01 1.060128e-01 -1.152476e-01 1.932175e-13 1.152476e-01 -1.060128e-01 -2.550135e-01 -4.521546e-01 -3.592357e-01 -9.379388e-01 1.015469e-01 2.735340e-01 -4.756998e-01 -1.039120e-01 -1.839363e-01 -3.697586e-02 -7.571115e-03 2.751933e-02 1.855830e-02 
5.320381e-13 -1.357117e-01 -2.376118e-01 -2.476917e-01 -2.138548e-01 1.431724e-02 4.686135e-03 5.627330e-01 -5.774601e-01 6.747281e-01 9.666424e-01 2.876534e-01 2.804044e-01 8.953510e-02 1.275235e-01 3.800885e-03 1.584081e-13 -3.800885e-03 -1.275235e-01 -8.953510e-02 -2.804044e-01 -2.876534e-01 -9.666424e-01 -6.747281e-01 5.774601e-01 -5.627330e-01 -4.686135e-03 -1.431724e-02 2.138548e-01 2.476917e-01 2.376118e-01 1.357117e-01 
5.521241e-13 -2.964737e-01 -5.245695e-01 -6.739812e-01 -6.707944e-01 -6.324439e-01 -4.248111e-01 -4.208972e-01 -1.291418e-01 1.213126e+00 4.906001e-01 3.806072e-01 2.192327e-01 1.500088e-01 5.212160e-02 -2.207739e-02 1.103639e-13 2.207739e-02 -5.212160e-02 -1.500088e-01 -2.192327e-01 -3.806072e-01 -4.906001e-01 -1.213126e+00 1.291418e-01 4.208972e-01 4.248111e-01 6.324439e-01 6.707944e-01 6.739812e-01 5.245695e-01 2.964737e-01 
3.133812e-13 -4.445728e-01 -7.931324e-01 -1.085736e+00 -1.143550e+00 -1.285782e+00 -8.647321e-01 -9.448823e-01 8.672066e-01 8.828197e-01 3.324436e-03 6.102447e-01 2.499044e-01 2.984578e-01 1.218800e-01 6.137498e-02 -9.750998e-14 -6.137498e-02 -1.218800e-01 -2.984578e-01 -2.499044e-01 -6.102447e-01 -3.324436e-03 -8.828197e-01 -8.672066e-01 9.448823e-01 8.647321e-01 1.285782e+00 1.143550e+00 1.085736e+00 7.931324e-01 4.445728e-01 
2.014887e-14 -5.008101e-01 -8.990582e-01 -1.231218e+00 -1.323054e+00 -1.455208e+00 -9.776592e-01 -7.526048e-01 1.267353e+00 5.058940e-01 -9.746159e-02 8.523775e-01 3.760853e-01 4.092050e-01 1.477517e-01 7.273397e-02 -1.991609e-13 -7.273397e-02 -1.477517e-01 -4.092050e-01 -3.760853e-01 -8.523775e-01 9.746159e-02 -5.058940e-01 -1.267353e+00 7.526048e-01 9.776592e-01 1.455208e+00 1.323054e+00 1.231218e+00 8.990582e-01 5.008101e-01 
-4.270335e-13 -4.445728e-01 -7.931324e-01 -1.085736e+00 -1.143550e+00 -1.285782e+00 -8.647321e-01 -9.448823e-01 8.672066e-01 8.828197e-01 3.324436e-03 6.102447e-01 2.499044e-01 2.984578e-01 1.218800e-01 6.137498e-02 -4.949888e-13 -6.137498e-02 -1.218800e-01 -2.984578e-01 -2.499044e-01 -6.102447e-01 -3.324436e-03 -8.828197e-01 -8.672066e-01 9.448823e-01 8.647321e-01 1.285782e+00 1.143550e+00 1.085736e+00 7.931324e-01 4.445728e-01 
-6.252809e-13 -2.964737e-01 -5.245695e-01 -6.739812e-01 -6.707944e-01 -6.324439e-01 -4.248111e-01 -4.208972e-01 -1.291418e-01 1.213126e+00 4.906001e-01 3.806072e-01 2.192327e-01 1.500088e-01 5.212160e-02 -2.207739e-02 -7.045780e-13 2.207739e-02 -5.212160e-02 -1.500088e-01 -2.192327e-01 -3.806072e-01 -4.906001e-01 -1.213126e+00 1.291418e-01 4.208972e-01 4.248111e-01 6.324439e-01 6.707944e-01 6.739812e-01 5.245695e-01 2.964737e-01 
-7.251370e-13 -1.357117e-01 -2.376118e-01 -2.476917e-01 -2.138548e-01 1.431724e-02 4.686135e-03 5.627330e-01 -5.774601e-01 6.747281e-01 9.666424e-01 2.876534e-01 2.804044e-01 8.953510e-02 1.275235e-01 3.800885e-03 -8.019809e-13 -3.800885e-03 -1.275235e-01 -8.953510e-02 -2.804044e-01 -2.876534e-01 -9.666424e-01 -6.747281e-01 5.774601e-01 -5.627330e-01 -4.686135e-03 -1.431724e-02 2.138548e-01 2.476917e-01 2.376118e-01 1.357117e-01 
-6.933343e-13 -1.855830e-02 -2.751933e-02 7.571115e-03 3.697586e-02 1.839363e-01 1.039120e-01 4.756998e-01 -2.735340e-01 -1.015469e-01 9.379388e-01 3.592357e-01 4.521546e-01 2.550135e-01 1.060128e-01 -1.152476e-01 -7.644130e-13 1.152476e-01 -1.060128e-01 -2.550135e-01 -4.521546e-01 -3.592357e-01 -9.379388e-01 1.015469e-01 2.735340e-01 -4.756998e-01 -1.039120e-01 -1.839363e-01 -3.697586e-02 -7.571115e-03 2.751933e-02 1.855830e-02 
-5.753028e-13 7.143919e-02 1.293853e-01 2.049358e-01 2.282183e-01 3.225657e-01 2.489536e-01 2.943855e-01 5.457985e-02 -4.621371e-01 6.006594e-01 4.369249e-01 6.760926e-01 9.625043e-01 9.856846e-01 4.921935e-01 1.545940e-12 -4.921935e-01 -9.856846e-01 -9.625043e-01 -6.760926e-01 -4.369249e-01 -6.006594e-01 4.621371e-01 -5.457985e-02 -2.943855e-01 -2.489536e-01 -3.225657e-01 -2.282183e-01 -2.049358e-01 -1.293853e-01 -7.143919e-02 
-4.536392e-13 1.283084e-01 2.334038e-01 3.309843e-01 3.698224e-01 4.386114e-01 4.170616e-01 4.045580e-01 3.503805e-01 -1.937430e-01 2.091276e-01 1.371250e-01 -1.031345e-02 -9.999587e-02 3.033365e-01 5.125801e-01 3.496320e-12 -5.125801e-01 -3.033365e-01 9.999587e-02 1.031345e-02 -1.371250e-01 -2.091276e-01 1.937430e-01 -3.503805e-01 -4.045580e-01 -4.170616e-01 -4.386114e-01 -3.698224e-01 -3.309843e-01 -2.334038e-01 -1.283084e-01 
-2.867978e-13 1.637115e-01 2.984235e-01 4.104210e-01 4.606814e-01 5.035200e-01 4.908883e-01 4.435342e-01 4.565672e-01 2.580256e-01 2.179385e-01 6.773321e-01 2.913911e-01 -2.928282e-01 -8.140168e-01 -4.035628e-01 1.887145e-12 4.035628e-01 8.140168e-01 2.928282e-01 -2.913911e-01 -6.773321e-01 -2.179385e-01 -2.580256e-01 -4.565672e-01 -4.435342e-01 -4.908883e-01 -5.035200e-01 -4.606814e-01 -4.104210e-01 -2.984235e-01 -1.637115e-01 
-1.872881e-13 1.790150e-01 3.260302e-01 4.451667e-01 4.975393e-01 5.341625e-01 5.049026e-01 4.634264e-01 3.679873e-01 2.555380e-01 1.059116e-01 6.878556e-01 8.760613e-01 1.320993e+00 8.802604e-01 2.995281e-01 -2.632501e-12 -2.995281e-01 -8.802604e-01 -1.320993e+00 -8.760613e-01 -6.878556e-01 -1.059116e-01 -2.555380e-01 -3.679873e-01 -4.634264e-01 -5.049026e-01 -5.341625e-01 -4.975393e-01 -4.451667e-01 -3.260302e-01 -1.790150e-01 
-7.323483e-14 1.749289e-01 3.197841e-01 4.287657e-01 4.808316e-01 4.959591e-01 4.727256e-01 4.098605e-01 3.409859e-01 2.127171e-01 3.314844e-02 2.767406e-02 3.526063e-01 6.972255e-01 8.792962e-01 5.682387e-01 -4.162087e-12 -5.682387e-01 -8.792962e-01 -6.972255e-01 -3.526063e-01 -2.767406e-02 -3.314844e-02 -2.127171e-01 -3.409859e-01 -4.098605e-01 -4.727256e-01 -4.959591e-01 -4.808316e-01 -4.287657e-01 -3.197841e-01 -1.749289e-01 
-4.805208e-14 1.567886e-01 2.847406e-01 3.782821e-01 4.170902e-01 4.223483e-01 3.894213e-01 3.327553e-01 2.691426e-01 1.786633e-01 1.275151e-01 5.147901e-02 2.313930e-01 8.922442e-02 1.150943e-01 1.627444e-01 -2.834511e-12 -1.627444e-01 -1.150943e-01 -8.922442e-02 -2.313930e-01 -5.147901e-02 -1.275151e-01 -1.786633e-01 -2.691426e-01 -3.327553e-01 -3.894213e-01 -4.223483e-01 -4.170902e-01 -3.782821e-01 -2.847406e-01 -1.567886e-01 
-3.814632e-15 1.248560e-01 2.254422e-01 2.890938e-01 3.093928e-01 2.883655e-01 2.439976e-01 1.666104e-01 9.634530e-02 2.709181e-03 -5.124375e-02 -1.016292e-01 2.611788e-02 1.841342e-02 8.930643e-02 8.884563e-02 -1.513477e-12 -8.884563e-02 -8.930643e-02 -1.841342e-02 -2.611788e-02 1.016292e-01 5.124375e-02 -2.709181e-03 -9.634530e-02 -1.666104e-01 -2.439976e-01 -2.883655e-01 -3.093928e-01 -2.890938e-01 -2.254422e-01 -1.248560e-01 
-3.002156e-14 8.854239e-02 1.556848e-01 1.886341e-01 1.827667e-01 1.373604e-01 7.038675e-02 -2.814892e-02 -1.136165e-01 -2.209343e-01 -2.656577e-01 -3.324193e-01 -2.770547e-01 -3.284160e-01 -2.743510e-01 -1.411451e-01 -6.964118e-14 1.411451e-01 2.743510e-01 3.284160e-01 2.770547e-01 3.324193e-01 2.656577e-01 2.209343e-01 1.136165e-01 2.814892e-02 -7.038675e-02 -1.373604e-01 -1.827667e-01 -1.886341e-01 -1.556848e-01 -8.854239e-02 
-1.951105e-14 4.981151e-02 8.177188e-02 7.901154e-02 4.331091e-02 -3.679560e-02 -1.355534e-01 -2.702238e-01 -3.901746e-01 -5.235618e-01 -5.970245e-01 -6.641080e-01 -6.263317e-01 -6.085647e-01 -4.810946e-01 -2.808625e-01 6.322279e-13 2.808625e-01 4.810946e-01 6.085647e-01 6.263317e-01 6.641080e-01 5.970245e-01 5.235618e-01 3.901746e-01 2.702238e-01 1.355534e-01 3.679560e-02 -4.331091e-02 -7.901154e-02 -8.177188e-02 -4.981151e-02 
-6.206236e-14 1.841064e-02 2.054784e-02 -1.146337e-02 -7.551873e-02 -1.870253e-01 -3.186071e-01 -4.908209e-01 -6.459671e-01 -8.184055e-01 -9.215217e-01 -1.017975e+00 -9.983969e-01 -9.569343e-01 -7.618463e-01 -4.455360e-01 9.325577e-13 4.455360e-01 7.618463e-01 9.569343e-01 9.983969e-01 1.017975e+00 9.215217e-01 8.184055e-01 6.459671e-01 4.908209e-01 3.186071e-01 1.870253e-01 7.551873e-02 1.146337e-02 -2.054784e-02 -1.841064e-02 
-6.016548e-14 -4.462528e-03 -2.406285e-02 -7.880014e-02 -1.650298e-01 -3.021500e-01 -4.609658e-01 -6.620177e-01 -8.480502e-01 -1.045301e+00 -1.173445e+00 -1.274092e+00 -1.250185e+00 -1.164743e+00 -9.085795e-01 -5.300284e-01 7.360595e-13 5.300284e-01 9.085795e-01 1.164743e+00 1.250185e+00 1.274092e+00 1.173445e+00 1.045301e+00 8.480502e-01 6.620177e-01 4.609658e-01 3.021500e-01 1.650298e-01 7.880014e-02 2.406285e-02 4.462528e-03 
