# vtk DataFile Version 2.0
Comment goes here
ASCII

DATASET STRUCTURED_POINTS
FIELD FieldData 1
TIME 1 1 double
1.20000000
DIMENSIONS    32   32   1

ORIGIN    0.000   0.000   0.000
SPACING   0.03125 0.03125   1.000

POINT_DATA   1024
SCALARS uX double
LOOKUP_TABLE default

-9.363880e-14 -5.270844e-03 -2.901297e-02 -8.102445e-02 -1.745219e-01 -3.089201e-01 -4.788246e-01 -6.826612e-01 -8.826415e-01 -1.092578e+00 -1.234935e+00 -1.355170e+00 -1.336212e+00 -1.254249e+00 -9.761499e-01 -5.721331e-01 4.130507e-13 5.721331e-01 9.761499e-01 1.254249e+00 1.336212e+00 1.355170e+00 1.234935e+00 1.092578e+00 8.826415e-01 6.826612e-01 4.788246e-01 3.089201e-01 1.745219e-01 8.102445e-02 2.901297e-02 5.270844e-03 
-9.032094e-14 8.212964e-04 -1.698418e-02 -6.324226e-02 -1.506750e-01 -2.782033e-01 -4.407447e-01 -6.355523e-01 -8.275818e-01 -1.026611e+00 -1.162129e+00 -1.272777e+00 -1.254085e+00 -1.176771e+00 -9.189505e-01 -5.414190e-01 1.301236e-13 5.414190e-01 9.189505e-01 1.176771e+00 1.254085e+00 1.272777e+00 1.162129e+00 1.026611e+00 8.275818e-01 6.355523e-01 4.407447e-01 2.782033e-01 1.506750e-01 6.324226e-02 1.698418e-02 -8.212964e-04 
-1.089972e-13 2.414860e-02 2.808490e-02 5.644688e-03 -5.987412e-02 -1.591815e-01 -2.941502e-01 -4.550940e-01 -6.141803e-01 -7.814965e-01 -8.864565e-01 -9.874979e-01 -9.670331e-01 -9.397959e-01 -7.520772e-01 -4.547290e-01 -4.984283e-14 4.547290e-01 7.520772e-01 9.397959e-01 9.670331e-01 9.874979e-01 8.864565e-01 7.814965e-01 6.141803e-01 4.550940e-01 2.941502e-01 1.591815e-01 5.987412e-02 -5.644688e-03 -2.808490e-02 -2.414860e-02 
-1.027216e-13 5.500007e-02 8.751677e-02 9.367947e-02 5.395939e-02 -1.502797e-02 -1.206573e-01 -2.461660e-01 -3.739660e-01 -5.077718e-01 -5.880506e-01 -6.691955e-01 -6.386228e-01 -6.370347e-01 -5.148274e-01 -3.193492e-01 -1.293511e-13 3.193492e-01 5.148274e-01 6.370347e-01 6.386228e-01 6.691955e-01 5.880506e-01 5.077718e-01 3.739660e-01 2.461660e-01 1.206573e-01 1.502797e-02 -5.395939e-02 -9.367947e-02 -8.751677e-02 -5.500007e-02 
-1.073839e-13 9.348654e-02 1.601112e-01 2.022731e-01 1.899146e-01 1.576237e-01 8.063379e-02 -2.322898e-03 -9.626123e-02 -1.917442e-01 -2.343188e-01 -3.011853e-01 -2.266533e-01 -2.918355e-01 -2.528577e-01 -1.599145e-01 -6.797326e-14 1.599145e-01 2.528577e-01 2.918355e-01 2.266533e-01 3.011853e-01 2.343188e-01 1.917442e-01 9.626123e-02 2.322898e-03 -8.063379e-02 -1.576237e-01 -1.899146e-01 -2.022731e-01 -1.601112e-01 -9.348654e-02 
-9.621816e-14 1.295798e-01 2.282020e-01 3.013444e-01 3.115958e-01 3.045381e-01 2.447306e-01 1.833953e-01 1.001924e-01 1.249612e-02 -4.114249e-02 -1.127723e-01 1.572020e-02 -8.730703e-03 7.089836e-02 5.948350e-02 1.895076e-13 -5.948350e-02 -7.089836e-02 8.730703e-03 -1.572020e-02 1.127723e-01 4.114249e-02 -1.249612e-02 -1.001924e-01 -1.833953e-01 -2.447306e-01 -3.045381e-01 -3.115958e-01 -3.013444e-01 -2.282020e-01 -1.295798e-01 
-8.307505e-14 1.598948e-01 2.835856e-01 3.847913e-01 4.089012e-01 4.276609e-01 3.703624e-01 3.353161e-01 2.463880e-01 1.818671e-01 1.348262e-01 7.022772e-02 3.521507e-01 2.258704e-01 2.676747e-01 2.088942e-01 4.413974e-13 -2.088942e-01 -2.676747e-01 -2.258704e-01 -3.521507e-01 -7.022772e-02 -1.348262e-01 -1.818671e-01 -2.463880e-01 -3.353161e-01 -3.703624e-01 -4.276609e-01 -4.089012e-01 -3.847913e-01 -2.835856e-01 -1.598948e-01 
-4.690690e-14 1.776502e-01 3.165345e-01 4.340632e-01 4.670610e-01 5.004591e-01 4.445685e-01 4.129452e-01 3.113123e-01 2.075214e-01 4.947253e-02 -5.002257e-02 2.196422e-01 4.156812e-01 8.329083e-01 5.817013e-01 1.054095e-12 -5.817013e-01 -8.329083e-01 -4.156812e-01 -2.196422e-01 5.002257e-02 -4.947253e-02 -2.075214e-01 -3.113123e-01 -4.129452e-01 -4.445685e-01 -5.004591e-01 -4.670610e-01 -4.340632e-01 -3.165345e-01 -1.776502e-01 
1.400114e-14 1.784305e-01 3.170185e-01 4.390712e-01 4.677830e-01 5.149971e-01 4.393816e-01 4.256284e-01 2.539441e-01 1.853343e-01 -7.873040e-02 3.764202e-01 6.568138e-01 1.069229e+00 9.357349e-01 3.422311e-01 8.994579e-13 -3.422311e-01 -9.357349e-01 -1.069229e+00 -6.568138e-01 -3.764202e-01 7.873040e-02 -1.853343e-01 -2.539441e-01 -4.256284e-01 -4.393816e-01 -5.149971e-01 -4.677830e-01 -4.390712e-01 -3.170185e-01 -1.784305e-01 
9.848771e-14 1.619486e-01 2.875787e-01 4.023147e-01 4.254581e-01 4.871055e-01 4.120749e-01 4.282606e-01 3.188376e-01 1.821639e-01 2.065623e-01 9.497955e-01 6.253093e-01 2.569282e-01 -4.015191e-01 -3.248663e-01 -2.644551e-13 3.248663e-01 4.015191e-01 -2.569282e-01 -6.253093e-01 -9.497955e-01 -2.065623e-01 -1.821639e-01 -3.188376e-01 -4.282606e-01 -4.120749e-01 -4.871055e-01 -4.254581e-01 -4.023147e-01 -2.875787e-01 -1.619486e-01 
2.118418e-13 1.235419e-01 2.205913e-01 3.122128e-01 3.279432e-01 3.954028e-01 3.144107e-01 3.223842e-01 7.479597e-02 -3.838637e-01 3.875663e-01 2.283745e-01 -2.398334e-01 -2.434317e-01 -8.487668e-02 3.164271e-01 -2.917497e-13 -3.164271e-01 8.487668e-02 2.434317e-01 2.398334e-01 -2.283745e-01 -3.875663e-01 3.838637e-01 -7.479597e-02 -3.223842e-01 -3.144107e-01 -3.954028e-01 -3.279432e-01 -3.122128e-01 -2.205913e-01 -1.235419e-01 
3.143445e-13 6.585165e-02 1.204485e-01 1.829403e-01 1.911770e-01 2.779960e-01 1.328250e-01 2.759032e-01 -3.738687e-01 -5.840368e-01 5.698494e-01 -3.482351e-03 6.106726e-01 8.405840e-01 7.713771e-01 5.147981e-01 -1.674783e-13 -5.147981e-01 -7.713771e-01 -8.405840e-01 -6.106726e-01 3.482351e-03 -5.698494e-01 5.840368e-01 3.738687e-01 -2.759032e-01 -1.328250e-01 -2.779960e-01 -1.911770e-01 -1.829403e-01 -1.204485e-01 -6.585165e-02 
4.290125e-13 -2.240451e-02 -2.863941e-02 -1.116319e-02 2.263797e-02 1.400309e-01 5.942653e-02 3.469530e-01 -8.044306e-01 2.029780e-01 1.020007e+00 4.841720e-01 7.883140e-01 4.036713e-01 2.468179e-01 -9.927196e-03 1.241624e-13 9.927196e-03 -2.468179e-01 -4.036713e-01 -7.883140e-01 -4.841720e-01 -1.020007e+00 -2.029780e-01 8.044306e-01 -3.469530e-01 -5.942653e-02 -1.400309e-01 -2.263797e-02 1.116319e-02 2.863941e-02 2.240451e-02 
4.577974e-13 -1.408335e-01 -2.295850e-01 -2.785919e-01 -1.932620e-01 -9.680516e-02 1.207990e-01 7.415011e-02 -4.807703e-01 1.253479e+00 1.043846e+00 6.736921e-01 2.309584e-01 7.232231e-02 8.077503e-02 -8.835202e-03 1.507423e-13 8.835202e-03 -8.077503e-02 -7.232231e-02 -2.309584e-01 -6.736921e-01 -1.043846e+00 -1.253479e+00 4.807703e-01 -7.415011e-02 -1.207990e-01 9.680516e-02 1.932620e-01 2.785919e-01 2.295850e-01 1.408335e-01 
4.948486e-13 -3.003754e-01 -5.165294e-01 -6.930394e-01 -6.425393e-01 -6.946926e-01 -2.917906e-01 -6.381767e-01 6.746788e-01 1.222830e+00 1.840498e-01 4.270440e-01 1.194192e-01 2.050118e-01 5.799026e-02 4.606014e-03 1.043390e-13 -4.606014e-03 -5.799026e-02 -2.050118e-01 -1.194192e-01 -4.270440e-01 -1.840498e-01 -1.222830e+00 -6.746788e-01 6.381767e-01 2.917906e-01 6.946926e-01 6.425393e-01 6.930394e-01 5.165294e-01 3.003754e-01 
3.094753e-13 -4.500182e-01 -7.937113e-01 -1.072508e+00 -1.105314e+00 -1.180062e+00 -7.935960e-01 -4.929361e-01 1.325844e+00 4.627590e-01 -7.840843e-02 4.847621e-01 1.904047e-01 2.370204e-01 7.933829e-02 3.848670e-02 -7.987860e-14 -3.848670e-02 -7.933829e-02 -2.370204e-01 -1.904047e-01 -4.847621e-01 7.840843e-02 -4.627590e-01 -1.325844e+00 4.929361e-01 7.935960e-01 1.180062e+00 1.105314e+00 1.072508e+00 7.937113e-01 4.500182e-01 
6.930884e-14 -5.081740e-01 -8.994323e-01 -1.198557e+00 -1.255011e+00 -1.254763e+00 -8.777240e-01 1.328477e-02 1.412772e+00 2.207689e-01 1.810485e-01 7.600596e-01 3.698561e-01 3.968105e-01 1.393375e-01 7.695775e-02 -1.270535e-13 -7.695775e-02 -1.393375e-01 -3.968105e-01 -3.698561e-01 -7.600596e-01 -1.810485e-01 -2.207689e-01 -1.412772e+00 -1.328477e-02 8.777240e-01 1.254763e+00 1.255011e+00 1.198557e+00 8.994323e-01 5.081740e-01 
-3.187737e-13 -4.500182e-01 -7.937113e-01 -1.072508e+00 -1.105314e+00 -1.180062e+00 -7.935960e-01 -4.929361e-01 1.325844e+00 4.627590e-01 -7.840843e-02 4.847621e-01 1.904047e-01 2.370204e-01 7.933829e-02 3.848670e-02 -3.680375e-13 -3.848670e-02 -7.933829e-02 -2.370204e-01 -1.904047e-01 -4.847621e-01 7.840843e-02 -4.627590e-01 -1.325844e+00 4.929361e-01 7.935960e-01 1.180062e+00 1.105314e+00 1.072508e+00 7.937113e-01 4.500182e-01 
-4.763948e-13 -3.003754e-01 -5.165294e-01 -6.930394e-01 -6.425393e-01 -6.946926e-01 -2.917906e-01 -6.381767e-01 6.746788e-01 1.222830e+00 1.840498e-01 4.270440e-01 1.194192e-01 2.050118e-01 5.799026e-02 4.606014e-03 -4.107896e-13 -4.606014e-03 -5.799026e-02 -2.050118e-01 -1.194192e-01 -4.270440e-01 -1.840498e-01 -1.222830e+00 -6.746788e-01 6.381767e-01 2.917906e-01 6.946926e-01 6.425393e-01 6.930394e-01 5.165294e-01 3.003754e-01 
-5.805631e-13 -1.408335e-01 -2.295850e-01 -2.785919e-01 -1.932620e-01 -9.680516e-02 1.207990e-01 7.415011e-02 -4.807703e-01 1.253479e+00 1.043846e+00 6.736921e-01 2.309584e-01 7.232231e-02 8.077503e-02 -8.835202e-03 -4.055322e-13 8.835202e-03 -8.077503e-02 -7.232231e-02 -2.309584e-01 -6.736921e-01 -1.043846e+00 -1.253479e+00 4.807703e-01 -7.415011e-02 -1.207990e-01 9.680516e-02 1.932620e-01 2.785919e-01 2.295850e-01 1.408335e-01 
-5.554808e-13 -2.240451e-02 -2.863941e-02 -1.116319e-02 2.263797e-02 1.400309e-01 5.942653e-02 3.469530e-01 -8.044306e-01 2.029780e-01 1.020007e+00 4.841720e-01 7.883140e-01 4.036713e-01 2.468179e-01 -9.927196e-03 -2.680066e-14 9.927196e-03 -2.468179e-01 -4.036713e-01 -7.883140e-01 -4.841720e-01 -1.020007e+00 -2.029780e-01 8.044306e-01 -3.469530e-01 -5.942653e-02 -1.400309e-01 -2.263797e-02 1.116319e-02 2.863941e-02 2.240451e-02 
-4.726665e-13 6.585165e-02 1.204485e-01 1.829403e-01 1.911770e-01 2.779960e-01 1.328250e-01 2.759032e-01 -3.738687e-01 -5.840368e-01 5.698494e-01 -3.482351e-03 6.106726e-01 8.405840e-01 7.713771e-01 5.147981e-01 2.058775e-12 -5.147981e-01 -7.713771e-01 -8.405840e-01 -6.106726e-01 3.482351e-03 -5.698494e-01 5.840368e-01 3.738687e-01 -2.759032e-01 -1.328250e-01 -2.779960e-01 -1.911770e-01 -1.829403e-01 -1.204485e-01 -6.585165e-02 
-3.868249e-13 1.235419e-01 2.205913e-01 3.122128e-01 3.279432e-01 3.954028e-01 3.144107e-01 3.223842e-01 7.479597e-02 -3.838637e-01 3.875663e-01 2.283745e-01 -2.398334e-01 -2.434317e-01 -8.487668e-02 3.164271e-01 2.468643e-12 -3.164271e-01 8.487668e-02 2.434317e-01 2.398334e-01 -2.283745e-01 -3.875663e-01 3.838637e-01 -7.479597e-02 -3.223842e-01 -3.144107e-01 -3.954028e-01 -3.279432e-01 -3.122128e-01 -2.205913e-01 -1.235419e-01 
-2.437649e-13 1.619486e-01 2.875787e-01 4.023147e-01 4.254581e-01 4.871055e-01 4.120749e-01 4.282606e-01 3.188376e-01 1.821639e-01 2.065623e-01 9.497955e-01 6.253093e-01 2.569282e-01 -4.015191e-01 -3.248663e-01 8.395370e-13 3.248663e-01 4.015191e-01 -2.569282e-01 -6.253093e-01 -9.497955e-01 -2.065623e-01 -1.821639e-01 -3.188376e-01 -4.282606e-01 -4.120749e-01 -4.871055e-01 -4.254581e-01 -4.023147e-01 -2.875787e-01 -1.619486e-01 
-1.784356e-13 1.784305e-01 3.170185e-01 4.390712e-01 4.677830e-01 5.149971e-01 4.393816e-01 4.256284e-01 2.539441e-01 1.853343e-01 -7.873040e-02 3.764202e-01 6.568138e-01 1.069229e+00 9.357349e-01 3.422311e-01 -3.252575e-12 -3.422311e-01 -9.357349e-01 -1.069229e+00 -6.568138e-01 -3.764202e-01 7.873040e-02 -1.853343e-01 -2.539441e-01 -4.256284e-01 -4.393816e-01 -5.149971e-01 -4.677830e-01 -4.390712e-01 -3.170185e-01 -1.784305e-01 
-7.071896e-14 1.776502e-01 3.165345e-01 4.340632e-01 4.670610e-01 5.004591e-01 4.445685e-01 4.129452e-01 3.113123e-01 2.075214e-01 4.947253e-02 -5.002257e-02 2.196422e-01 4.156812e-01 8.329083e-01 5.817013e-01 -4.351994e-12 -5.817013e-01 -8.329083e-01 -4.156812e-01 -2.196422e-01 5.002257e-02 -4.947253e-02 -2.075214e-01 -3.113123e-01 -4.129452e-01 -4.445685e-01 -5.004591e-01 -4.670610e-01 -4.340632e-01 -3.165345e-01 -1.776502e-01 
-6.312354e-14 1.598948e-01 2.835856e-01 3.847913e-01 4.089012e-01 4.276609e-01 3.703624e-01 3.353161e-01 2.463880e-01 1.818671e-01 1.348262e-01 7.022772e-02 3.521507e-01 2.258704e-01 2.676747e-01 2.088942e-01 -2.274145e-12 -2.088942e-01 -2.676747e-01 -2.258704e-01 -3.521507e-01 -7.022772e-02 -1.348262e-01 -1.818671e-01 -2.463880e-01 -3.353161e-01 -3.703624e-01 -4.276609e-01 -4.089012e-01 -3.847913e-01 -2.835856e-01 -1.598948e-01 
-1.431972e-14 1.295798e-01 2.282020e-01 3.013444e-01 3.115958e-01 3.045381e-01 2.447306e-01 1.833953e-01 1.001924e-01 1.249612e-02 -4.114249e-02 -1.127723e-01 1.572020e-02 -8.730703e-03 7.089836e-02 5.948350e-02 -9.718570e-13 -5.948350e-02 -7.089836e-02 8.730703e-03 -1.572020e-02 1.127723e-01 4.114249e-02 -1.249612e-02 -1.001924e-01 -1.833953e-01 -2.447306e-01 -3.045381e-01 -3.115958e-01 -3.013444e-01 -2.282020e-01 -1.295798e-01 
-4.512995e-14 9.348654e-02 1.601112e-01 2.022731e-01 1.899146e-01 1.576237e-01 8.063379e-02 -2.322898e-03 -9.626123e-02 -1.917442e-01 -2.343188e-01 -3.011853e-01 -2.266533e-01 -2.918355e-01 -2.528577e-01 -1.599145e-01 2.331824e-13 1.599145e-01 2.528577e-01 2.918355e-01 2.266533e-01 3.011853e-01 2.343188e-01 1.917442e-01 9.626123e-02 2.322898e-03 -8.063379e-02 -1.576237e-01 -1.899146e-01 -2.022731e-01 -1.601112e-01 -9.348654e-02 
-2.814816e-14 5.500007e-02 8.751677e-02 9.367947e-02 5.395939e-02 -1.502797e-02 -1.206573e-01 -2.461660e-01 -3.739660e-01 -5.077718e-01 -5.880506e-01 -6.691955e-01 -6.386228e-01 -6.370347e-01 -5.148274e-01 -3.193492e-01 7.030195e-13 3.193492e-01 5.148274e-01 6.370347e-01 6.386228e-01 6.691955e-01 5.880506e-01 5.077718e-01 3.739660e-01 2.461660e-01 1.206573e-01 1.502797e-02 -5.395939e-02 -9.367947e-02 -8.751677e-02 -5.500007e-02 
-6.671050e-14 2.414860e-02 2.808490e-02 5.644688e-03 -5.987412e-02 -1.591815e-01 -2.941502e-01 -4.550940e-01 -6.141803e-01 -7.814965e-01 -8.864565e-01 -9.874979e-01 -9.670331e-01 -9.397959e-01 -7.520772e-01 -4.547290e-01 8.705151e-13 4.547290e-01 7.520772e-01 9.397959e-01 9.670331e-01 9.874979e-01 8.864565e-01 7.814965e-01 6.141803e-01 4.550940e-01 2.941502e-01 1.591815e-01 5.987412e-02 -5.644688e-03 -2.808490e-02 -2.414860e-02 
-6.151343e-14 8.212964e-04 -1.698418e-02 -6.324226e-02 -1.506750e-01 -2.782033e-01 -4.407447e-01 -6.355523e-01 -8.275818e-01 -1.026611e+00 -1.162129e+00 -1.272777e+00 -1.254085e+00 -1.176771e+00 -9.189505e-01 -5.414190e-01 6.662534e-13 5.414190e-01 9.189505e-01 1.176771e+00 1.254085e+00 1.272777e+00 1.162129e+00 1.026611e+00 8.275818e-01 6.355523e-01 4.407447e-01 2.782033e-01 1.506750e-01 6.324226e-02 1.698418e-02 -8.212964e-04 
