# vtk DataFile Version 2.0
Comment goes here
ASCII

DATASET STRUCTURED_POINTS
FIELD FieldData 1
TIME 1 1 double
0.52000000
DIMENSIONS    32   32   1

ORIGIN    0.000   0.000   0.000
SPACING   0.03125 0.03125   1.000

POINT_DATA   1024
SCALARS uX double
LOOKUP_TABLE default

-3.933326e-15 9.665631e-02 1.852844e-01 2.689130e-01 3.301159e-01 3.750990e-01 3.844876e-01 3.493372e-01 2.703655e-01 1.051999e-01 -7.443190e-02 -3.517493e-01 -5.367653e-01 -7.239442e-01 -6.921551e-01 -4.606397e-01 -2.965701e-15 4.606397e-01 6.921551e-01 7.239442e-01 5.367653e-01 3.517493e-01 7.443190e-02 -1.051999e-01 -2.703655e-01 -3.493372e-01 -3.844876e-01 -3.750990e-01 -3.301159e-01 -2.689130e-01 -1.852844e-01 -9.665631e-02 
5.667150e-15 9.806184e-02 1.881681e-01 2.739790e-01 3.381751e-01 3.891304e-01 4.069049e-01 3.875862e-01 3.276459e-01 1.927537e-01 3.987119e-02 -2.034939e-01 -3.765291e-01 -5.501223e-01 -5.533928e-01 -4.103774e-01 -1.570635e-14 4.103774e-01 5.533928e-01 5.501223e-01 3.765291e-01 2.034939e-01 -3.987119e-02 -1.927537e-01 -3.276459e-01 -3.875862e-01 -4.069049e-01 -3.891304e-01 -3.381751e-01 -2.739790e-01 -1.881681e-01 -9.806184e-02 
-1.077622e-15 1.063551e-01 2.039598e-01 2.998441e-01 3.736487e-01 4.429449e-01 4.817491e-01 5.010117e-01 4.859764e-01 4.116254e-01 3.217191e-01 1.029223e-01 -4.480211e-02 -3.142898e-01 -4.363232e-01 -3.455740e-01 1.194537e-15 3.455740e-01 4.363232e-01 3.142898e-01 4.480211e-02 -1.029223e-01 -3.217191e-01 -4.116254e-01 -4.859764e-01 -5.010117e-01 -4.817491e-01 -4.429449e-01 -3.736487e-01 -2.998441e-01 -2.039598e-01 -1.063551e-01 
8.549302e-15 1.162249e-01 2.225519e-01 3.295244e-01 4.143212e-01 5.053602e-01 5.702159e-01 6.393637e-01 6.807523e-01 6.940220e-01 6.887295e-01 5.405358e-01 4.716855e-01 2.715431e-01 6.258545e-03 -1.689604e-01 -1.458246e-14 1.689604e-01 -6.258545e-03 -2.715431e-01 -4.716855e-01 -5.405358e-01 -6.887295e-01 -6.940220e-01 -6.807523e-01 -6.393637e-01 -5.702159e-01 -5.053602e-01 -4.143212e-01 -3.295244e-01 -2.225519e-01 -1.162249e-01 
3.731146e-16 1.318167e-01 2.507815e-01 3.729112e-01 4.695010e-01 5.868295e-01 6.781166e-01 8.078286e-01 9.070067e-01 1.037740e+00 1.126510e+00 1.039968e+00 1.111892e+00 6.253135e-01 3.212642e-01 3.144465e-01 -1.143387e-14 -3.144465e-01 -3.212642e-01 -6.253135e-01 -1.111892e+00 -1.039968e+00 -1.126510e+00 -1.037740e+00 -9.070067e-01 -8.078286e-01 -6.781166e-01 -5.868295e-01 -4.695010e-01 -3.729112e-01 -2.507815e-01 -1.318167e-01 
9.604559e-15 1.468380e-01 2.765824e-01 4.086253e-01 5.111025e-01 6.454052e-01 7.564646e-01 9.350621e-01 1.083611e+00 1.332484e+00 1.473320e+00 1.377910e+00 1.608464e+00 1.967297e+00 2.415563e+00 1.678407e+00 -5.644952e-14 -1.678407e+00 -2.415563e+00 -1.967297e+00 -1.608464e+00 -1.377910e+00 -1.473320e+00 -1.332484e+00 -1.083611e+00 -9.350621e-01 -7.564646e-01 -6.454052e-01 -5.111025e-01 -4.086253e-01 -2.765824e-01 -1.468380e-01 
3.122138e-17 1.657155e-01 3.075235e-01 4.480680e-01 5.505616e-01 6.964609e-01 8.193316e-01 1.048497e+00 1.255477e+00 1.695005e+00 1.833930e+00 2.312921e+00 3.055555e+00 3.306919e+00 2.574975e+00 1.133991e+00 -8.067465e-14 -1.133991e+00 -2.574975e+00 -3.306919e+00 -3.055555e+00 -2.312921e+00 -1.833930e+00 -1.695005e+00 -1.255477e+00 -1.048497e+00 -8.193316e-01 -6.964609e-01 -5.505616e-01 -4.480680e-01 -3.075235e-01 -1.657155e-01 
7.245197e-15 1.799179e-01 3.283290e-01 4.663331e-01 5.563043e-01 6.952362e-01 8.203186e-01 1.077827e+00 1.428488e+00 1.874469e+00 2.082108e+00 2.290429e+00 1.673460e+00 2.610379e-01 -7.009377e-01 -5.973720e-01 5.097843e-14 5.973720e-01 7.009377e-01 -2.610379e-01 -1.673460e+00 -2.290429e+00 -2.082108e+00 -1.874469e+00 -1.428488e+00 -1.077827e+00 -8.203186e-01 -6.952362e-01 -5.563043e-01 -4.663331e-01 -3.283290e-01 -1.799179e-01 
6.412674e-16 1.902935e-01 3.419475e-01 4.704595e-01 5.365629e-01 6.495723e-01 7.565325e-01 1.009810e+00 1.427759e+00 1.254818e+00 9.703991e-01 1.636624e-01 -1.147806e+00 -1.419140e+00 -6.717342e-01 -1.239073e-01 7.277930e-14 1.239073e-01 6.717342e-01 1.419140e+00 1.147806e+00 -1.636624e-01 -9.703991e-01 -1.254818e+00 -1.427759e+00 -1.009810e+00 -7.565325e-01 -6.495723e-01 -5.365629e-01 -4.704595e-01 -3.419475e-01 -1.902935e-01 
8.271278e-15 1.823965e-01 3.236433e-01 4.257504e-01 4.471029e-01 5.138237e-01 5.331006e-01 8.154387e-01 7.029684e-01 -1.024352e-01 -6.236912e-01 -1.161545e+00 -1.140917e+00 -2.737560e-01 1.088966e-01 1.830999e-01 3.468525e-14 -1.830999e-01 -1.088966e-01 2.737560e-01 1.140917e+00 1.161545e+00 6.236912e-01 1.024352e-01 -7.029684e-01 -8.154387e-01 -5.331006e-01 -5.138237e-01 -4.471029e-01 -4.257504e-01 -3.236433e-01 -1.823965e-01 
9.405589e-15 1.544871e-01 2.722277e-01 3.388070e-01 3.115250e-01 3.278693e-01 2.241759e-01 4.572301e-01 -5.579519e-01 -1.047863e+00 -9.879249e-01 -1.344619e+00 -9.093933e-01 -3.557377e-01 -2.304563e-01 -7.980430e-02 -2.386322e-15 7.980430e-02 2.304563e-01 3.557377e-01 9.093933e-01 1.344619e+00 9.879249e-01 1.047863e+00 5.579519e-01 -4.572301e-01 -2.241759e-01 -3.278693e-01 -3.115250e-01 -3.388070e-01 -2.722277e-01 -1.544871e-01 
1.764585e-14 9.260076e-02 1.637195e-01 1.616373e-01 9.577054e-02 -2.752527e-02 -1.873153e-01 -4.291078e-01 -1.433473e+00 -1.162065e+00 -1.223063e+00 -1.556792e+00 -8.664369e-01 -6.542914e-01 -3.878278e-01 -2.068290e-01 1.243108e-14 2.068290e-01 3.878278e-01 6.542914e-01 8.664369e-01 1.556792e+00 1.223063e+00 1.162065e+00 1.433473e+00 4.291078e-01 1.873153e-01 2.752527e-02 -9.577054e-02 -1.616373e-01 -1.637195e-01 -9.260076e-02 
2.978726e-14 -5.056242e-03 -8.929014e-03 -9.795806e-02 -1.794128e-01 -4.467047e-01 -5.798997e-01 -1.347279e+00 -1.546898e+00 -1.066772e+00 -1.578849e+00 -1.389292e+00 -8.801459e-01 -8.457400e-01 -6.029416e-01 -3.514335e-01 1.007706e-15 3.514335e-01 6.029416e-01 8.457400e-01 8.801459e-01 1.389292e+00 1.578849e+00 1.066772e+00 1.546898e+00 1.347279e+00 5.798997e-01 4.467047e-01 1.794128e-01 9.795806e-02 8.929014e-03 5.056242e-03 
3.292503e-14 -1.526337e-01 -2.837658e-01 -4.639805e-01 -6.008931e-01 -9.403284e-01 -1.147593e+00 -1.828571e+00 -1.427739e+00 -1.208165e+00 -1.520917e+00 -1.007023e+00 -8.932326e-01 -7.338206e-01 -5.645424e-01 -3.188822e-01 1.097192e-15 3.188822e-01 5.645424e-01 7.338206e-01 8.932326e-01 1.007023e+00 1.520917e+00 1.208165e+00 1.427739e+00 1.828571e+00 1.147593e+00 9.403284e-01 6.008931e-01 4.639805e-01 2.837658e-01 1.526337e-01 
4.540453e-14 -3.753824e-01 -7.087415e-01 -1.018361e+00 -1.230245e+00 -1.492675e+00 -1.639955e+00 -1.791344e+00 -1.288793e+00 -1.460736e+00 -1.255642e+00 -6.175218e-01 -7.377754e-01 -5.337948e-01 -4.737175e-01 -2.522113e-01 2.054322e-15 2.522113e-01 4.737175e-01 5.337948e-01 7.377754e-01 6.175218e-01 1.255642e+00 1.460736e+00 1.288793e+00 1.791344e+00 1.639955e+00 1.492675e+00 1.230245e+00 1.018361e+00 7.087415e-01 3.753824e-01 
1.983386e-14 -6.634062e-01 -1.219228e+00 -1.601869e+00 -1.761883e+00 -1.781102e+00 -1.752096e+00 -1.597600e+00 -1.362254e+00 -1.621064e+00 -9.163567e-01 -2.800207e-01 -4.764931e-01 -2.878880e-01 -3.240176e-01 -1.590861e-01 -1.025342e-14 1.590861e-01 3.240176e-01 2.878880e-01 4.764931e-01 2.800207e-01 9.163567e-01 1.621064e+00 1.362254e+00 1.597600e+00 1.752096e+00 1.781102e+00 1.761883e+00 1.601869e+00 1.219228e+00 6.634062e-01 
-4.977113e-15 -8.331151e-01 -1.502823e+00 -1.896456e+00 -1.994398e+00 -1.903694e+00 -1.864589e+00 -1.720845e+00 -1.635517e+00 -1.752832e+00 -7.858542e-01 -1.843342e-01 -3.582859e-01 -2.031169e-01 -2.699780e-01 -1.303740e-01 1.891215e-15 1.303740e-01 2.699780e-01 2.031169e-01 3.582859e-01 1.843342e-01 7.858542e-01 1.752832e+00 1.635517e+00 1.720845e+00 1.864589e+00 1.903694e+00 1.994398e+00 1.896456e+00 1.502823e+00 8.331151e-01 
-6.911062e-14 -6.634062e-01 -1.219228e+00 -1.601869e+00 -1.761883e+00 -1.781102e+00 -1.752096e+00 -1.597600e+00 -1.362254e+00 -1.621064e+00 -9.163567e-01 -2.800207e-01 -4.764931e-01 -2.878880e-01 -3.240176e-01 -1.590861e-01 -1.857978e-14 1.590861e-01 3.240176e-01 2.878880e-01 4.764931e-01 2.800207e-01 9.163567e-01 1.621064e+00 1.362254e+00 1.597600e+00 1.752096e+00 1.781102e+00 1.761883e+00 1.601869e+00 1.219228e+00 6.634062e-01 
-3.780300e-14 -3.753824e-01 -7.087415e-01 -1.018361e+00 -1.230245e+00 -1.492675e+00 -1.639955e+00 -1.791344e+00 -1.288793e+00 -1.460736e+00 -1.255642e+00 -6.175218e-01 -7.377754e-01 -5.337948e-01 -4.737175e-01 -2.522113e-01 -1.332783e-15 2.522113e-01 4.737175e-01 5.337948e-01 7.377754e-01 6.175218e-01 1.255642e+00 1.460736e+00 1.288793e+00 1.791344e+00 1.639955e+00 1.492675e+00 1.230245e+00 1.018361e+00 7.087415e-01 3.753824e-01 
-3.743016e-14 -1.526337e-01 -2.837658e-01 -4.639805e-01 -6.008931e-01 -9.403284e-01 -1.147593e+00 -1.828571e+00 -1.427739e+00 -1.208165e+00 -1.520917e+00 -1.007023e+00 -8.932326e-01 -7.338206e-01 -5.645424e-01 -3.188822e-01 -1.421924e-14 3.188822e-01 5.645424e-01 7.338206e-01 8.932326e-01 1.007023e+00 1.520917e+00 1.208165e+00 1.427739e+00 1.828571e+00 1.147593e+00 9.403284e-01 6.008931e-01 4.639805e-01 2.837658e-01 1.526337e-01 
-1.416629e-14 -5.056242e-03 -8.929014e-03 -9.795806e-02 -1.794128e-01 -4.467047e-01 -5.798997e-01 -1.347279e+00 -1.546898e+00 -1.066772e+00 -1.578849e+00 -1.389292e+00 -8.801459e-01 -8.457400e-01 -6.029416e-01 -3.514335e-01 -6.347130e-15 3.514335e-01 6.029416e-01 8.457400e-01 8.801459e-01 1.389292e+00 1.578849e+00 1.066772e+00 1.546898e+00 1.347279e+00 5.798997e-01 4.467047e-01 1.794128e-01 9.795806e-02 8.929014e-03 5.056242e-03 
-8.625518e-15 9.260076e-02 1.637195e-01 1.616373e-01 9.577054e-02 -2.752527e-02 -1.873153e-01 -4.291078e-01 -1.433473e+00 -1.162065e+00 -1.223063e+00 -1.556792e+00 -8.664369e-01 -6.542914e-01 -3.878278e-01 -2.068290e-01 -1.423525e-14 2.068290e-01 3.878278e-01 6.542914e-01 8.664369e-01 1.556792e+00 1.223063e+00 1.162065e+00 1.433473e+00 4.291078e-01 1.873153e-01 2.752527e-02 -9.577054e-02 -1.616373e-01 -1.637195e-01 -9.260076e-02 
-1.525894e-15 1.544871e-01 2.722277e-01 3.388070e-01 3.115250e-01 3.278693e-01 2.241759e-01 4.572301e-01 -5.579519e-01 -1.047863e+00 -9.879249e-01 -1.344619e+00 -9.093933e-01 -3.557377e-01 -2.304563e-01 -7.980430e-02 -1.732355e-14 7.980430e-02 2.304563e-01 3.557377e-01 9.093933e-01 1.344619e+00 9.879249e-01 1.047863e+00 5.579519e-01 -4.572301e-01 -2.241759e-01 -3.278693e-01 -3.115250e-01 -3.388070e-01 -2.722277e-01 -1.544871e-01 
2.742269e-15 1.823965e-01 3.236433e-01 4.257504e-01 4.471029e-01 5.138237e-01 5.331006e-01 8.154387e-01 7.029684e-01 -1.024352e-01 -6.236912e-01 -1.161545e+00 -1.140917e+00 -2.737560e-01 1.088966e-01 1.830999e-01 -1.844706e-14 -1.830999e-01 -1.088966e-01 2.737560e-01 1.140917e+00 1.161545e+00 6.236912e-01 1.024352e-01 -7.029684e-01 -8.154387e-01 -5.331006e-01 -5.138237e-01 -4.471029e-01 -4.257504e-01 -3.236433e-01 -1.823965e-01 
-1.553412e-15 1.902935e-01 3.419475e-01 4.704595e-01 5.365629e-01 6.495723e-01 7.565325e-01 1.009810e+00 1.427759e+00 1.254818e+00 9.703991e-01 1.636624e-01 -1.147806e+00 -1.419140e+00 -6.717342e-01 -1.239073e-01 1.007280e-13 1.239073e-01 6.717342e-01 1.419140e+00 1.147806e+00 -1.636624e-01 -9.703991e-01 -1.254818e+00 -1.427759e+00 -1.009810e+00 -7.565325e-01 -6.495723e-01 -5.365629e-01 -4.704595e-01 -3.419475e-01 -1.902935e-01 
1.617519e-15 1.799179e-01 3.283290e-01 4.663331e-01 5.563043e-01 6.952362e-01 8.203186e-01 1.077827e+00 1.428488e+00 1.874469e+00 2.082108e+00 2.290429e+00 1.673460e+00 2.610379e-01 -7.009377e-01 -5.973720e-01 1.453921e-13 5.973720e-01 7.009377e-01 -2.610379e-01 -1.673460e+00 -2.290429e+00 -2.082108e+00 -1.874469e+00 -1.428488e+00 -1.077827e+00 -8.203186e-01 -6.952362e-01 -5.563043e-01 -4.663331e-01 -3.283290e-01 -1.799179e-01 
-6.763278e-15 1.657155e-01 3.075235e-01 4.480680e-01 5.505616e-01 6.964609e-01 8.193316e-01 1.048497e+00 1.255477e+00 1.695005e+00 1.833930e+00 2.312921e+00 3.055555e+00 3.306919e+00 2.574975e+00 1.133991e+00 -7.549235e-14 -1.133991e+00 -2.574975e+00 -3.306919e+00 -3.055555e+00 -2.312921e+00 -1.833930e+00 -1.695005e+00 -1.255477e+00 -1.048497e+00 -8.193316e-01 -6.964609e-01 -5.505616e-01 -4.480680e-01 -3.075235e-01 -1.657155e-01 
-1.862110e-15 1.468380e-01 2.765824e-01 4.086253e-01 5.111025e-01 6.454052e-01 7.564646e-01 9.350621e-01 1.083611e+00 1.332484e+00 1.473320e+00 1.377910e+00 1.608464e+00 1.967297e+00 2.415563e+00 1.678407e+00 -5.968721e-14 -1.678407e+00 -2.415563e+00 -1.967297e+00 -1.608464e+00 -1.377910e+00 -1.473320e+00 -1.332484e+00 -1.083611e+00 -9.350621e-01 -7.564646e-01 -6.454052e-01 -5.111025e-01 -4.086253e-01 -2.765824e-01 -1.468380e-01 
-8.594016e-15 1.318167e-01 2.507815e-01 3.729112e-01 4.695010e-01 5.868295e-01 6.781166e-01 8.078286e-01 9.070067e-01 1.037740e+00 1.126510e+00 1.039968e+00 1.111892e+00 6.253135e-01 3.212642e-01 3.144465e-01 5.730385e-15 -3.144465e-01 -3.212642e-01 -6.253135e-01 -1.111892e+00 -1.039968e+00 -1.126510e+00 -1.037740e+00 -9.070067e-01 -8.078286e-01 -6.781166e-01 -5.868295e-01 -4.695010e-01 -3.729112e-01 -2.507815e-01 -1.318167e-01 
-1.070652e-15 1.162249e-01 2.225519e-01 3.295244e-01 4.143212e-01 5.053602e-01 5.702159e-01 6.393637e-01 6.807523e-01 6.940220e-01 6.887295e-01 5.405358e-01 4.716855e-01 2.715431e-01 6.258545e-03 -1.689604e-01 -1.227390e-14 1.689604e-01 -6.258545e-03 -2.715431e-01 -4.716855e-01 -5.405358e-01 -6.887295e-01 -6.940220e-01 -6.807523e-01 -6.393637e-01 -5.702159e-01 -5.053602e-01 -4.143212e-01 -3.295244e-01 -2.225519e-01 -1.162249e-01 
-6.838075e-15 1.063551e-01 2.039598e-01 2.998441e-01 3.736487e-01 4.429449e-01 4.817491e-01 5.010117e-01 4.859764e-01 4.116254e-01 3.217191e-01 1.029223e-01 -4.480211e-02 -3.142898e-01 -4.363232e-01 -3.455740e-01 1.098181e-14 3.455740e-01 4.363232e-01 3.142898e-01 4.480211e-02 -1.029223e-01 -3.217191e-01 -4.116254e-01 -4.859764e-01 -5.010117e-01 -4.817491e-01 -4.429449e-01 -3.736487e-01 -2.998441e-01 -2.039598e-01 -1.063551e-01 
2.410052e-15 9.806184e-02 1.881681e-01 2.739790e-01 3.381751e-01 3.891304e-01 4.069049e-01 3.875862e-01 3.276459e-01 1.927537e-01 3.987119e-02 -2.034939e-01 -3.765291e-01 -5.501223e-01 -5.533928e-01 -4.103774e-01 -1.173690e-14 4.103774e-01 5.533928e-01 5.501223e-01 3.765291e-01 2.034939e-01 -3.987119e-02 -1.927537e-01 -3.276459e-01 -3.875862e-01 -4.069049e-01 -3.891304e-01 -3.381751e-01 -2.739790e-01 -1.881681e-01 -9.806184e-02 
