# vtk DataFile Version 2.0
Comment goes here
ASCII

DATASET STRUCTURED_POINTS
FIELD FieldData 1
TIME 1 1 double
0.78000000
DIMENSIONS    32   32   1

ORIGIN    0.000   0.000   0.000
SPACING   0.03125 0.03125   1.000

POINT_DATA   1024
SCALARS uX double
LOOKUP_TABLE default

-2.689802e-16 -3.227614e-02 -7.882982e-02 -1.415471e-01 -2.412712e-01 -3.680898e-01 -5.425199e-01 -7.441734e-01 -9.745400e-01 -1.200510e+00 -1.397857e+00 -1.535425e+00 -1.576380e+00 -1.483630e+00 -1.207731e+00 -6.902244e-01 2.319718e-14 6.902244e-01 1.207731e+00 1.483630e+00 1.576380e+00 1.535425e+00 1.397857e+00 1.200510e+00 9.745400e-01 7.441734e-01 5.425199e-01 3.680898e-01 2.412712e-01 1.415471e-01 7.882982e-02 3.227614e-02 
-1.441415e-15 -2.750781e-02 -6.963543e-02 -1.273867e-01 -2.219344e-01 -3.408548e-01 -5.059881e-01 -6.946947e-01 -9.127540e-01 -1.126179e+00 -1.315710e+00 -1.448871e+00 -1.488820e+00 -1.402791e+00 -1.127841e+00 -6.324917e-01 2.911235e-14 6.324917e-01 1.127841e+00 1.402791e+00 1.488820e+00 1.448871e+00 1.315710e+00 1.126179e+00 9.127540e-01 6.946947e-01 5.059881e-01 3.408548e-01 2.219344e-01 1.273867e-01 6.963543e-02 2.750781e-02 
-4.630978e-15 -1.161844e-02 -3.880953e-02 -8.133466e-02 -1.595519e-01 -2.565689e-01 -3.933018e-01 -5.449233e-01 -7.191198e-01 -8.866855e-01 -1.028819e+00 -1.121976e+00 -1.130199e+00 -1.039658e+00 -8.151630e-01 -4.355368e-01 3.596737e-14 4.355368e-01 8.151630e-01 1.039658e+00 1.130199e+00 1.121976e+00 1.028819e+00 8.866855e-01 7.191198e-01 5.449233e-01 3.933018e-01 2.565689e-01 1.595519e-01 8.133466e-02 3.880953e-02 1.161844e-02 
-5.173641e-15 1.231514e-02 6.458102e-03 -1.545997e-02 -7.470692e-02 -1.461064e-01 -2.529114e-01 -3.623768e-01 -4.906087e-01 -6.070180e-01 -7.058660e-01 -7.653138e-01 -7.636680e-01 -6.954879e-01 -4.827823e-01 -2.173041e-01 2.473624e-14 2.173041e-01 4.827823e-01 6.954879e-01 7.636680e-01 7.653138e-01 7.058660e-01 6.070180e-01 4.906087e-01 3.623768e-01 2.529114e-01 1.461064e-01 7.470692e-02 1.545997e-02 -6.458102e-03 -1.231514e-02 
-1.171813e-14 4.492494e-02 6.710717e-02 6.972132e-02 2.945058e-02 -1.889058e-02 -1.018948e-01 -1.772798e-01 -2.673969e-01 -3.436801e-01 -3.993921e-01 -4.211718e-01 -3.527023e-01 -2.342979e-01 -7.514693e-02 -8.536163e-03 -7.845631e-15 8.536163e-03 7.514693e-02 2.342979e-01 3.527023e-01 4.211718e-01 3.993921e-01 3.436801e-01 2.673969e-01 1.772798e-01 1.018948e-01 1.889058e-02 -2.945058e-02 -6.972132e-02 -6.710717e-02 -4.492494e-02 
-1.048397e-14 8.226473e-02 1.353591e-01 1.629744e-01 1.372914e-01 1.048329e-01 3.165824e-02 -2.557526e-02 -1.016085e-01 -1.626190e-01 -2.186461e-01 -2.333045e-01 -1.957663e-01 -8.615813e-02 1.990203e-01 1.869909e-01 -3.779266e-14 -1.869909e-01 -1.990203e-01 8.615813e-02 1.957663e-01 2.333045e-01 2.186461e-01 1.626190e-01 1.016085e-01 2.557526e-02 -3.165824e-02 -1.048329e-01 -1.372914e-01 -1.629744e-01 -1.353591e-01 -8.226473e-02 
-1.629854e-14 1.227378e-01 2.088858e-01 2.621640e-01 2.471410e-01 2.242757e-01 1.448332e-01 8.758368e-02 -4.260449e-03 -9.706659e-02 -2.046053e-01 -1.563177e-01 3.558828e-01 8.608818e-01 9.705564e-01 4.789086e-01 -4.956210e-15 -4.789086e-01 -9.705564e-01 -8.608818e-01 -3.558828e-01 1.563177e-01 2.046053e-01 9.706659e-02 4.260449e-03 -8.758368e-02 -1.448332e-01 -2.242757e-01 -2.471410e-01 -2.621640e-01 -2.088858e-01 -1.227378e-01 
-7.588596e-15 1.595446e-01 2.758657e-01 3.532448e-01 3.469208e-01 3.309962e-01 2.389182e-01 1.741384e-01 6.038484e-02 -4.911523e-02 2.366973e-02 5.527572e-01 1.367096e+00 1.146725e+00 4.537893e-01 -1.551918e-02 1.068712e-13 1.551918e-02 -4.537893e-01 -1.146725e+00 -1.367096e+00 -5.527572e-01 -2.366973e-02 4.911523e-02 -6.038484e-02 -1.741384e-01 -2.389182e-01 -3.309962e-01 -3.469208e-01 -3.532448e-01 -2.758657e-01 -1.595446e-01 
-5.552827e-15 1.879884e-01 3.286987e-01 4.282835e-01 4.315434e-01 4.278741e-01 3.161926e-01 2.595628e-01 1.444597e-01 9.482377e-02 4.308029e-01 7.156291e-01 3.012843e-01 -7.591880e-01 -9.217077e-01 -4.776296e-01 1.203782e-13 4.776296e-01 9.217077e-01 7.591880e-01 -3.012843e-01 -7.156291e-01 -4.308029e-01 -9.482377e-02 -1.444597e-01 -2.595628e-01 -3.161926e-01 -4.278741e-01 -4.315434e-01 -4.282835e-01 -3.286987e-01 -1.879884e-01 
1.207054e-14 1.992790e-01 3.520688e-01 4.685323e-01 4.834397e-01 4.966394e-01 3.629784e-01 3.167648e-01 2.117619e-01 -2.169660e-02 4.464493e-01 2.332608e-01 -2.788168e-01 7.292151e-02 5.754969e-01 5.350247e-01 6.182803e-14 -5.350247e-01 -5.754969e-01 -7.292151e-02 2.788168e-01 -2.332608e-01 -4.464493e-01 2.169660e-02 -2.117619e-01 -3.167648e-01 -3.629784e-01 -4.966394e-01 -4.834397e-01 -4.685323e-01 -3.520688e-01 -1.992790e-01 
2.108783e-14 1.860066e-01 3.368361e-01 4.621956e-01 5.011324e-01 5.456918e-01 3.906449e-01 4.576223e-01 4.557586e-03 -2.460827e-01 3.668783e-01 4.014998e-01 7.378334e-01 1.257587e+00 1.196252e+00 7.030235e-01 -8.398366e-15 -7.030235e-01 -1.196252e+00 -1.257587e+00 -7.378334e-01 -4.014998e-01 -3.668783e-01 2.460827e-01 -4.557586e-03 -4.576223e-01 -3.906449e-01 -5.456918e-01 -5.011324e-01 -4.621956e-01 -3.368361e-01 -1.860066e-01 
3.604047e-14 1.368043e-01 2.634338e-01 3.890320e-01 4.669320e-01 5.551290e-01 4.058371e-01 7.532871e-01 -3.332576e-01 3.877425e-01 8.643839e-01 5.216608e-01 6.433660e-01 4.046504e-01 1.644972e-01 6.027448e-02 -1.757326e-14 -6.027448e-02 -1.644972e-01 -4.046504e-01 -6.433660e-01 -5.216608e-01 -8.643839e-01 -3.877425e-01 3.332576e-01 -7.532871e-01 -4.058371e-01 -5.551290e-01 -4.669320e-01 -3.890320e-01 -2.634338e-01 -1.368043e-01 
4.262224e-14 4.456369e-02 1.200142e-01 2.146767e-01 3.669398e-01 4.146354e-01 5.502608e-01 3.938105e-01 -3.957190e-01 9.622790e-01 6.885222e-01 2.619077e-01 1.943778e-01 9.685972e-02 7.066402e-03 -2.835719e-02 -1.475328e-14 2.835719e-02 -7.066402e-03 -9.685972e-02 -1.943778e-01 -2.619077e-01 -6.885222e-01 -9.622790e-01 3.957190e-01 -3.938105e-01 -5.502608e-01 -4.146354e-01 -3.669398e-01 -2.146767e-01 -1.200142e-01 -4.456369e-02 
3.690383e-14 -9.931558e-02 -1.178750e-01 -9.718187e-02 1.281532e-01 1.557143e-01 5.819805e-01 -4.494937e-01 4.179293e-01 1.072377e+00 3.425845e-01 4.049990e-01 2.174749e-01 1.532196e-01 2.946068e-02 -7.762891e-03 -5.316297e-16 7.762891e-03 -2.946068e-02 -1.532196e-01 -2.174749e-01 -4.049990e-01 -3.425845e-01 -1.072377e+00 -4.179293e-01 4.494937e-01 -5.819805e-01 -1.557143e-01 -1.281532e-01 9.718187e-02 1.178750e-01 9.931558e-02 
2.221306e-14 -2.701500e-01 -4.422441e-01 -5.300807e-01 -4.154989e-01 -3.347082e-01 -1.032432e-01 -4.843138e-01 1.144777e+00 7.897363e-01 3.809068e-01 6.041934e-01 3.354583e-01 2.917932e-01 1.093446e-01 4.897452e-02 -1.214281e-14 -4.897452e-02 -1.093446e-01 -2.917932e-01 -3.354583e-01 -6.041934e-01 -3.809068e-01 -7.897363e-01 -1.144777e+00 4.843138e-01 1.032432e-01 3.347082e-01 4.154989e-01 5.300807e-01 4.422441e-01 2.701500e-01 
-4.000850e-16 -4.633844e-01 -8.456751e-01 -1.133755e+00 -1.266096e+00 -1.156351e+00 -8.624729e-01 2.879501e-01 1.148153e+00 5.065091e-01 5.631344e-01 7.348112e-01 4.991340e-01 4.069199e-01 1.883593e-01 9.078783e-02 1.392944e-14 -9.078783e-02 -1.883593e-01 -4.069199e-01 -4.991340e-01 -7.348112e-01 -5.631344e-01 -5.065091e-01 -1.148153e+00 -2.879501e-01 8.624729e-01 1.156351e+00 1.266096e+00 1.133755e+00 8.456751e-01 4.633844e-01 
-2.428784e-14 -5.766296e-01 -1.082147e+00 -1.509704e+00 -1.761042e+00 -1.636529e+00 -1.064463e+00 7.600488e-01 1.159943e+00 6.538616e-01 9.292693e-01 9.678955e-01 6.925096e-01 5.356755e-01 2.653273e-01 1.285307e-01 -5.642158e-15 -1.285307e-01 -2.653273e-01 -5.356755e-01 -6.925096e-01 -9.678955e-01 -9.292693e-01 -6.538616e-01 -1.159943e+00 -7.600488e-01 1.064463e+00 1.636529e+00 1.761042e+00 1.509704e+00 1.082147e+00 5.766296e-01 
-2.455211e-14 -4.633844e-01 -8.456751e-01 -1.133755e+00 -1.266096e+00 -1.156351e+00 -8.624729e-01 2.879501e-01 1.148153e+00 5.065091e-01 5.631344e-01 7.348112e-01 4.991340e-01 4.069199e-01 1.883593e-01 9.078783e-02 1.189022e-14 -9.078783e-02 -1.883593e-01 -4.069199e-01 -4.991340e-01 -7.348112e-01 -5.631344e-01 -5.065091e-01 -1.148153e+00 -2.879501e-01 8.624729e-01 1.156351e+00 1.266096e+00 1.133755e+00 8.456751e-01 4.633844e-01 
-4.168921e-14 -2.701500e-01 -4.422441e-01 -5.300807e-01 -4.154989e-01 -3.347082e-01 -1.032432e-01 -4.843138e-01 1.144777e+00 7.897363e-01 3.809068e-01 6.041934e-01 3.354583e-01 2.917932e-01 1.093446e-01 4.897452e-02 3.237455e-15 -4.897452e-02 -1.093446e-01 -2.917932e-01 -3.354583e-01 -6.041934e-01 -3.809068e-01 -7.897363e-01 -1.144777e+00 4.843138e-01 1.032432e-01 3.347082e-01 4.154989e-01 5.300807e-01 4.422441e-01 2.701500e-01 
-4.353878e-14 -9.931558e-02 -1.178750e-01 -9.718187e-02 1.281532e-01 1.557143e-01 5.819805e-01 -4.494937e-01 4.179293e-01 1.072377e+00 3.425845e-01 4.049990e-01 2.174749e-01 1.532196e-01 2.946068e-02 -7.762891e-03 5.381447e-15 7.762891e-03 -2.946068e-02 -1.532196e-01 -2.174749e-01 -4.049990e-01 -3.425845e-01 -1.072377e+00 -4.179293e-01 4.494937e-01 -5.819805e-01 -1.557143e-01 -1.281532e-01 9.718187e-02 1.178750e-01 9.931558e-02 
-3.505828e-14 4.456369e-02 1.200142e-01 2.146767e-01 3.669398e-01 4.146354e-01 5.502608e-01 3.938105e-01 -3.957190e-01 9.622790e-01 6.885222e-01 2.619077e-01 1.943778e-01 9.685972e-02 7.066402e-03 -2.835719e-02 7.674648e-16 2.835719e-02 -7.066402e-03 -9.685972e-02 -1.943778e-01 -2.619077e-01 -6.885222e-01 -9.622790e-01 3.957190e-01 -3.938105e-01 -5.502608e-01 -4.146354e-01 -3.669398e-01 -2.146767e-01 -1.200142e-01 -4.456369e-02 
-2.443260e-14 1.368043e-01 2.634338e-01 3.890320e-01 4.669320e-01 5.551290e-01 4.058371e-01 7.532871e-01 -3.332576e-01 3.877425e-01 8.643839e-01 5.216608e-01 6.433660e-01 4.046504e-01 1.644972e-01 6.027448e-02 -3.308655e-15 -6.027448e-02 -1.644972e-01 -4.046504e-01 -6.433660e-01 -5.216608e-01 -8.643839e-01 -3.877425e-01 3.332576e-01 -7.532871e-01 -4.058371e-01 -5.551290e-01 -4.669320e-01 -3.890320e-01 -2.634338e-01 -1.368043e-01 
-1.481528e-15 1.860066e-01 3.368361e-01 4.621956e-01 5.011324e-01 5.456918e-01 3.906449e-01 4.576223e-01 4.557586e-03 -2.460827e-01 3.668783e-01 4.014998e-01 7.378334e-01 1.257587e+00 1.196252e+00 7.030235e-01 -1.565456e-13 -7.030235e-01 -1.196252e+00 -1.257587e+00 -7.378334e-01 -4.014998e-01 -3.668783e-01 2.460827e-01 -4.557586e-03 -4.576223e-01 -3.906449e-01 -5.456918e-01 -5.011324e-01 -4.621956e-01 -3.368361e-01 -1.860066e-01 
2.441808e-15 1.992790e-01 3.520688e-01 4.685323e-01 4.834397e-01 4.966394e-01 3.629784e-01 3.167648e-01 2.117619e-01 -2.169660e-02 4.464493e-01 2.332608e-01 -2.788168e-01 7.292151e-02 5.754969e-01 5.350247e-01 -2.650967e-13 -5.350247e-01 -5.754969e-01 -7.292151e-02 2.788168e-01 -2.332608e-01 -4.464493e-01 2.169660e-02 -2.117619e-01 -3.167648e-01 -3.629784e-01 -4.966394e-01 -4.834397e-01 -4.685323e-01 -3.520688e-01 -1.992790e-01 
2.050973e-14 1.879884e-01 3.286987e-01 4.282835e-01 4.315434e-01 4.278741e-01 3.161926e-01 2.595628e-01 1.444597e-01 9.482377e-02 4.308029e-01 7.156291e-01 3.012843e-01 -7.591880e-01 -9.217077e-01 -4.776296e-01 -3.347089e-14 4.776296e-01 9.217077e-01 7.591880e-01 -3.012843e-01 -7.156291e-01 -4.308029e-01 -9.482377e-02 -1.444597e-01 -2.595628e-01 -3.161926e-01 -4.278741e-01 -4.315434e-01 -4.282835e-01 -3.286987e-01 -1.879884e-01 
1.554037e-14 1.595446e-01 2.758657e-01 3.532448e-01 3.469208e-01 3.309962e-01 2.389182e-01 1.741384e-01 6.038484e-02 -4.911523e-02 2.366973e-02 5.527572e-01 1.367096e+00 1.146725e+00 4.537893e-01 -1.551918e-02 -3.205998e-14 1.551918e-02 -4.537893e-01 -1.146725e+00 -1.367096e+00 -5.527572e-01 -2.366973e-02 4.911523e-02 -6.038484e-02 -1.741384e-01 -2.389182e-01 -3.309962e-01 -3.469208e-01 -3.532448e-01 -2.758657e-01 -1.595446e-01 
2.269587e-14 1.227378e-01 2.088858e-01 2.621640e-01 2.471410e-01 2.242757e-01 1.448332e-01 8.758368e-02 -4.260449e-03 -9.706659e-02 -2.046053e-01 -1.563177e-01 3.558828e-01 8.608818e-01 9.705564e-01 4.789086e-01 5.406125e-15 -4.789086e-01 -9.705564e-01 -8.608818e-01 -3.558828e-01 1.563177e-01 2.046053e-01 9.706659e-02 4.260449e-03 -8.758368e-02 -1.448332e-01 -2.242757e-01 -2.471410e-01 -2.621640e-01 -2.088858e-01 -1.227378e-01 
1.292143e-14 8.226473e-02 1.353591e-01 1.629744e-01 1.372914e-01 1.048329e-01 3.165824e-02 -2.557526e-02 -1.016085e-01 -1.626190e-01 -2.186461e-01 -2.333045e-01 -1.957663e-01 -8.615813e-02 1.990203e-01 1.869909e-01 8.974587e-14 -1.869909e-01 -1.990203e-01 8.615813e-02 1.957663e-01 2.333045e-01 2.186461e-01 1.626190e-01 1.016085e-01 2.557526e-02 -3.165824e-02 -1.048329e-01 -1.372914e-01 -1.629744e-01 -1.353591e-01 -8.226473e-02 
1.303597e-14 4.492494e-02 6.710717e-02 6.972132e-02 2.945058e-02 -1.889058e-02 -1.018948e-01 -1.772798e-01 -2.673969e-01 -3.436801e-01 -3.993921e-01 -4.211718e-01 -3.527023e-01 -2.342979e-01 -7.514693e-02 -8.536163e-03 6.264076e-14 8.536163e-03 7.514693e-02 2.342979e-01 3.527023e-01 4.211718e-01 3.993921e-01 3.436801e-01 2.673969e-01 1.772798e-01 1.018948e-01 1.889058e-02 -2.945058e-02 -6.972132e-02 -6.710717e-02 -4.492494e-02 
5.620385e-15 1.231514e-02 6.458102e-03 -1.545997e-02 -7.470692e-02 -1.461064e-01 -2.529114e-01 -3.623768e-01 -4.906087e-01 -6.070180e-01 -7.058660e-01 -7.653138e-01 -7.636680e-01 -6.954879e-01 -4.827823e-01 -2.173041e-01 8.495189e-15 2.173041e-01 4.827823e-01 6.954879e-01 7.636680e-01 7.653138e-01 7.058660e-01 6.070180e-01 4.906087e-01 3.623768e-01 2.529114e-01 1.461064e-01 7.470692e-02 1.545997e-02 -6.458102e-03 -1.231514e-02 
4.475421e-15 -1.161844e-02 -3.880953e-02 -8.133466e-02 -1.595519e-01 -2.565689e-01 -3.933018e-01 -5.449233e-01 -7.191198e-01 -8.866855e-01 -1.028819e+00 -1.121976e+00 -1.130199e+00 -1.039658e+00 -8.151630e-01 -4.355368e-01 -2.185769e-15 4.355368e-01 8.151630e-01 1.039658e+00 1.130199e+00 1.121976e+00 1.028819e+00 8.866855e-01 7.191198e-01 5.449233e-01 3.933018e-01 2.565689e-01 1.595519e-01 8.133466e-02 3.880953e-02 1.161844e-02 
1.433805e-15 -2.750781e-02 -6.963543e-02 -1.273867e-01 -2.219344e-01 -3.408548e-01 -5.059881e-01 -6.946947e-01 -9.127540e-01 -1.126179e+00 -1.315710e+00 -1.448871e+00 -1.488820e+00 -1.402791e+00 -1.127841e+00 -6.324917e-01 9.734256e-15 6.324917e-01 1.127841e+00 1.402791e+00 1.488820e+00 1.448871e+00 1.315710e+00 1.126179e+00 9.127540e-01 6.946947e-01 5.059881e-01 3.408548e-01 2.219344e-01 1.273867e-01 6.963543e-02 2.750781e-02 
