# vtk DataFile Version 2.0
Comment goes here
ASCII

DATASET STRUCTURED_POINTS
FIELD FieldData 1
TIME 1 1 double
0.42000000
DIMENSIONS    32   32   1

ORIGIN    0.000   0.000   0.000
SPACING   0.03125 0.03125   1.000

POINT_DATA   1024
SCALARS uX double
LOOKUP_TABLE default

2.539420e-15 -3.335654e-02 -7.397493e-02 -1.128641e-01 -1.705870e-01 -2.229487e-01 -3.012016e-01 -3.730844e-01 -4.777528e-01 -5.837986e-01 -7.295550e-01 -8.739771e-01 -1.015351e+00 -1.075210e+00 -9.977576e-01 -6.881361e-01 -1.729511e-14 6.881361e-01 9.977576e-01 1.075210e+00 1.015351e+00 8.739771e-01 7.295550e-01 5.837986e-01 4.777528e-01 3.730844e-01 3.012016e-01 2.229487e-01 1.705870e-01 1.128641e-01 7.397493e-02 3.335654e-02 
6.790174e-16 -3.166094e-02 -7.101589e-02 -1.086226e-01 -1.656609e-01 -2.164816e-01 -2.924581e-01 -3.591944e-01 -4.546039e-01 -5.446858e-01 -6.694677e-01 -7.880270e-01 -9.158467e-01 -9.735266e-01 -9.230115e-01 -6.404056e-01 -1.011265e-14 6.404056e-01 9.230115e-01 9.735266e-01 9.158467e-01 7.880270e-01 6.694677e-01 5.446858e-01 4.546039e-01 3.591944e-01 2.924581e-01 2.164816e-01 1.656609e-01 1.086226e-01 7.101589e-02 3.166094e-02 
5.374352e-15 -2.740379e-02 -6.360673e-02 -9.924319e-02 -1.560849e-01 -2.061887e-01 -2.813346e-01 -3.423351e-01 -4.259182e-01 -4.930003e-01 -5.844310e-01 -6.680213e-01 -7.635393e-01 -8.053341e-01 -7.813340e-01 -5.234491e-01 -2.308692e-15 5.234491e-01 7.813340e-01 8.053341e-01 7.635393e-01 6.680213e-01 5.844310e-01 4.930003e-01 4.259182e-01 3.423351e-01 2.813346e-01 2.061887e-01 1.560849e-01 9.924319e-02 6.360673e-02 2.740379e-02 
2.396338e-15 -1.930512e-02 -5.001156e-02 -8.210834e-02 -1.398622e-01 -1.899969e-01 -2.662112e-01 -3.213299e-01 -3.876844e-01 -4.187448e-01 -4.469072e-01 -4.409002e-01 -4.572126e-01 -4.549748e-01 -4.704326e-01 -2.486214e-01 8.752423e-15 2.486214e-01 4.704326e-01 4.549748e-01 4.572126e-01 4.409002e-01 4.469072e-01 4.187448e-01 3.876844e-01 3.213299e-01 2.662112e-01 1.899969e-01 1.398622e-01 8.210834e-02 5.001156e-02 1.930512e-02 
7.008475e-15 -7.076890e-03 -2.940016e-02 -5.815285e-02 -1.190674e-01 -1.734230e-01 -2.579965e-01 -3.136190e-01 -3.732433e-01 -3.790819e-01 -3.711363e-01 -3.295608e-01 -2.737409e-01 -2.140657e-01 -1.494080e-01 6.184034e-02 1.053470e-14 -6.184034e-02 1.494080e-01 2.140657e-01 2.737409e-01 3.295608e-01 3.711363e-01 3.790819e-01 3.732433e-01 3.136190e-01 2.579965e-01 1.734230e-01 1.190674e-01 5.815285e-02 2.940016e-02 7.076890e-03 
3.203129e-15 1.125346e-02 3.535107e-04 -2.478353e-02 -9.483314e-02 -1.610900e-01 -2.695329e-01 -3.450068e-01 -4.166467e-01 -4.296761e-01 -3.756986e-01 -2.270581e-01 -6.717580e-02 6.736019e-02 2.996013e-01 3.893706e-01 3.997152e-15 -3.893706e-01 -2.996013e-01 -6.736019e-02 6.717580e-02 2.270581e-01 3.756986e-01 4.296761e-01 4.166467e-01 3.450068e-01 2.695329e-01 1.610900e-01 9.483314e-02 2.478353e-02 -3.535107e-04 -1.125346e-02 
7.442512e-15 3.660042e-02 4.292723e-02 2.020533e-02 -6.122444e-02 -1.466070e-01 -2.894745e-01 -3.895443e-01 -4.781844e-01 -4.804490e-01 -4.816233e-01 -4.597340e-01 -3.083682e-01 8.836513e-05 4.111042e-01 3.721869e-01 -4.495142e-15 -3.721869e-01 -4.111042e-01 -8.836513e-05 3.083682e-01 4.597340e-01 4.816233e-01 4.804490e-01 4.781844e-01 3.895443e-01 2.894745e-01 1.466070e-01 6.122444e-02 -2.020533e-02 -4.292723e-02 -3.660042e-02 
2.637105e-15 7.037783e-02 9.967229e-02 8.172560e-02 -1.639894e-02 -1.258345e-01 -3.311916e-01 -4.986613e-01 -7.244298e-01 -9.398491e-01 -9.135459e-01 -5.045227e-01 2.952420e-02 3.699803e-01 4.282627e-01 1.669269e-01 -5.561802e-15 -1.669269e-01 -4.282627e-01 -3.699803e-01 -2.952420e-02 5.045227e-01 9.135459e-01 9.398491e-01 7.244298e-01 4.986613e-01 3.311916e-01 1.258345e-01 1.639894e-02 -8.172560e-02 -9.967229e-02 -7.037783e-02 
6.805129e-15 1.082744e-01 1.688116e-01 1.533602e-01 4.561753e-02 -9.911531e-02 -4.030922e-01 -7.160172e-01 -1.008217e+00 -8.295185e-01 -3.650597e-01 5.771231e-02 2.882910e-01 2.364428e-01 1.004474e-01 -3.057334e-03 -4.743774e-14 3.057334e-03 -1.004474e-01 -2.364428e-01 -2.882910e-01 -5.771231e-02 3.650597e-01 8.295185e-01 1.008217e+00 7.160172e-01 4.030922e-01 9.911531e-02 -4.561753e-02 -1.533602e-01 -1.688116e-01 -1.082744e-01 
3.560558e-15 1.454965e-01 2.429760e-01 2.378579e-01 1.371381e-01 -1.784258e-02 -4.486378e-01 -8.187959e-01 -7.951199e-01 -1.233083e-02 1.939232e-01 2.393646e-02 -1.150109e-01 -1.707743e-01 -9.920850e-03 6.220116e-02 -7.019569e-14 -6.220116e-02 9.920850e-03 1.707743e-01 1.150109e-01 -2.393646e-02 -1.939232e-01 1.233083e-02 7.951199e-01 8.187959e-01 4.486378e-01 1.784258e-02 -1.371381e-01 -2.378579e-01 -2.429760e-01 -1.454965e-01 
7.631599e-15 1.672396e-01 3.048332e-01 3.069914e-01 2.671120e-01 1.152508e-01 -4.962967e-01 -7.098703e-01 -4.107499e-04 4.551050e-01 3.680777e-01 6.577379e-01 1.008430e+00 1.201872e+00 1.029280e+00 5.659248e-01 -3.149370e-14 -5.659248e-01 -1.029280e+00 -1.201872e+00 -1.008430e+00 -6.577379e-01 -3.680777e-01 -4.551050e-01 4.107499e-04 7.098703e-01 4.962967e-01 -1.152508e-01 -2.671120e-01 -3.069914e-01 -3.048332e-01 -1.672396e-01 
1.083813e-14 1.564717e-01 3.250862e-01 3.270575e-01 3.979958e-01 1.492275e-01 -9.127864e-01 -1.100850e-01 9.845472e-01 9.976189e-01 1.119026e+00 1.095856e+00 9.310016e-01 8.230104e-01 5.585437e-01 2.755583e-01 5.552287e-15 -2.755583e-01 -5.585437e-01 -8.230104e-01 -9.310016e-01 -1.095856e+00 -1.119026e+00 -9.976189e-01 -9.845472e-01 1.100850e-01 9.127864e-01 -1.492275e-01 -3.979958e-01 -3.270575e-01 -3.250862e-01 -1.564717e-01 
7.776084e-15 9.244692e-02 2.543804e-01 1.998490e-01 4.882955e-01 -3.254851e-01 -9.393510e-01 1.300068e+00 1.319935e+00 1.003180e+00 5.559517e-01 2.770967e-01 2.603896e-02 -8.196396e-02 -1.193862e-01 -7.151883e-02 6.430192e-15 7.151883e-02 1.193862e-01 8.196396e-02 -2.603896e-02 -2.770967e-01 -5.559517e-01 -1.003180e+00 -1.319935e+00 -1.300068e+00 9.393510e-01 3.254851e-01 -4.882955e-01 -1.998490e-01 -2.543804e-01 -9.244692e-02 
2.109019e-14 -3.472689e-02 7.079534e-02 -7.233119e-02 4.657628e-01 -8.200143e-01 6.582301e-01 2.434495e+00 1.034417e+00 6.448977e-01 9.195903e-02 9.055074e-02 6.173336e-02 4.755524e-02 -1.249266e-02 -3.160996e-02 6.893752e-15 3.160996e-02 1.249266e-02 -4.755524e-02 -6.173336e-02 -9.055074e-02 -9.195903e-02 -6.448977e-01 -1.034417e+00 -2.434495e+00 -6.582301e-01 8.200143e-01 -4.657628e-01 7.233119e-02 -7.079534e-02 3.472689e-02 
-1.227598e-14 -1.698026e-01 -2.632770e-01 -2.155320e-01 2.676147e-04 -3.516789e-02 2.071592e+00 1.544865e+00 7.093410e-01 5.714075e-01 5.734400e-01 3.977667e-01 1.780058e-01 2.338063e-02 -6.645763e-02 -7.195848e-02 9.888200e-15 7.195848e-02 6.645763e-02 -2.338063e-02 -1.780058e-01 -3.977667e-01 -5.734400e-01 -5.714075e-01 -7.093410e-01 -1.544865e+00 -2.071592e+00 3.516789e-02 -2.676147e-04 2.155320e-01 2.632770e-01 1.698026e-01 
3.759798e-14 -2.979065e-01 -6.178559e-01 -3.587953e-01 -5.841415e-01 1.382032e+00 1.862588e+00 1.857795e-02 7.595205e-01 7.027700e-01 1.000711e+00 7.501650e-01 5.329869e-01 2.913695e-01 1.294500e-01 2.657995e-02 6.745778e-15 -2.657995e-02 -1.294500e-01 -2.913695e-01 -5.329869e-01 -7.501650e-01 -1.000711e+00 -7.027700e-01 -7.595205e-01 -1.857795e-02 -1.862588e+00 -1.382032e+00 5.841415e-01 3.587953e-01 6.178559e-01 2.979065e-01 
-2.596263e-14 -3.671993e-01 -7.553621e-01 -5.020919e-01 -7.592447e-01 1.964421e+00 1.493109e+00 -3.740112e-01 9.911464e-01 8.885129e-01 1.339117e+00 1.007982e+00 7.051160e-01 3.543704e-01 1.492656e-01 2.819951e-02 1.451266e-14 -2.819951e-02 -1.492656e-01 -3.543704e-01 -7.051160e-01 -1.007982e+00 -1.339117e+00 -8.885129e-01 -9.911464e-01 3.740112e-01 -1.493109e+00 -1.964421e+00 7.592447e-01 5.020919e-01 7.553621e-01 3.671993e-01 
-3.605109e-14 -2.979065e-01 -6.178559e-01 -3.587953e-01 -5.841415e-01 1.382032e+00 1.862588e+00 1.857795e-02 7.595205e-01 7.027700e-01 1.000711e+00 7.501650e-01 5.329869e-01 2.913695e-01 1.294500e-01 2.657995e-02 1.144412e-14 -2.657995e-02 -1.294500e-01 -2.913695e-01 -5.329869e-01 -7.501650e-01 -1.000711e+00 -7.027700e-01 -7.595205e-01 -1.857795e-02 -1.862588e+00 -1.382032e+00 5.841415e-01 3.587953e-01 6.178559e-01 2.979065e-01 
-1.469349e-14 -1.698026e-01 -2.632770e-01 -2.155320e-01 2.676147e-04 -3.516789e-02 2.071592e+00 1.544865e+00 7.093410e-01 5.714075e-01 5.734400e-01 3.977667e-01 1.780058e-01 2.338063e-02 -6.645763e-02 -7.195848e-02 2.940592e-14 7.195848e-02 6.645763e-02 -2.338063e-02 -1.780058e-01 -3.977667e-01 -5.734400e-01 -5.714075e-01 -7.093410e-01 -1.544865e+00 -2.071592e+00 3.516789e-02 -2.676147e-04 2.155320e-01 2.632770e-01 1.698026e-01 
-1.911531e-14 -3.472689e-02 7.079534e-02 -7.233119e-02 4.657628e-01 -8.200143e-01 6.582301e-01 2.434495e+00 1.034417e+00 6.448977e-01 9.195903e-02 9.055074e-02 6.173336e-02 4.755524e-02 -1.249266e-02 -3.160996e-02 2.740740e-14 3.160996e-02 1.249266e-02 -4.755524e-02 -6.173336e-02 -9.055074e-02 -9.195903e-02 -6.448977e-01 -1.034417e+00 -2.434495e+00 -6.582301e-01 8.200143e-01 -4.657628e-01 7.233119e-02 -7.079534e-02 3.472689e-02 
-2.535207e-15 9.244692e-02 2.543804e-01 1.998490e-01 4.882955e-01 -3.254851e-01 -9.393510e-01 1.300068e+00 1.319935e+00 1.003180e+00 5.559517e-01 2.770967e-01 2.603896e-02 -8.196396e-02 -1.193862e-01 -7.151883e-02 3.636049e-14 7.151883e-02 1.193862e-01 8.196396e-02 -2.603896e-02 -2.770967e-01 -5.559517e-01 -1.003180e+00 -1.319935e+00 -1.300068e+00 9.393510e-01 3.254851e-01 -4.882955e-01 -1.998490e-01 -2.543804e-01 -9.244692e-02 
-1.384721e-15 1.564717e-01 3.250862e-01 3.270575e-01 3.979958e-01 1.492275e-01 -9.127864e-01 -1.100850e-01 9.845472e-01 9.976189e-01 1.119026e+00 1.095856e+00 9.310016e-01 8.230104e-01 5.585437e-01 2.755583e-01 5.366324e-15 -2.755583e-01 -5.585437e-01 -8.230104e-01 -9.310016e-01 -1.095856e+00 -1.119026e+00 -9.976189e-01 -9.845472e-01 1.100850e-01 9.127864e-01 -1.492275e-01 -3.979958e-01 -3.270575e-01 -3.250862e-01 -1.564717e-01 
9.438919e-15 1.672396e-01 3.048332e-01 3.069914e-01 2.671120e-01 1.152508e-01 -4.962967e-01 -7.098703e-01 -4.107499e-04 4.551050e-01 3.680777e-01 6.577379e-01 1.008430e+00 1.201872e+00 1.029280e+00 5.659248e-01 -1.214675e-13 -5.659248e-01 -1.029280e+00 -1.201872e+00 -1.008430e+00 -6.577379e-01 -3.680777e-01 -4.551050e-01 4.107499e-04 7.098703e-01 4.962967e-01 -1.152508e-01 -2.671120e-01 -3.069914e-01 -3.048332e-01 -1.672396e-01 
7.400502e-16 1.454965e-01 2.429760e-01 2.378579e-01 1.371381e-01 -1.784258e-02 -4.486378e-01 -8.187959e-01 -7.951199e-01 -1.233083e-02 1.939232e-01 2.393646e-02 -1.150109e-01 -1.707743e-01 -9.920850e-03 6.220116e-02 -1.329374e-13 -6.220116e-02 9.920850e-03 1.707743e-01 1.150109e-01 -2.393646e-02 -1.939232e-01 1.233083e-02 7.951199e-01 8.187959e-01 4.486378e-01 1.784258e-02 -1.371381e-01 -2.378579e-01 -2.429760e-01 -1.454965e-01 
8.307249e-15 1.082744e-01 1.688116e-01 1.533602e-01 4.561753e-02 -9.911531e-02 -4.030922e-01 -7.160172e-01 -1.008217e+00 -8.295185e-01 -3.650597e-01 5.771231e-02 2.882910e-01 2.364428e-01 1.004474e-01 -3.057334e-03 2.391823e-14 3.057334e-03 -1.004474e-01 -2.364428e-01 -2.882910e-01 -5.771231e-02 3.650597e-01 8.295185e-01 1.008217e+00 7.160172e-01 4.030922e-01 9.911531e-02 -4.561753e-02 -1.533602e-01 -1.688116e-01 -1.082744e-01 
-2.891009e-15 7.037783e-02 9.967229e-02 8.172560e-02 -1.639894e-02 -1.258345e-01 -3.311916e-01 -4.986613e-01 -7.244298e-01 -9.398491e-01 -9.135459e-01 -5.045227e-01 2.952420e-02 3.699803e-01 4.282627e-01 1.669269e-01 9.795863e-14 -1.669269e-01 -4.282627e-01 -3.699803e-01 -2.952420e-02 5.045227e-01 9.135459e-01 9.398491e-01 7.244298e-01 4.986613e-01 3.311916e-01 1.258345e-01 1.639894e-02 -8.172560e-02 -9.967229e-02 -7.037783e-02 
3.167744e-15 3.660042e-02 4.292723e-02 2.020533e-02 -6.122444e-02 -1.466070e-01 -2.894745e-01 -3.895443e-01 -4.781844e-01 -4.804490e-01 -4.816233e-01 -4.597340e-01 -3.083682e-01 8.836513e-05 4.111042e-01 3.721869e-01 6.724602e-14 -3.721869e-01 -4.111042e-01 -8.836513e-05 3.083682e-01 4.597340e-01 4.816233e-01 4.804490e-01 4.781844e-01 3.895443e-01 2.894745e-01 1.466070e-01 6.122444e-02 -2.020533e-02 -4.292723e-02 -3.660042e-02 
-5.125410e-15 1.125346e-02 3.535107e-04 -2.478353e-02 -9.483314e-02 -1.610900e-01 -2.695329e-01 -3.450068e-01 -4.166467e-01 -4.296761e-01 -3.756986e-01 -2.270581e-01 -6.717580e-02 6.736019e-02 2.996013e-01 3.893706e-01 4.166170e-14 -3.893706e-01 -2.996013e-01 -6.736019e-02 6.717580e-02 2.270581e-01 3.756986e-01 4.296761e-01 4.166467e-01 3.450068e-01 2.695329e-01 1.610900e-01 9.483314e-02 2.478353e-02 -3.535107e-04 -1.125346e-02 
4.762249e-16 -7.076890e-03 -2.940016e-02 -5.815285e-02 -1.190674e-01 -1.734230e-01 -2.579965e-01 -3.136190e-01 -3.732433e-01 -3.790819e-01 -3.711363e-01 -3.295608e-01 -2.737409e-01 -2.140657e-01 -1.494080e-01 6.184034e-02 3.103932e-14 -6.184034e-02 1.494080e-01 2.140657e-01 2.737409e-01 3.295608e-01 3.711363e-01 3.790819e-01 3.732433e-01 3.136190e-01 2.579965e-01 1.734230e-01 1.190674e-01 5.815285e-02 2.940016e-02 7.076890e-03 
-5.024865e-15 -1.930512e-02 -5.001156e-02 -8.210834e-02 -1.398622e-01 -1.899969e-01 -2.662112e-01 -3.213299e-01 -3.876844e-01 -4.187448e-01 -4.469072e-01 -4.409002e-01 -4.572126e-01 -4.549748e-01 -4.704326e-01 -2.486214e-01 2.387532e-14 2.486214e-01 4.704326e-01 4.549748e-01 4.572126e-01 4.409002e-01 4.469072e-01 4.187448e-01 3.876844e-01 3.213299e-01 2.662112e-01 1.899969e-01 1.398622e-01 8.210834e-02 5.001156e-02 1.930512e-02 
9.941964e-17 -2.740379e-02 -6.360673e-02 -9.924319e-02 -1.560849e-01 -2.061887e-01 -2.813346e-01 -3.423351e-01 -4.259182e-01 -4.930003e-01 -5.844310e-01 -6.680213e-01 -7.635393e-01 -8.053341e-01 -7.813340e-01 -5.234491e-01 5.761952e-15 5.234491e-01 7.813340e-01 8.053341e-01 7.635393e-01 6.680213e-01 5.844310e-01 4.930003e-01 4.259182e-01 3.423351e-01 2.813346e-01 2.061887e-01 1.560849e-01 9.924319e-02 6.360673e-02 2.740379e-02 
-2.932432e-15 -3.166094e-02 -7.101589e-02 -1.086226e-01 -1.656609e-01 -2.164816e-01 -2.924581e-01 -3.591944e-01 -4.546039e-01 -5.446858e-01 -6.694677e-01 -7.880270e-01 -9.158467e-01 -9.735266e-01 -9.230115e-01 -6.404056e-01 -1.062971e-14 6.404056e-01 9.230115e-01 9.735266e-01 9.158467e-01 7.880270e-01 6.694677e-01 5.446858e-01 4.546039e-01 3.591944e-01 2.924581e-01 2.164816e-01 1.656609e-01 1.086226e-01 7.101589e-02 3.166094e-02 
