# vtk DataFile Version 2.0
Comment goes here
ASCII

DATASET STRUCTURED_POINTS
FIELD FieldData 1
TIME 1 1 double
1.12000000
DIMENSIONS    32   32   1

ORIGIN    0.000   0.000   0.000
SPACING   0.03125 0.03125   1.000

POINT_DATA   1024
SCALARS uX double
LOOKUP_TABLE default

-3.938767e-14 2.670865e-02 3.995274e-02 1.676859e-02 -3.698019e-02 -1.453489e-01 -2.819926e-01 -4.652862e-01 -6.498795e-01 -8.470554e-01 -1.001498e+00 -1.126490e+00 -1.157049e+00 -1.107252e+00 -8.899370e-01 -5.128037e-01 2.187444e-13 5.128037e-01 8.899370e-01 1.107252e+00 1.157049e+00 1.126490e+00 1.001498e+00 8.470554e-01 6.498795e-01 4.652862e-01 2.819926e-01 1.453489e-01 3.698019e-02 -1.676859e-02 -3.995274e-02 -2.670865e-02 
-4.568534e-14 3.541686e-02 5.749911e-02 4.406162e-02 1.407779e-03 -9.326134e-02 -2.139188e-01 -3.791360e-01 -5.449084e-01 -7.256086e-01 -8.660237e-01 -9.865771e-01 -1.020952e+00 -9.896946e-01 -8.138287e-01 -4.701986e-01 9.565662e-14 4.701986e-01 8.138287e-01 9.896946e-01 1.020952e+00 9.865771e-01 8.660237e-01 7.256086e-01 5.449084e-01 3.791360e-01 2.139188e-01 9.326134e-02 -1.407779e-03 -4.406162e-02 -5.749911e-02 -3.541686e-02 
-4.340788e-14 5.591585e-02 9.838633e-02 1.047427e-01 8.455013e-02 1.444057e-02 -7.598753e-02 -2.084601e-01 -3.390769e-01 -4.840418e-01 -5.951013e-01 -6.901818e-01 -7.171186e-01 -7.128365e-01 -5.775634e-01 -3.334152e-01 9.454073e-15 3.334152e-01 5.775634e-01 7.128365e-01 7.171186e-01 6.901818e-01 5.951013e-01 4.840418e-01 3.390769e-01 2.084601e-01 7.598753e-02 -1.444057e-02 -8.455013e-02 -1.047427e-01 -9.838633e-02 -5.591585e-02 
-4.260828e-14 8.812763e-02 1.621719e-01 1.996819e-01 2.133211e-01 1.819624e-01 1.380761e-01 5.928029e-02 -1.341549e-02 -1.006427e-01 -1.602489e-01 -2.270355e-01 -2.442842e-01 -3.088874e-01 -3.119845e-01 -1.908383e-01 -1.282134e-14 1.908383e-01 3.119845e-01 3.088874e-01 2.442842e-01 2.270355e-01 1.602489e-01 1.006427e-01 1.341549e-02 -5.928029e-02 -1.380761e-01 -1.819624e-01 -2.133211e-01 -1.996819e-01 -1.621719e-01 -8.812763e-02 
-3.466634e-14 1.251345e-01 2.346895e-01 3.038479e-01 3.501880e-01 3.504523e-01 3.465071e-01 3.081029e-01 2.806626e-01 2.372367e-01 2.038963e-01 1.738757e-01 1.532481e-01 5.132470e-02 5.947981e-02 5.295983e-02 9.572940e-14 -5.295983e-02 -5.947981e-02 -5.132470e-02 -1.532481e-01 -1.738757e-01 -2.038963e-01 -2.372367e-01 -2.806626e-01 -3.081029e-01 -3.465071e-01 -3.504523e-01 -3.501880e-01 -3.038479e-01 -2.346895e-01 -1.251345e-01 
-2.533609e-14 1.606964e-01 3.040185e-01 4.031360e-01 4.788554e-01 5.085557e-01 5.407205e-01 5.471492e-01 5.697954e-01 5.906008e-01 6.104815e-01 6.313766e-01 7.154503e-01 5.189975e-01 2.775756e-01 1.466209e-01 1.893195e-13 -1.466209e-01 -2.775756e-01 -5.189975e-01 -7.154503e-01 -6.313766e-01 -6.104815e-01 -5.906008e-01 -5.697954e-01 -5.471492e-01 -5.407205e-01 -5.085557e-01 -4.788554e-01 -4.031360e-01 -3.040185e-01 -1.606964e-01 
-7.838771e-15 1.912196e-01 3.633690e-01 4.866201e-01 5.858412e-01 6.319366e-01 6.895856e-01 7.102067e-01 7.648303e-01 8.024581e-01 8.182209e-01 9.512132e-01 9.495166e-01 8.966630e-01 1.251973e+00 9.523454e-01 6.695212e-13 -9.523454e-01 -1.251973e+00 -8.966630e-01 -9.495166e-01 -9.512132e-01 -8.182209e-01 -8.024581e-01 -7.648303e-01 -7.102067e-01 -6.895856e-01 -6.319366e-01 -5.858412e-01 -4.866201e-01 -3.633690e-01 -1.912196e-01 
1.002024e-14 2.041192e-01 3.883170e-01 5.207790e-01 6.300141e-01 6.823761e-01 7.547333e-01 7.939430e-01 8.788106e-01 9.991226e-01 1.006440e+00 1.425483e+00 1.804914e+00 2.442267e+00 2.328081e+00 1.061070e+00 5.726563e-13 -1.061070e+00 -2.328081e+00 -2.442267e+00 -1.804914e+00 -1.425483e+00 -1.006440e+00 -9.991226e-01 -8.788106e-01 -7.939430e-01 -7.547333e-01 -6.823761e-01 -6.300141e-01 -5.207790e-01 -3.883170e-01 -2.041192e-01 
4.451966e-14 2.042258e-01 3.878923e-01 5.227757e-01 6.358756e-01 6.918907e-01 7.826853e-01 8.135271e-01 9.568434e-01 9.953300e-01 1.162551e+00 1.674231e+00 1.720235e+00 1.186705e+00 -2.088652e-01 -5.817595e-01 -4.646182e-13 5.817595e-01 2.088652e-01 -1.186705e+00 -1.720235e+00 -1.674231e+00 -1.162551e+00 -9.953300e-01 -9.568434e-01 -8.135271e-01 -7.826853e-01 -6.918907e-01 -6.358756e-01 -5.227757e-01 -3.878923e-01 -2.042258e-01 
7.289609e-14 1.742880e-01 3.296430e-01 4.402328e-01 5.329155e-01 5.638490e-01 6.486104e-01 6.412280e-01 8.664218e-01 9.194351e-01 8.562845e-01 5.109882e-01 -3.958881e-01 -1.314922e+00 -1.179926e+00 -2.817817e-01 -4.482092e-13 2.817817e-01 1.179926e+00 1.314922e+00 3.958881e-01 -5.109882e-01 -8.562845e-01 -9.194351e-01 -8.664218e-01 -6.412280e-01 -6.486104e-01 -5.638490e-01 -5.329155e-01 -4.402328e-01 -3.296430e-01 -1.742880e-01 
1.284436e-13 1.283064e-01 2.406755e-01 3.310663e-01 3.999243e-01 4.392012e-01 5.224979e-01 5.448153e-01 8.207246e-01 3.405744e-01 -1.004630e-01 -3.140517e-01 -6.223799e-01 -2.247957e-01 3.278019e-01 4.582576e-01 -8.527314e-14 -4.582576e-01 -3.278019e-01 2.247957e-01 6.223799e-01 3.140517e-01 1.004630e-01 -3.405744e-01 -8.207246e-01 -5.448153e-01 -5.224979e-01 -4.392012e-01 -3.999243e-01 -3.310663e-01 -2.406755e-01 -1.283064e-01 
1.559875e-13 4.649632e-02 8.666927e-02 1.279943e-01 1.465021e-01 1.355833e-01 1.081794e-01 -6.040376e-02 -5.271680e-02 -9.629851e-01 -4.554060e-01 -2.106528e-01 -3.963061e-01 1.286444e-01 4.685449e-02 -2.939598e-03 1.176505e-13 2.939598e-03 -4.685449e-02 -1.286444e-01 3.963061e-01 2.106528e-01 4.554060e-01 9.629851e-01 5.271680e-02 6.040376e-02 -1.081794e-01 -1.355833e-01 -1.465021e-01 -1.279943e-01 -8.666927e-02 -4.649632e-02 
2.098752e-13 -5.552633e-02 -1.032313e-01 -1.015761e-01 -1.292188e-01 -1.020336e-01 -2.562222e-01 -2.742331e-01 -8.611058e-01 -9.813475e-01 1.698235e-01 -4.785850e-01 -6.036568e-01 -2.668780e-01 -1.779394e-01 -1.135196e-01 2.456302e-13 1.135196e-01 1.779394e-01 2.668780e-01 6.036568e-01 4.785850e-01 -1.698235e-01 9.813475e-01 8.611058e-01 2.742331e-01 2.562222e-01 1.020336e-01 1.292188e-01 1.015761e-01 1.032313e-01 5.552633e-02 
2.004602e-13 -1.885117e-01 -3.468372e-01 -4.040328e-01 -4.609580e-01 -3.687302e-01 -5.325611e-01 -3.123710e-01 -1.238573e+00 -4.311664e-01 -7.799097e-02 -7.779833e-01 -2.319646e-01 -2.876703e-01 -2.057638e-01 -1.626292e-01 1.558945e-13 1.626292e-01 2.057638e-01 2.876703e-01 2.319646e-01 7.779833e-01 7.799097e-02 4.311664e-01 1.238573e+00 3.123710e-01 5.325611e-01 3.687302e-01 4.609580e-01 4.040328e-01 3.468372e-01 1.885117e-01 
1.996140e-13 -3.516922e-01 -6.511112e-01 -8.406969e-01 -9.607089e-01 -9.597894e-01 -1.004156e+00 -9.099609e-01 -1.131077e+00 -1.515933e-01 -6.099553e-01 -7.077882e-01 -2.357809e-01 -3.272050e-01 -1.833029e-01 -1.413230e-01 8.854700e-14 1.413230e-01 1.833029e-01 3.272050e-01 2.357809e-01 7.077882e-01 6.099553e-01 1.515933e-01 1.131077e+00 9.099609e-01 1.004156e+00 9.597894e-01 9.607089e-01 8.406969e-01 6.511112e-01 3.516922e-01 
1.240114e-13 -5.206327e-01 -9.814815e-01 -1.331853e+00 -1.542058e+00 -1.610335e+00 -1.443840e+00 -1.289690e+00 -4.654143e-01 -2.887558e-01 -9.135366e-01 -3.655995e-01 -2.309691e-01 -1.887342e-01 -1.410085e-01 -9.930357e-02 1.548188e-14 9.930357e-02 1.410085e-01 1.887342e-01 2.309691e-01 3.655995e-01 9.135366e-01 2.887558e-01 4.654143e-01 1.289690e+00 1.443840e+00 1.610335e+00 1.542058e+00 1.331853e+00 9.814815e-01 5.206327e-01 
-1.368897e-14 -6.218757e-01 -1.181293e+00 -1.630328e+00 -1.895923e+00 -1.986848e+00 -1.727827e+00 -1.502709e+00 -3.337224e-01 -6.701778e-01 -1.096447e+00 -9.093715e-02 -1.310780e-01 -9.870250e-02 -9.323139e-02 -7.428733e-02 -1.001787e-13 7.428733e-02 9.323139e-02 9.870250e-02 1.310780e-01 9.093715e-02 1.096447e+00 6.701778e-01 3.337224e-01 1.502709e+00 1.727827e+00 1.986848e+00 1.895923e+00 1.630328e+00 1.181293e+00 6.218757e-01 
-1.420724e-13 -5.206327e-01 -9.814815e-01 -1.331853e+00 -1.542058e+00 -1.610335e+00 -1.443840e+00 -1.289690e+00 -4.654143e-01 -2.887558e-01 -9.135366e-01 -3.655995e-01 -2.309691e-01 -1.887342e-01 -1.410085e-01 -9.930357e-02 -1.644285e-13 9.930357e-02 1.410085e-01 1.887342e-01 2.309691e-01 3.655995e-01 9.135366e-01 2.887558e-01 4.654143e-01 1.289690e+00 1.443840e+00 1.610335e+00 1.542058e+00 1.331853e+00 9.814815e-01 5.206327e-01 
-2.400077e-13 -3.516922e-01 -6.511112e-01 -8.406969e-01 -9.607089e-01 -9.597894e-01 -1.004156e+00 -9.099609e-01 -1.131077e+00 -1.515933e-01 -6.099553e-01 -7.077882e-01 -2.357809e-01 -3.272050e-01 -1.833029e-01 -1.413230e-01 -3.385542e-13 1.413230e-01 1.833029e-01 3.272050e-01 2.357809e-01 7.077882e-01 6.099553e-01 1.515933e-01 1.131077e+00 9.099609e-01 1.004156e+00 9.597894e-01 9.607089e-01 8.406969e-01 6.511112e-01 3.516922e-01 
-2.410101e-13 -1.885117e-01 -3.468372e-01 -4.040328e-01 -4.609580e-01 -3.687302e-01 -5.325611e-01 -3.123710e-01 -1.238573e+00 -4.311664e-01 -7.799097e-02 -7.779833e-01 -2.319646e-01 -2.876703e-01 -2.057638e-01 -1.626292e-01 -3.591886e-13 1.626292e-01 2.057638e-01 2.876703e-01 2.319646e-01 7.779833e-01 7.799097e-02 4.311664e-01 1.238573e+00 3.123710e-01 5.325611e-01 3.687302e-01 4.609580e-01 4.040328e-01 3.468372e-01 1.885117e-01 
-2.642548e-13 -5.552633e-02 -1.032313e-01 -1.015761e-01 -1.292188e-01 -1.020336e-01 -2.562222e-01 -2.742331e-01 -8.611058e-01 -9.813475e-01 1.698235e-01 -4.785850e-01 -6.036568e-01 -2.668780e-01 -1.779394e-01 -1.135196e-01 -4.879660e-13 1.135196e-01 1.779394e-01 2.668780e-01 6.036568e-01 4.785850e-01 -1.698235e-01 9.813475e-01 8.611058e-01 2.742331e-01 2.562222e-01 1.020336e-01 1.292188e-01 1.015761e-01 1.032313e-01 5.552633e-02 
-2.036945e-13 4.649632e-02 8.666927e-02 1.279943e-01 1.465021e-01 1.355833e-01 1.081794e-01 -6.040376e-02 -5.271680e-02 -9.629851e-01 -4.554060e-01 -2.106528e-01 -3.963061e-01 1.286444e-01 4.685449e-02 -2.939598e-03 1.126966e-13 2.939598e-03 -4.685449e-02 -1.286444e-01 3.963061e-01 2.106528e-01 4.554060e-01 9.629851e-01 5.271680e-02 6.040376e-02 -1.081794e-01 -1.355833e-01 -1.465021e-01 -1.279943e-01 -8.666927e-02 -4.649632e-02 
-1.775222e-13 1.283064e-01 2.406755e-01 3.310663e-01 3.999243e-01 4.392012e-01 5.224979e-01 5.448153e-01 8.207246e-01 3.405744e-01 -1.004630e-01 -3.140517e-01 -6.223799e-01 -2.247957e-01 3.278019e-01 4.582576e-01 1.289116e-12 -4.582576e-01 -3.278019e-01 2.247957e-01 6.223799e-01 3.140517e-01 1.004630e-01 -3.405744e-01 -8.207246e-01 -5.448153e-01 -5.224979e-01 -4.392012e-01 -3.999243e-01 -3.310663e-01 -2.406755e-01 -1.283064e-01 
-1.169083e-13 1.742880e-01 3.296430e-01 4.402328e-01 5.329155e-01 5.638490e-01 6.486104e-01 6.412280e-01 8.664218e-01 9.194351e-01 8.562845e-01 5.109882e-01 -3.958881e-01 -1.314922e+00 -1.179926e+00 -2.817817e-01 1.120571e-12 2.817817e-01 1.179926e+00 1.314922e+00 3.958881e-01 -5.109882e-01 -8.562845e-01 -9.194351e-01 -8.664218e-01 -6.412280e-01 -6.486104e-01 -5.638490e-01 -5.329155e-01 -4.402328e-01 -3.296430e-01 -1.742880e-01 
-8.627904e-14 2.042258e-01 3.878923e-01 5.227757e-01 6.358756e-01 6.918907e-01 7.826853e-01 8.135271e-01 9.568434e-01 9.953300e-01 1.162551e+00 1.674231e+00 1.720235e+00 1.186705e+00 -2.088652e-01 -5.817595e-01 2.932641e-14 5.817595e-01 2.088652e-01 -1.186705e+00 -1.720235e+00 -1.674231e+00 -1.162551e+00 -9.953300e-01 -9.568434e-01 -8.135271e-01 -7.826853e-01 -6.918907e-01 -6.358756e-01 -5.227757e-01 -3.878923e-01 -2.042258e-01 
-5.667241e-14 2.041192e-01 3.883170e-01 5.207790e-01 6.300141e-01 6.823761e-01 7.547333e-01 7.939430e-01 8.788106e-01 9.991226e-01 1.006440e+00 1.425483e+00 1.804914e+00 2.442267e+00 2.328081e+00 1.061070e+00 -1.919876e-12 -1.061070e+00 -2.328081e+00 -2.442267e+00 -1.804914e+00 -1.425483e+00 -1.006440e+00 -9.991226e-01 -8.788106e-01 -7.939430e-01 -7.547333e-01 -6.823761e-01 -6.300141e-01 -5.207790e-01 -3.883170e-01 -2.041192e-01 
-3.721739e-14 1.912196e-01 3.633690e-01 4.866201e-01 5.858412e-01 6.319366e-01 6.895856e-01 7.102067e-01 7.648303e-01 8.024581e-01 8.182209e-01 9.512132e-01 9.495166e-01 8.966630e-01 1.251973e+00 9.523454e-01 -1.778105e-12 -9.523454e-01 -1.251973e+00 -8.966630e-01 -9.495166e-01 -9.512132e-01 -8.182209e-01 -8.024581e-01 -7.648303e-01 -7.102067e-01 -6.895856e-01 -6.319366e-01 -5.858412e-01 -4.866201e-01 -3.633690e-01 -1.912196e-01 
-3.236312e-14 1.606964e-01 3.040185e-01 4.031360e-01 4.788554e-01 5.085557e-01 5.407205e-01 5.471492e-01 5.697954e-01 5.906008e-01 6.104815e-01 6.313766e-01 7.154503e-01 5.189975e-01 2.775756e-01 1.466209e-01 -5.289977e-13 -1.466209e-01 -2.775756e-01 -5.189975e-01 -7.154503e-01 -6.313766e-01 -6.104815e-01 -5.906008e-01 -5.697954e-01 -5.471492e-01 -5.407205e-01 -5.085557e-01 -4.788554e-01 -4.031360e-01 -3.040185e-01 -1.606964e-01 
-2.388729e-14 1.251345e-01 2.346895e-01 3.038479e-01 3.501880e-01 3.504523e-01 3.465071e-01 3.081029e-01 2.806626e-01 2.372367e-01 2.038963e-01 1.738757e-01 1.532481e-01 5.132470e-02 5.947981e-02 5.295983e-02 -1.930959e-13 -5.295983e-02 -5.947981e-02 -5.132470e-02 -1.532481e-01 -1.738757e-01 -2.038963e-01 -2.372367e-01 -2.806626e-01 -3.081029e-01 -3.465071e-01 -3.504523e-01 -3.501880e-01 -3.038479e-01 -2.346895e-01 -1.251345e-01 
-3.229455e-14 8.812763e-02 1.621719e-01 1.996819e-01 2.133211e-01 1.819624e-01 1.380761e-01 5.928029e-02 -1.341549e-02 -1.006427e-01 -1.602489e-01 -2.270355e-01 -2.442842e-01 -3.088874e-01 -3.119845e-01 -1.908383e-01 2.702376e-13 1.908383e-01 3.119845e-01 3.088874e-01 2.442842e-01 2.270355e-01 1.602489e-01 1.006427e-01 1.341549e-02 -5.928029e-02 -1.380761e-01 -1.819624e-01 -2.133211e-01 -1.996819e-01 -1.621719e-01 -8.812763e-02 
-3.016326e-14 5.591585e-02 9.838633e-02 1.047427e-01 8.455013e-02 1.444057e-02 -7.598753e-02 -2.084601e-01 -3.390769e-01 -4.840418e-01 -5.951013e-01 -6.901818e-01 -7.171186e-01 -7.128365e-01 -5.775634e-01 -3.334152e-01 3.858534e-13 3.334152e-01 5.775634e-01 7.128365e-01 7.171186e-01 6.901818e-01 5.951013e-01 4.840418e-01 3.390769e-01 2.084601e-01 7.598753e-02 -1.444057e-02 -8.455013e-02 -1.047427e-01 -9.838633e-02 -5.591585e-02 
-4.030376e-14 3.541686e-02 5.749911e-02 4.406162e-02 1.407779e-03 -9.326134e-02 -2.139188e-01 -3.791360e-01 -5.449084e-01 -7.256086e-01 -8.660237e-01 -9.865771e-01 -1.020952e+00 -9.896946e-01 -8.138287e-01 -4.701986e-01 3.677838e-13 4.701986e-01 8.138287e-01 9.896946e-01 1.020952e+00 9.865771e-01 8.660237e-01 7.256086e-01 5.449084e-01 3.791360e-01 2.139188e-01 9.326134e-02 -1.407779e-03 -4.406162e-02 -5.749911e-02 -3.541686e-02 
