# vtk DataFile Version 2.0
Comment goes here
ASCII

DATASET STRUCTURED_POINTS
FIELD FieldData 1
TIME 1 1 double
0.56000000
DIMENSIONS    32   32   1

ORIGIN    0.000   0.000   0.000
SPACING   0.03125 0.03125   1.000

POINT_DATA   1024
SCALARS uX double
LOOKUP_TABLE default

-2.689132e-15 3.709324e-02 6.950998e-02 8.382317e-02 8.911608e-02 5.606388e-02 1.764201e-02 -8.905033e-02 -1.896803e-01 -3.914910e-01 -5.491309e-01 -7.986309e-01 -9.176327e-01 -1.033839e+00 -9.089776e-01 -6.465095e-01 6.028306e-15 6.465095e-01 9.089776e-01 1.033839e+00 9.176327e-01 7.986309e-01 5.491309e-01 3.914910e-01 1.896803e-01 8.905033e-02 -1.764201e-02 -5.606388e-02 -8.911608e-02 -8.382317e-02 -6.950998e-02 -3.709324e-02 
1.206343e-16 4.073349e-02 7.623590e-02 9.471676e-02 1.034460e-01 7.719084e-02 4.624236e-02 -4.651918e-02 -1.304124e-01 -3.089589e-01 -4.436166e-01 -6.751430e-01 -7.903708e-01 -9.241004e-01 -8.393550e-01 -6.139493e-01 2.579440e-15 6.139493e-01 8.393550e-01 9.241004e-01 7.903708e-01 6.751430e-01 4.436166e-01 3.089589e-01 1.304124e-01 4.651918e-02 -4.624236e-02 -7.719084e-02 -1.034460e-01 -9.471676e-02 -7.623590e-02 -4.073349e-02 
1.211968e-15 4.976002e-02 9.248889e-02 1.185775e-01 1.322648e-01 1.153215e-01 9.429902e-02 2.191241e-02 -3.435294e-02 -1.758249e-01 -2.625658e-01 -4.685894e-01 -5.630909e-01 -7.109662e-01 -6.888434e-01 -5.300141e-01 8.378926e-15 5.300141e-01 6.888434e-01 7.109662e-01 5.630909e-01 4.685894e-01 2.625658e-01 1.758249e-01 3.435294e-02 -2.191241e-02 -9.429902e-02 -1.153215e-01 -1.322648e-01 -1.185775e-01 -9.248889e-02 -4.976002e-02 
3.050039e-15 6.545136e-02 1.202663e-01 1.599131e-01 1.813442e-01 1.809529e-01 1.746200e-01 1.352781e-01 1.183239e-01 3.831144e-02 3.115099e-02 -1.081119e-01 -1.453255e-01 -3.124157e-01 -3.834583e-01 -3.062460e-01 1.483305e-14 3.062460e-01 3.834583e-01 3.124157e-01 1.453255e-01 1.081119e-01 -3.115099e-02 -3.831144e-02 -1.183239e-01 -1.352781e-01 -1.746200e-01 -1.809529e-01 -1.813442e-01 -1.599131e-01 -1.202663e-01 -6.545136e-02 
3.032929e-15 8.774726e-02 1.590222e-01 2.141709e-01 2.412936e-01 2.534871e-01 2.527427e-01 2.361707e-01 2.379728e-01 2.012943e-01 2.594149e-01 1.286411e-01 1.893440e-01 9.399409e-02 3.502921e-02 4.593498e-02 2.688121e-14 -4.593498e-02 -3.502921e-02 -9.399409e-02 -1.893440e-01 -1.286411e-01 -2.594149e-01 -2.012943e-01 -2.379728e-01 -2.361707e-01 -2.527427e-01 -2.534871e-01 -2.412936e-01 -2.141709e-01 -1.590222e-01 -8.774726e-02 
3.398576e-15 1.147871e-01 2.043665e-01 2.765226e-01 3.053676e-01 3.290620e-01 3.274073e-01 3.306404e-01 3.410770e-01 3.494089e-01 4.832932e-01 4.419314e-01 6.385359e-01 4.610560e-01 5.636087e-01 4.974913e-01 1.601776e-14 -4.974913e-01 -5.636087e-01 -4.610560e-01 -6.385359e-01 -4.419314e-01 -4.832932e-01 -3.494089e-01 -3.410770e-01 -3.306404e-01 -3.274073e-01 -3.290620e-01 -3.053676e-01 -2.765226e-01 -2.043665e-01 -1.147871e-01 
1.047313e-15 1.484102e-01 2.607643e-01 3.515736e-01 3.800418e-01 4.104381e-01 3.996569e-01 4.109561e-01 4.078963e-01 4.624468e-01 5.747456e-01 3.418441e-01 5.269861e-01 6.881735e-01 1.236948e+00 8.666706e-01 -8.233510e-15 -8.666706e-01 -1.236948e+00 -6.881735e-01 -5.269861e-01 -3.418441e-01 -5.747456e-01 -4.624468e-01 -4.078963e-01 -4.109561e-01 -3.996569e-01 -4.104381e-01 -3.800418e-01 -3.515736e-01 -2.607643e-01 -1.484102e-01 
2.982075e-15 1.777626e-01 3.071088e-01 4.122431e-01 4.308245e-01 4.652924e-01 4.371206e-01 4.427649e-01 4.060591e-01 3.763961e-01 3.721817e-01 6.520786e-01 1.252992e+00 1.428878e+00 1.344924e+00 5.592479e-01 -4.794770e-16 -5.592479e-01 -1.344924e+00 -1.428878e+00 -1.252992e+00 -6.520786e-01 -3.721817e-01 -3.763961e-01 -4.060591e-01 -4.427649e-01 -4.371206e-01 -4.652924e-01 -4.308245e-01 -4.122431e-01 -3.071088e-01 -1.777626e-01 
3.072796e-15 2.038593e-01 3.478060e-01 4.676307e-01 4.784085e-01 5.208147e-01 4.801083e-01 4.457577e-01 3.061958e-01 3.873495e-01 5.880555e-01 1.238479e+00 1.149195e+00 7.431223e-01 1.246668e-01 -6.014750e-02 -2.998824e-14 6.014750e-02 -1.246668e-01 -7.431223e-01 -1.149195e+00 -1.238479e+00 -5.880555e-01 -3.873495e-01 -3.061958e-01 -4.457577e-01 -4.801083e-01 -5.208147e-01 -4.784085e-01 -4.676307e-01 -3.478060e-01 -2.038593e-01 
1.014722e-14 2.053323e-01 3.412680e-01 4.590706e-01 4.453447e-01 5.082916e-01 4.367305e-01 3.234879e-01 5.806908e-02 2.902908e-01 2.577683e-01 1.000330e-01 -5.267199e-01 -4.033699e-01 -3.188784e-01 4.711490e-02 -4.631041e-14 -4.711490e-02 3.188784e-01 4.033699e-01 5.267199e-01 -1.000330e-01 -2.577683e-01 -2.902908e-01 -5.806908e-02 -3.234879e-01 -4.367305e-01 -5.082916e-01 -4.453447e-01 -4.590706e-01 -3.412680e-01 -2.053323e-01 
1.647825e-14 1.867844e-01 2.979658e-01 4.108889e-01 3.776407e-01 4.806711e-01 3.063642e-01 -2.007490e-01 -1.921732e-01 1.737046e-01 -1.029176e-01 -1.147394e-01 1.314441e-01 5.124172e-01 5.144719e-01 3.630167e-01 -1.368057e-14 -3.630167e-01 -5.144719e-01 -5.124172e-01 -1.314441e-01 1.147394e-01 1.029176e-01 -1.737046e-01 1.921732e-01 2.007490e-01 -3.063642e-01 -4.806711e-01 -3.776407e-01 -4.108889e-01 -2.979658e-01 -1.867844e-01 
3.057602e-14 1.184162e-01 1.681113e-01 2.274799e-01 1.289669e-01 1.956729e-01 -4.850280e-01 -1.071136e+00 -1.928656e-01 3.032887e-03 -3.132179e-02 1.533966e-02 1.505348e-01 2.056645e-01 1.144111e-01 7.068353e-02 4.203061e-15 -7.068353e-02 -1.144111e-01 -2.056645e-01 -1.505348e-01 -1.533966e-02 3.132179e-02 -3.032887e-03 1.928656e-01 1.071136e+00 4.850280e-01 -1.956729e-01 -1.289669e-01 -2.274799e-01 -1.681113e-01 -1.184162e-01 
3.909649e-14 5.581815e-03 -3.427176e-02 -3.793511e-02 -2.020628e-01 -1.579769e-01 -1.298780e+00 -6.130907e-01 6.555939e-01 -2.533043e-01 -3.804287e-01 -5.660864e-01 -5.010552e-01 -4.315793e-01 -3.361991e-01 -1.429759e-01 -4.068467e-15 1.429759e-01 3.361991e-01 4.315793e-01 5.010552e-01 5.660864e-01 3.804287e-01 2.533043e-01 -6.555939e-01 6.130907e-01 1.298780e+00 1.579769e-01 2.020628e-01 3.793511e-02 3.427176e-02 -5.581815e-03 
4.805303e-14 -1.692239e-01 -3.088569e-01 -4.541612e-01 -5.251556e-01 -7.366328e-01 -1.117052e+00 4.499280e-01 5.967935e-01 -5.280498e-01 -6.059637e-01 -5.376552e-01 -4.473667e-01 -3.568440e-01 -3.018652e-01 -1.599104e-01 -2.514145e-15 1.599104e-01 3.018652e-01 3.568440e-01 4.473667e-01 5.376552e-01 6.059637e-01 5.280498e-01 -5.967935e-01 -4.499280e-01 1.117052e+00 7.366328e-01 5.251556e-01 4.541612e-01 3.088569e-01 1.692239e-01 
4.015141e-14 -3.882942e-01 -6.458021e-01 -9.401593e-01 -8.502270e-01 -1.231398e+00 -3.183544e-01 2.171004e-01 -6.735535e-01 -5.592857e-01 -4.676880e-01 -2.949974e-01 -4.448987e-01 -3.469024e-01 -3.429521e-01 -1.743749e-01 -1.313455e-14 1.743749e-01 3.429521e-01 3.469024e-01 4.448987e-01 2.949974e-01 4.676880e-01 5.592857e-01 6.735535e-01 -2.171004e-01 3.183544e-01 1.231398e+00 8.502270e-01 9.401593e-01 6.458021e-01 3.882942e-01 
2.536931e-14 -5.532591e-01 -9.084999e-01 -1.175785e+00 -1.070138e+00 -1.019830e+00 1.799592e-01 -5.644441e-01 -1.197045e+00 -2.204314e-01 -6.349200e-02 1.115275e-01 -1.322794e-01 -9.886838e-02 -1.793865e-01 -9.443190e-02 -1.048966e-14 9.443190e-02 1.793865e-01 9.886838e-02 1.322794e-01 -1.115275e-01 6.349200e-02 2.204314e-01 1.197045e+00 5.644441e-01 -1.799592e-01 1.019830e+00 1.070138e+00 1.175785e+00 9.084999e-01 5.532591e-01 
-5.904713e-16 -6.247908e-01 -1.025457e+00 -1.253318e+00 -1.203835e+00 -8.387787e-01 1.502842e-01 -9.470651e-01 -1.225478e+00 -8.126968e-02 1.318989e-01 2.695270e-01 -5.821516e-02 -6.267948e-02 -1.772660e-01 -8.971048e-02 -2.349290e-14 8.971048e-02 1.772660e-01 6.267948e-02 5.821516e-02 -2.695270e-01 -1.318989e-01 8.126968e-02 1.225478e+00 9.470651e-01 -1.502842e-01 8.387787e-01 1.203835e+00 1.253318e+00 1.025457e+00 6.247908e-01 
-5.576017e-14 -5.532591e-01 -9.084999e-01 -1.175785e+00 -1.070138e+00 -1.019830e+00 1.799592e-01 -5.644441e-01 -1.197045e+00 -2.204314e-01 -6.349200e-02 1.115275e-01 -1.322794e-01 -9.886838e-02 -1.793865e-01 -9.443190e-02 -2.176540e-14 9.443190e-02 1.793865e-01 9.886838e-02 1.322794e-01 -1.115275e-01 6.349200e-02 2.204314e-01 1.197045e+00 5.644441e-01 -1.799592e-01 1.019830e+00 1.070138e+00 1.175785e+00 9.084999e-01 5.532591e-01 
-5.035118e-14 -3.882942e-01 -6.458021e-01 -9.401593e-01 -8.502270e-01 -1.231398e+00 -3.183544e-01 2.171004e-01 -6.735535e-01 -5.592857e-01 -4.676880e-01 -2.949974e-01 -4.448987e-01 -3.469024e-01 -3.429521e-01 -1.743749e-01 -3.392319e-14 1.743749e-01 3.429521e-01 3.469024e-01 4.448987e-01 2.949974e-01 4.676880e-01 5.592857e-01 6.735535e-01 -2.171004e-01 3.183544e-01 1.231398e+00 8.502270e-01 9.401593e-01 6.458021e-01 3.882942e-01 
-3.636060e-14 -1.692239e-01 -3.088569e-01 -4.541612e-01 -5.251556e-01 -7.366328e-01 -1.117052e+00 4.499280e-01 5.967935e-01 -5.280498e-01 -6.059637e-01 -5.376552e-01 -4.473667e-01 -3.568440e-01 -3.018652e-01 -1.599104e-01 -3.666774e-14 1.599104e-01 3.018652e-01 3.568440e-01 4.473667e-01 5.376552e-01 6.059637e-01 5.280498e-01 -5.967935e-01 -4.499280e-01 1.117052e+00 7.366328e-01 5.251556e-01 4.541612e-01 3.088569e-01 1.692239e-01 
-2.793514e-14 5.581815e-03 -3.427176e-02 -3.793511e-02 -2.020628e-01 -1.579769e-01 -1.298780e+00 -6.130907e-01 6.555939e-01 -2.533043e-01 -3.804287e-01 -5.660864e-01 -5.010552e-01 -4.315793e-01 -3.361991e-01 -1.429759e-01 -4.082884e-14 1.429759e-01 3.361991e-01 4.315793e-01 5.010552e-01 5.660864e-01 3.804287e-01 2.533043e-01 -6.555939e-01 6.130907e-01 1.298780e+00 1.579769e-01 2.020628e-01 3.793511e-02 3.427176e-02 -5.581815e-03 
-9.316105e-15 1.184162e-01 1.681113e-01 2.274799e-01 1.289669e-01 1.956729e-01 -4.850280e-01 -1.071136e+00 -1.928656e-01 3.032887e-03 -3.132179e-02 1.533966e-02 1.505348e-01 2.056645e-01 1.144111e-01 7.068353e-02 -4.495412e-14 -7.068353e-02 -1.144111e-01 -2.056645e-01 -1.505348e-01 -1.533966e-02 3.132179e-02 -3.032887e-03 1.928656e-01 1.071136e+00 4.850280e-01 -1.956729e-01 -1.289669e-01 -2.274799e-01 -1.681113e-01 -1.184162e-01 
-3.430732e-15 1.867844e-01 2.979658e-01 4.108889e-01 3.776407e-01 4.806711e-01 3.063642e-01 -2.007490e-01 -1.921732e-01 1.737046e-01 -1.029176e-01 -1.147394e-01 1.314441e-01 5.124172e-01 5.144719e-01 3.630167e-01 1.357513e-13 -3.630167e-01 -5.144719e-01 -5.124172e-01 -1.314441e-01 1.147394e-01 1.029176e-01 -1.737046e-01 1.921732e-01 2.007490e-01 -3.063642e-01 -4.806711e-01 -3.776407e-01 -4.108889e-01 -2.979658e-01 -1.867844e-01 
1.316243e-15 2.053323e-01 3.412680e-01 4.590706e-01 4.453447e-01 5.082916e-01 4.367305e-01 3.234879e-01 5.806908e-02 2.902908e-01 2.577683e-01 1.000330e-01 -5.267199e-01 -4.033699e-01 -3.188784e-01 4.711490e-02 3.614751e-13 -4.711490e-02 3.188784e-01 4.033699e-01 5.267199e-01 -1.000330e-01 -2.577683e-01 -2.902908e-01 -5.806908e-02 -3.234879e-01 -4.367305e-01 -5.082916e-01 -4.453447e-01 -4.590706e-01 -3.412680e-01 -2.053323e-01 
1.485773e-15 2.038593e-01 3.478060e-01 4.676307e-01 4.784085e-01 5.208147e-01 4.801083e-01 4.457577e-01 3.061958e-01 3.873495e-01 5.880555e-01 1.238479e+00 1.149195e+00 7.431223e-01 1.246668e-01 -6.014750e-02 1.558764e-13 6.014750e-02 -1.246668e-01 -7.431223e-01 -1.149195e+00 -1.238479e+00 -5.880555e-01 -3.873495e-01 -3.061958e-01 -4.457577e-01 -4.801083e-01 -5.208147e-01 -4.784085e-01 -4.676307e-01 -3.478060e-01 -2.038593e-01 
-1.117926e-15 1.777626e-01 3.071088e-01 4.122431e-01 4.308245e-01 4.652924e-01 4.371206e-01 4.427649e-01 4.060591e-01 3.763961e-01 3.721817e-01 6.520786e-01 1.252992e+00 1.428878e+00 1.344924e+00 5.592479e-01 -2.428387e-13 -5.592479e-01 -1.344924e+00 -1.428878e+00 -1.252992e+00 -6.520786e-01 -3.721817e-01 -3.763961e-01 -4.060591e-01 -4.427649e-01 -4.371206e-01 -4.652924e-01 -4.308245e-01 -4.122431e-01 -3.071088e-01 -1.777626e-01 
-4.144136e-15 1.484102e-01 2.607643e-01 3.515736e-01 3.800418e-01 4.104381e-01 3.996569e-01 4.109561e-01 4.078963e-01 4.624468e-01 5.747456e-01 3.418441e-01 5.269861e-01 6.881735e-01 1.236948e+00 8.666706e-01 -2.247114e-13 -8.666706e-01 -1.236948e+00 -6.881735e-01 -5.269861e-01 -3.418441e-01 -5.747456e-01 -4.624468e-01 -4.078963e-01 -4.109561e-01 -3.996569e-01 -4.104381e-01 -3.800418e-01 -3.515736e-01 -2.607643e-01 -1.484102e-01 
-7.275423e-15 1.147871e-01 2.043665e-01 2.765226e-01 3.053676e-01 3.290620e-01 3.274073e-01 3.306404e-01 3.410770e-01 3.494089e-01 4.832932e-01 4.419314e-01 6.385359e-01 4.610560e-01 5.636087e-01 4.974913e-01 -5.442624e-14 -4.974913e-01 -5.636087e-01 -4.610560e-01 -6.385359e-01 -4.419314e-01 -4.832932e-01 -3.494089e-01 -3.410770e-01 -3.306404e-01 -3.274073e-01 -3.290620e-01 -3.053676e-01 -2.765226e-01 -2.043665e-01 -1.147871e-01 
-8.531238e-15 8.774726e-02 1.590222e-01 2.141709e-01 2.412936e-01 2.534871e-01 2.527427e-01 2.361707e-01 2.379728e-01 2.012943e-01 2.594149e-01 1.286411e-01 1.893440e-01 9.399409e-02 3.502921e-02 4.593498e-02 2.679430e-14 -4.593498e-02 -3.502921e-02 -9.399409e-02 -1.893440e-01 -1.286411e-01 -2.594149e-01 -2.012943e-01 -2.379728e-01 -2.361707e-01 -2.527427e-01 -2.534871e-01 -2.412936e-01 -2.141709e-01 -1.590222e-01 -8.774726e-02 
-8.596762e-15 6.545136e-02 1.202663e-01 1.599131e-01 1.813442e-01 1.809529e-01 1.746200e-01 1.352781e-01 1.183239e-01 3.831144e-02 3.115099e-02 -1.081119e-01 -1.453255e-01 -3.124157e-01 -3.834583e-01 -3.062460e-01 4.575474e-14 3.062460e-01 3.834583e-01 3.124157e-01 1.453255e-01 1.081119e-01 -3.115099e-02 -3.831144e-02 -1.183239e-01 -1.352781e-01 -1.746200e-01 -1.809529e-01 -1.813442e-01 -1.599131e-01 -1.202663e-01 -6.545136e-02 
-6.838751e-15 4.976002e-02 9.248889e-02 1.185775e-01 1.322648e-01 1.153215e-01 9.429902e-02 2.191241e-02 -3.435294e-02 -1.758249e-01 -2.625658e-01 -4.685894e-01 -5.630909e-01 -7.109662e-01 -6.888434e-01 -5.300141e-01 3.341743e-14 5.300141e-01 6.888434e-01 7.109662e-01 5.630909e-01 4.685894e-01 2.625658e-01 1.758249e-01 3.435294e-02 -2.191241e-02 -9.429902e-02 -1.153215e-01 -1.322648e-01 -1.185775e-01 -9.248889e-02 -4.976002e-02 
-5.097296e-15 4.073349e-02 7.623590e-02 9.471676e-02 1.034460e-01 7.719084e-02 4.624236e-02 -4.651918e-02 -1.304124e-01 -3.089589e-01 -4.436166e-01 -6.751430e-01 -7.903708e-01 -9.241004e-01 -8.393550e-01 -6.139493e-01 1.707155e-14 6.139493e-01 8.393550e-01 9.241004e-01 7.903708e-01 6.751430e-01 4.436166e-01 3.089589e-01 1.304124e-01 4.651918e-02 -4.624236e-02 -7.719084e-02 -1.034460e-01 -9.471676e-02 -7.623590e-02 -4.073349e-02 
