# vtk DataFile Version 2.0
Comment goes here
ASCII

DATASET STRUCTURED_POINTS
FIELD FieldData 1
TIME 1 1 double
0.94000000
DIMENSIONS    32   32   1

ORIGIN    0.000   0.000   0.000
SPACING   0.03125 0.03125   1.000

POINT_DATA   1024
SCALARS uX double
LOOKUP_TABLE default

2.926428e-15 -1.404664e-02 -4.366402e-02 -9.851496e-02 -1.913881e-01 -3.234388e-01 -4.975847e-01 -7.046161e-01 -9.272589e-01 -1.145994e+00 -1.326707e+00 -1.450545e+00 -1.474265e+00 -1.375784e+00 -1.103093e+00 -6.330001e-01 1.869888e-14 6.330001e-01 1.103093e+00 1.375784e+00 1.474265e+00 1.450545e+00 1.326707e+00 1.145994e+00 9.272589e-01 7.046161e-01 4.975847e-01 3.234388e-01 1.913881e-01 9.851496e-02 4.366402e-02 1.404664e-02 
-3.717631e-15 -6.967965e-03 -2.960879e-02 -7.680827e-02 -1.610483e-01 -2.819843e-01 -4.428876e-01 -6.347547e-01 -8.420570e-01 -1.048148e+00 -1.219663e+00 -1.342683e+00 -1.369985e+00 -1.285634e+00 -1.035603e+00 -5.852595e-01 4.607453e-14 5.852595e-01 1.035603e+00 1.285634e+00 1.369985e+00 1.342683e+00 1.219663e+00 1.048148e+00 8.420570e-01 6.347547e-01 4.428876e-01 2.819843e-01 1.610483e-01 7.680827e-02 2.960879e-02 6.967965e-03 
1.605577e-15 1.201853e-02 7.384984e-03 -2.134761e-02 -8.604055e-02 -1.821878e-01 -3.132586e-01 -4.684978e-01 -6.354908e-01 -7.984979e-01 -9.285528e-01 -1.014561e+00 -1.016923e+00 -9.337791e-01 -7.311221e-01 -4.021230e-01 4.592151e-14 4.021230e-01 7.311221e-01 9.337791e-01 1.016923e+00 1.014561e+00 9.285528e-01 7.984979e-01 6.354908e-01 4.684978e-01 3.132586e-01 1.821878e-01 8.604055e-02 2.134761e-02 -7.384984e-03 -1.201853e-02 
-4.548367e-15 4.162352e-02 6.441686e-02 6.295849e-02 2.534069e-02 -3.685426e-02 -1.280601e-01 -2.339905e-01 -3.480094e-01 -4.584301e-01 -5.433604e-01 -6.071054e-01 -6.004834e-01 -5.609791e-01 -4.411525e-01 -2.186319e-01 3.434403e-14 2.186319e-01 4.411525e-01 5.609791e-01 6.004834e-01 6.071054e-01 5.433604e-01 4.584301e-01 3.480094e-01 2.339905e-01 1.280601e-01 3.685426e-02 -2.534069e-02 -6.295849e-02 -6.441686e-02 -4.162352e-02 
7.500452e-17 7.861666e-02 1.342806e-01 1.627475e-01 1.503532e-01 1.167581e-01 5.621105e-02 -1.212874e-02 -8.604003e-02 -1.563800e-01 -2.041498e-01 -2.356380e-01 -1.842672e-01 -8.469836e-02 1.875317e-02 3.660507e-02 1.508400e-15 -3.660507e-02 -1.875317e-02 8.469836e-02 1.842672e-01 2.356380e-01 2.041498e-01 1.563800e-01 8.604003e-02 1.212874e-02 -5.621105e-02 -1.167581e-01 -1.503532e-01 -1.627475e-01 -1.342806e-01 -7.861666e-02 
-9.494037e-16 1.177000e-01 2.072216e-01 2.655841e-01 2.749368e-01 2.656644e-01 2.284733e-01 1.932683e-01 1.539454e-01 1.216471e-01 9.212177e-02 5.241660e-02 1.348665e-01 1.799764e-01 2.061010e-01 1.820060e-01 8.833984e-15 -1.820060e-01 -2.061010e-01 -1.799764e-01 -1.348665e-01 -5.241660e-02 -9.212177e-02 -1.216471e-01 -1.539454e-01 -1.932683e-01 -2.284733e-01 -2.656644e-01 -2.749368e-01 -2.655841e-01 -2.072216e-01 -1.177000e-01 
8.696447e-15 1.564418e-01 2.789725e-01 3.656366e-01 3.912377e-01 3.960609e-01 3.628286e-01 3.299168e-01 2.859426e-01 2.366701e-01 1.797362e-01 1.513157e-01 4.680214e-01 9.945797e-01 1.229247e+00 7.191790e-01 5.377165e-14 -7.191790e-01 -1.229247e+00 -9.945797e-01 -4.680214e-01 -1.513157e-01 -1.797362e-01 -2.366701e-01 -2.859426e-01 -3.299168e-01 -3.628286e-01 -3.960609e-01 -3.912377e-01 -3.656366e-01 -2.789725e-01 -1.564418e-01 
1.433024e-14 1.839044e-01 3.290788e-01 4.356297e-01 4.697901e-01 4.839037e-01 4.500997e-01 4.263335e-01 4.036835e-01 4.091965e-01 3.775728e-01 8.058290e-01 1.505828e+00 1.700785e+00 1.094795e+00 3.330055e-01 -1.947421e-14 -3.330055e-01 -1.094795e+00 -1.700785e+00 -1.505828e+00 -8.058290e-01 -3.775728e-01 -4.091965e-01 -4.036835e-01 -4.263335e-01 -4.500997e-01 -4.839037e-01 -4.697901e-01 -4.356297e-01 -3.290788e-01 -1.839044e-01 
2.910462e-14 2.016940e-01 3.620453e-01 4.860141e-01 5.291502e-01 5.586338e-01 5.203601e-01 4.886846e-01 4.320719e-01 3.673477e-01 4.422063e-01 1.035706e+00 7.972749e-01 -3.999014e-01 -1.219205e+00 -7.797825e-01 -6.561551e-14 7.797825e-01 1.219205e+00 3.999014e-01 -7.972749e-01 -1.035706e+00 -4.422063e-01 -3.673477e-01 -4.320719e-01 -4.886846e-01 -5.203601e-01 -5.586338e-01 -5.291502e-01 -4.860141e-01 -3.620453e-01 -2.016940e-01 
3.031302e-14 1.945234e-01 3.483652e-01 4.709049e-01 5.073045e-01 5.345446e-01 4.647154e-01 3.843759e-01 3.783549e-01 1.748166e-01 2.171593e-01 2.093136e-01 -5.120994e-01 -7.237462e-01 -1.327076e-01 2.336713e-01 1.616018e-14 -2.336713e-01 1.327076e-01 7.237462e-01 5.120994e-01 -2.093136e-01 -2.171593e-01 -1.748166e-01 -3.783549e-01 -3.843759e-01 -4.647154e-01 -5.345446e-01 -5.073045e-01 -4.709049e-01 -3.483652e-01 -1.945234e-01 
3.650741e-14 1.665912e-01 3.017293e-01 4.242952e-01 4.705943e-01 5.444821e-01 4.962091e-01 5.371386e-01 6.277562e-01 -1.805850e-02 3.695363e-01 2.038032e-01 2.475481e-01 8.935644e-01 1.140963e+00 7.682277e-01 -4.387156e-14 -7.682277e-01 -1.140963e+00 -8.935644e-01 -2.475481e-01 -2.038032e-01 -3.695363e-01 1.805850e-02 -6.277562e-01 -5.371386e-01 -4.962091e-01 -5.444821e-01 -4.705943e-01 -4.242952e-01 -3.017293e-01 -1.665912e-01 
1.362703e-14 1.018266e-01 1.903214e-01 2.941665e-01 3.361772e-01 4.490986e-01 3.132009e-01 4.749436e-01 -9.955606e-02 -3.995771e-01 5.939432e-01 2.471275e-01 3.081561e-01 3.824495e-01 1.912642e-01 5.255762e-02 2.942069e-14 -5.255762e-02 -1.912642e-01 -3.824495e-01 -3.081561e-01 -2.471275e-01 -5.939432e-01 3.995771e-01 9.955606e-02 -4.749436e-01 -3.132009e-01 -4.490986e-01 -3.361772e-01 -2.941665e-01 -1.903214e-01 -1.018266e-01 
1.661048e-15 -2.081123e-03 1.398437e-02 7.593468e-02 1.266861e-01 2.602800e-01 1.063668e-01 3.658049e-01 -9.059357e-01 2.445587e-01 7.634972e-01 1.959871e-02 7.741082e-02 -5.713792e-02 1.976205e-03 -5.740387e-02 5.770929e-14 5.740387e-02 -1.976205e-03 5.713792e-02 -7.741082e-02 -1.959871e-02 -7.634972e-01 -2.445587e-01 9.059357e-01 -3.658049e-01 -1.063668e-01 -2.602800e-01 -1.266861e-01 -7.593468e-02 -1.398437e-02 2.081123e-03 
-3.789296e-14 -1.423173e-01 -2.246130e-01 -2.329783e-01 -1.383586e-01 -5.668238e-03 1.216651e-01 9.053503e-02 -5.010298e-01 8.350118e-01 4.816599e-01 1.561105e-01 2.614311e-01 4.512435e-02 1.040456e-02 -4.462405e-02 1.896147e-14 4.462405e-02 -1.040456e-02 -4.512435e-02 -2.614311e-01 -1.561105e-01 -4.816599e-01 -8.350118e-01 5.010298e-01 -9.053503e-02 -1.216651e-01 5.668238e-03 1.383586e-01 2.329783e-01 2.246130e-01 1.423173e-01 
-4.750076e-14 -3.191527e-01 -5.444811e-01 -6.954314e-01 -6.363086e-01 -6.369937e-01 -3.099202e-01 -6.814882e-01 2.746590e-01 6.265061e-01 3.597979e-02 2.588513e-01 1.735406e-01 1.081822e-01 3.971140e-02 -2.555312e-03 1.316963e-14 2.555312e-03 -3.971140e-02 -1.081822e-01 -1.735406e-01 -2.588513e-01 -3.597979e-02 -6.265061e-01 -2.746590e-01 6.814882e-01 3.099202e-01 6.369937e-01 6.363086e-01 6.954314e-01 5.444811e-01 3.191527e-01 
-4.854859e-14 -4.902925e-01 -8.851821e-01 -1.219457e+00 -1.314142e+00 -1.408704e+00 -1.007207e+00 -7.007110e-01 8.546685e-01 3.654833e-01 5.663444e-04 4.789914e-01 2.722866e-01 2.620241e-01 1.068988e-01 4.727513e-02 -6.112371e-15 -4.727513e-02 -1.068988e-01 -2.620241e-01 -2.722866e-01 -4.789914e-01 -5.663444e-04 -3.654833e-01 -8.546685e-01 7.007110e-01 1.007207e+00 1.408704e+00 1.314142e+00 1.219457e+00 8.851821e-01 4.902925e-01 
-3.789937e-14 -5.742100e-01 -1.064168e+00 -1.497183e+00 -1.699956e+00 -1.790628e+00 -1.340009e+00 -4.142442e-01 9.413323e-01 1.417018e-01 1.020056e-02 6.123921e-01 3.490548e-01 3.341651e-01 1.424460e-01 6.870576e-02 -2.612556e-14 -6.870576e-02 -1.424460e-01 -3.341651e-01 -3.490548e-01 -6.123921e-01 -1.020056e-02 -1.417018e-01 -9.413323e-01 4.142442e-01 1.340009e+00 1.790628e+00 1.699956e+00 1.497183e+00 1.064168e+00 5.742100e-01 
2.661319e-14 -4.902925e-01 -8.851821e-01 -1.219457e+00 -1.314142e+00 -1.408704e+00 -1.007207e+00 -7.007110e-01 8.546685e-01 3.654833e-01 5.663444e-04 4.789914e-01 2.722866e-01 2.620241e-01 1.068988e-01 4.727513e-02 -3.291288e-14 -4.727513e-02 -1.068988e-01 -2.620241e-01 -2.722866e-01 -4.789914e-01 -5.663444e-04 -3.654833e-01 -8.546685e-01 7.007110e-01 1.007207e+00 1.408704e+00 1.314142e+00 1.219457e+00 8.851821e-01 4.902925e-01 
9.316407e-15 -3.191527e-01 -5.444811e-01 -6.954314e-01 -6.363086e-01 -6.369937e-01 -3.099202e-01 -6.814882e-01 2.746590e-01 6.265061e-01 3.597979e-02 2.588513e-01 1.735406e-01 1.081822e-01 3.971140e-02 -2.555312e-03 -7.176901e-14 2.555312e-03 -3.971140e-02 -1.081822e-01 -1.735406e-01 -2.588513e-01 -3.597979e-02 -6.265061e-01 -2.746590e-01 6.814882e-01 3.099202e-01 6.369937e-01 6.363086e-01 6.954314e-01 5.444811e-01 3.191527e-01 
3.728343e-14 -1.423173e-01 -2.246130e-01 -2.329783e-01 -1.383586e-01 -5.668238e-03 1.216651e-01 9.053503e-02 -5.010298e-01 8.350118e-01 4.816599e-01 1.561105e-01 2.614311e-01 4.512435e-02 1.040456e-02 -4.462405e-02 -6.886673e-14 4.462405e-02 -1.040456e-02 -4.512435e-02 -2.614311e-01 -1.561105e-01 -4.816599e-01 -8.350118e-01 5.010298e-01 -9.053503e-02 -1.216651e-01 5.668238e-03 1.383586e-01 2.329783e-01 2.246130e-01 1.423173e-01 
-7.959286e-15 -2.081123e-03 1.398437e-02 7.593468e-02 1.266861e-01 2.602800e-01 1.063668e-01 3.658049e-01 -9.059357e-01 2.445587e-01 7.634972e-01 1.959871e-02 7.741082e-02 -5.713792e-02 1.976205e-03 -5.740387e-02 -1.373034e-13 5.740387e-02 -1.976205e-03 5.713792e-02 -7.741082e-02 -1.959871e-02 -7.634972e-01 -2.445587e-01 9.059357e-01 -3.658049e-01 -1.063668e-01 -2.602800e-01 -1.266861e-01 -7.593468e-02 -1.398437e-02 2.081123e-03 
-5.149113e-15 1.018266e-01 1.903214e-01 2.941665e-01 3.361772e-01 4.490986e-01 3.132009e-01 4.749436e-01 -9.955606e-02 -3.995771e-01 5.939432e-01 2.471275e-01 3.081561e-01 3.824495e-01 1.912642e-01 5.255762e-02 -1.212538e-13 -5.255762e-02 -1.912642e-01 -3.824495e-01 -3.081561e-01 -2.471275e-01 -5.939432e-01 3.995771e-01 9.955606e-02 -4.749436e-01 -3.132009e-01 -4.490986e-01 -3.361772e-01 -2.941665e-01 -1.903214e-01 -1.018266e-01 
-2.663663e-14 1.665912e-01 3.017293e-01 4.242952e-01 4.705943e-01 5.444821e-01 4.962091e-01 5.371386e-01 6.277562e-01 -1.805850e-02 3.695363e-01 2.038032e-01 2.475481e-01 8.935644e-01 1.140963e+00 7.682277e-01 -2.878246e-14 -7.682277e-01 -1.140963e+00 -8.935644e-01 -2.475481e-01 -2.038032e-01 -3.695363e-01 1.805850e-02 -6.277562e-01 -5.371386e-01 -4.962091e-01 -5.444821e-01 -4.705943e-01 -4.242952e-01 -3.017293e-01 -1.665912e-01 
-2.337094e-14 1.945234e-01 3.483652e-01 4.709049e-01 5.073045e-01 5.345446e-01 4.647154e-01 3.843759e-01 3.783549e-01 1.748166e-01 2.171593e-01 2.093136e-01 -5.120994e-01 -7.237462e-01 -1.327076e-01 2.336713e-01 -5.242808e-14 -2.336713e-01 1.327076e-01 7.237462e-01 5.120994e-01 -2.093136e-01 -2.171593e-01 -1.748166e-01 -3.783549e-01 -3.843759e-01 -4.647154e-01 -5.345446e-01 -5.073045e-01 -4.709049e-01 -3.483652e-01 -1.945234e-01 
-1.354083e-14 2.016940e-01 3.620453e-01 4.860141e-01 5.291502e-01 5.586338e-01 5.203601e-01 4.886846e-01 4.320719e-01 3.673477e-01 4.422063e-01 1.035706e+00 7.972749e-01 -3.999014e-01 -1.219205e+00 -7.797825e-01 2.635666e-13 7.797825e-01 1.219205e+00 3.999014e-01 -7.972749e-01 -1.035706e+00 -4.422063e-01 -3.673477e-01 -4.320719e-01 -4.886846e-01 -5.203601e-01 -5.586338e-01 -5.291502e-01 -4.860141e-01 -3.620453e-01 -2.016940e-01 
-1.115128e-14 1.839044e-01 3.290788e-01 4.356297e-01 4.697901e-01 4.839037e-01 4.500997e-01 4.263335e-01 4.036835e-01 4.091965e-01 3.775728e-01 8.058290e-01 1.505828e+00 1.700785e+00 1.094795e+00 3.330055e-01 8.113741e-14 -3.330055e-01 -1.094795e+00 -1.700785e+00 -1.505828e+00 -8.058290e-01 -3.775728e-01 -4.091965e-01 -4.036835e-01 -4.263335e-01 -4.500997e-01 -4.839037e-01 -4.697901e-01 -4.356297e-01 -3.290788e-01 -1.839044e-01 
5.194570e-15 1.564418e-01 2.789725e-01 3.656366e-01 3.912377e-01 3.960609e-01 3.628286e-01 3.299168e-01 2.859426e-01 2.366701e-01 1.797362e-01 1.513157e-01 4.680214e-01 9.945797e-01 1.229247e+00 7.191790e-01 -1.643577e-13 -7.191790e-01 -1.229247e+00 -9.945797e-01 -4.680214e-01 -1.513157e-01 -1.797362e-01 -2.366701e-01 -2.859426e-01 -3.299168e-01 -3.628286e-01 -3.960609e-01 -3.912377e-01 -3.656366e-01 -2.789725e-01 -1.564418e-01 
-2.462541e-15 1.177000e-01 2.072216e-01 2.655841e-01 2.749368e-01 2.656644e-01 2.284733e-01 1.932683e-01 1.539454e-01 1.216471e-01 9.212177e-02 5.241660e-02 1.348665e-01 1.799764e-01 2.061010e-01 1.820060e-01 -3.838869e-14 -1.820060e-01 -2.061010e-01 -1.799764e-01 -1.348665e-01 -5.241660e-02 -9.212177e-02 -1.216471e-01 -1.539454e-01 -1.932683e-01 -2.284733e-01 -2.656644e-01 -2.749368e-01 -2.655841e-01 -2.072216e-01 -1.177000e-01 
8.970531e-15 7.861666e-02 1.342806e-01 1.627475e-01 1.503532e-01 1.167581e-01 5.621105e-02 -1.212874e-02 -8.604003e-02 -1.563800e-01 -2.041498e-01 -2.356380e-01 -1.842672e-01 -8.469836e-02 1.875317e-02 3.660507e-02 2.989634e-14 -3.660507e-02 -1.875317e-02 8.469836e-02 1.842672e-01 2.356380e-01 2.041498e-01 1.563800e-01 8.604003e-02 1.212874e-02 -5.621105e-02 -1.167581e-01 -1.503532e-01 -1.627475e-01 -1.342806e-01 -7.861666e-02 
-3.280639e-15 4.162352e-02 6.441686e-02 6.295849e-02 2.534069e-02 -3.685426e-02 -1.280601e-01 -2.339905e-01 -3.480094e-01 -4.584301e-01 -5.433604e-01 -6.071054e-01 -6.004834e-01 -5.609791e-01 -4.411525e-01 -2.186319e-01 5.947766e-14 2.186319e-01 4.411525e-01 5.609791e-01 6.004834e-01 6.071054e-01 5.433604e-01 4.584301e-01 3.480094e-01 2.339905e-01 1.280601e-01 3.685426e-02 -2.534069e-02 -6.295849e-02 -6.441686e-02 -4.162352e-02 
5.002056e-15 1.201853e-02 7.384984e-03 -2.134761e-02 -8.604055e-02 -1.821878e-01 -3.132586e-01 -4.684978e-01 -6.354908e-01 -7.984979e-01 -9.285528e-01 -1.014561e+00 -1.016923e+00 -9.337791e-01 -7.311221e-01 -4.021230e-01 2.910613e-14 4.021230e-01 7.311221e-01 9.337791e-01 1.016923e+00 1.014561e+00 9.285528e-01 7.984979e-01 6.354908e-01 4.684978e-01 3.132586e-01 1.821878e-01 8.604055e-02 2.134761e-02 -7.384984e-03 -1.201853e-02 
-5.332406e-15 -6.967965e-03 -2.960879e-02 -7.680827e-02 -1.610483e-01 -2.819843e-01 -4.428876e-01 -6.347547e-01 -8.420570e-01 -1.048148e+00 -1.219663e+00 -1.342683e+00 -1.369985e+00 -1.285634e+00 -1.035603e+00 -5.852595e-01 2.078990e-14 5.852595e-01 1.035603e+00 1.285634e+00 1.369985e+00 1.342683e+00 1.219663e+00 1.048148e+00 8.420570e-01 6.347547e-01 4.428876e-01 2.819843e-01 1.610483e-01 7.680827e-02 2.960879e-02 6.967965e-03 
