# vtk DataFile Version 2.0
Comment goes here
ASCII

DATASET STRUCTURED_POINTS
FIELD FieldData 1
TIME 1 1 double
0.90000000
DIMENSIONS    32   32   1

ORIGIN    0.000   0.000   0.000
SPACING   0.03125 0.03125   1.000

POINT_DATA   1024
SCALARS uX double
LOOKUP_TABLE default

-6.155764e-16 -2.246613e-02 -5.575006e-02 -1.202301e-01 -2.099809e-01 -3.491943e-01 -5.145256e-01 -7.289317e-01 -9.450918e-01 -1.180849e+00 -1.362519e+00 -1.509414e+00 -1.532576e+00 -1.451166e+00 -1.175293e+00 -7.055020e-01 1.418057e-14 7.055020e-01 1.175293e+00 1.451166e+00 1.532576e+00 1.509414e+00 1.362519e+00 1.180849e+00 9.450918e-01 7.289317e-01 5.145256e-01 3.491943e-01 2.099809e-01 1.202301e-01 5.575006e-02 2.246613e-02 
-2.881166e-15 -1.623929e-02 -4.339891e-02 -1.018801e-01 -1.844331e-01 -3.148723e-01 -4.679796e-01 -6.677550e-01 -8.658848e-01 -1.083423e+00 -1.247480e+00 -1.382910e+00 -1.403390e+00 -1.334693e+00 -1.088596e+00 -6.569201e-01 3.665060e-14 6.569201e-01 1.088596e+00 1.334693e+00 1.403390e+00 1.382910e+00 1.247480e+00 1.083423e+00 8.658848e-01 6.677550e-01 4.679796e-01 3.148723e-01 1.844331e-01 1.018801e-01 4.339891e-02 1.623929e-02 
1.013454e-15 1.576093e-03 -8.848636e-03 -5.145003e-02 -1.175507e-01 -2.274905e-01 -3.558103e-01 -5.236687e-01 -6.872684e-01 -8.691412e-01 -1.001674e+00 -1.122369e+00 -1.145489e+00 -1.108116e+00 -9.221972e-01 -5.535269e-01 5.729536e-14 5.535269e-01 9.221972e-01 1.108116e+00 1.145489e+00 1.122369e+00 1.001674e+00 8.691412e-01 6.872684e-01 5.236687e-01 3.558103e-01 2.274905e-01 1.175507e-01 5.145003e-02 8.848636e-03 -1.576093e-03 
-3.783252e-15 2.918841e-02 4.408772e-02 2.356849e-02 -2.091892e-02 -1.064780e-01 -2.036571e-01 -3.320318e-01 -4.477245e-01 -5.778637e-01 -6.542987e-01 -7.306186e-01 -7.192624e-01 -6.936608e-01 -5.819020e-01 -3.347384e-01 5.926214e-14 3.347384e-01 5.819020e-01 6.936608e-01 7.192624e-01 7.306186e-01 6.542987e-01 5.778637e-01 4.477245e-01 3.320318e-01 2.036571e-01 1.064780e-01 2.091892e-02 -2.356849e-02 -4.408772e-02 -2.918841e-02 
3.169430e-15 6.417137e-02 1.104134e-01 1.147602e-01 9.108251e-02 2.610774e-02 -4.927415e-02 -1.464323e-01 -2.296657e-01 -3.202955e-01 -3.535751e-01 -4.118514e-01 -3.803878e-01 -3.688908e-01 -2.892799e-01 -1.219133e-01 3.074797e-14 1.219133e-01 2.892799e-01 3.688908e-01 3.803878e-01 4.118514e-01 3.535751e-01 3.202955e-01 2.296657e-01 1.464323e-01 4.927415e-02 -2.610774e-02 -9.108251e-02 -1.147602e-01 -1.104134e-01 -6.417137e-02 
-1.227470e-15 1.021356e-01 1.814799e-01 2.095176e-01 2.017887e-01 1.465383e-01 7.796985e-02 -9.900103e-03 -8.257889e-02 -1.573335e-01 -1.588353e-01 -1.772646e-01 -3.515542e-02 6.698836e-02 1.665850e-01 1.654614e-01 1.032745e-14 -1.654614e-01 -1.665850e-01 -6.698836e-02 3.515542e-02 1.772646e-01 1.588353e-01 1.573335e-01 8.257889e-02 9.900103e-03 -7.796985e-02 -1.465383e-01 -2.017887e-01 -2.095176e-01 -1.814799e-01 -1.021356e-01 
1.516968e-14 1.381061e-01 2.501309e-01 2.991680e-01 3.061024e-01 2.550856e-01 1.811063e-01 9.146090e-02 -4.201613e-03 -7.583423e-02 -5.609600e-02 -1.110013e-01 1.092815e-02 9.793848e-02 2.891870e-01 2.455394e-01 1.819202e-14 -2.455394e-01 -2.891870e-01 -9.793848e-02 -1.092815e-02 1.110013e-01 5.609600e-02 7.583423e-02 4.201613e-03 -9.146090e-02 -1.811063e-01 -2.550856e-01 -3.061024e-01 -2.991680e-01 -2.501309e-01 -1.381061e-01 
1.511244e-14 1.663379e-01 3.035619e-01 3.676087e-01 3.826074e-01 3.258659e-01 2.319877e-01 1.118468e-01 -4.207157e-02 -1.899955e-01 -2.630934e-01 -2.114752e-01 3.001219e-01 8.114738e-01 9.833401e-01 5.466176e-01 -2.152846e-14 -5.466176e-01 -9.833401e-01 -8.114738e-01 -3.001219e-01 2.114752e-01 2.630934e-01 1.899955e-01 4.207157e-02 -1.118468e-01 -2.319877e-01 -3.258659e-01 -3.826074e-01 -3.676087e-01 -3.035619e-01 -1.663379e-01 
4.035538e-14 1.803733e-01 3.340649e-01 4.032540e-01 4.331455e-01 3.713006e-01 2.675655e-01 1.241479e-01 -1.639791e-01 -3.185172e-01 -1.771402e-01 6.528390e-01 1.020068e+00 1.006556e+00 5.468084e-01 2.060321e-01 -2.077675e-13 -2.060321e-01 -5.468084e-01 -1.006556e+00 -1.020068e+00 -6.528390e-01 1.771402e-01 3.185172e-01 1.639791e-01 -1.241479e-01 -2.675655e-01 -3.713006e-01 -4.331455e-01 -4.032540e-01 -3.340649e-01 -1.803733e-01 
3.413224e-14 1.802194e-01 3.357755e-01 4.052149e-01 4.461528e-01 3.804280e-01 2.660518e-01 9.169446e-02 -2.678053e-01 -3.532259e-01 1.457926e-01 6.099472e-01 -2.648069e-02 -4.369566e-01 -7.060242e-01 -3.138280e-01 -2.059802e-13 3.138280e-01 7.060242e-01 4.369566e-01 2.648069e-02 -6.099472e-01 -1.457926e-01 3.532259e-01 2.678053e-01 -9.169446e-02 -2.660518e-01 -3.804280e-01 -4.461528e-01 -4.052149e-01 -3.357755e-01 -1.802194e-01 
5.190793e-14 1.543422e-01 2.955703e-01 3.505407e-01 4.296460e-01 3.642571e-01 3.667667e-01 2.113171e-01 -4.084521e-01 -5.675821e-02 4.902834e-01 1.898568e-01 6.625411e-02 5.703563e-01 7.496506e-01 5.799656e-01 3.390594e-14 -5.799656e-01 -7.496506e-01 -5.703563e-01 -6.625411e-02 -1.898568e-01 -4.902834e-01 5.675821e-02 4.084521e-01 -2.113171e-01 -3.667667e-01 -3.642571e-01 -4.296460e-01 -3.505407e-01 -2.955703e-01 -1.543422e-01 
2.257442e-14 1.060971e-01 2.133013e-01 2.625416e-01 3.822536e-01 3.403325e-01 4.648340e-01 1.184295e-01 -7.075051e-01 6.397498e-01 7.133093e-01 9.038590e-01 1.068941e+00 1.054182e+00 8.183813e-01 4.494581e-01 8.830638e-14 -4.494581e-01 -8.183813e-01 -1.054182e+00 -1.068941e+00 -9.038590e-01 -7.133093e-01 -6.397498e-01 7.075051e-01 -1.184295e-01 -4.648340e-01 -3.403325e-01 -3.822536e-01 -2.625416e-01 -2.133013e-01 -1.060971e-01 
1.998122e-14 9.153420e-03 3.877575e-02 5.308794e-02 1.835916e-01 6.372876e-02 3.253854e-01 -8.243841e-01 -3.121453e-01 1.443351e+00 6.981623e-01 8.095542e-01 4.646501e-01 1.755941e-01 7.056208e-04 -3.919710e-02 9.710738e-14 3.919710e-02 -7.056208e-04 -1.755941e-01 -4.646501e-01 -8.095542e-01 -6.981623e-01 -1.443351e+00 3.121453e-01 8.243841e-01 -3.253854e-01 -6.372876e-02 -1.835916e-01 -5.308794e-02 -3.877575e-02 -9.153420e-03 
-2.339981e-14 -1.236574e-01 -2.022019e-01 -2.098594e-01 -8.728458e-02 -6.887699e-02 2.258034e-01 -8.434811e-01 1.275649e+00 1.649465e+00 7.443450e-01 4.920028e-01 2.724234e-01 2.295326e-01 1.806992e-01 6.924676e-02 3.021672e-14 -6.924676e-02 -1.806992e-01 -2.295326e-01 -2.724234e-01 -4.920028e-01 -7.443450e-01 -1.649465e+00 -1.275649e+00 8.434811e-01 -2.258034e-01 6.887699e-02 8.728458e-02 2.098594e-01 2.022019e-01 1.236574e-01 
-3.861467e-14 -2.884445e-01 -5.321886e-01 -5.631594e-01 -6.000053e-01 -2.349256e-01 -3.299029e-01 4.821248e-01 1.800634e+00 7.338692e-01 6.052527e-01 4.051461e-01 3.843887e-01 1.763141e-01 9.613718e-02 3.044919e-03 2.609234e-14 -3.044919e-03 -9.613718e-02 -1.763141e-01 -3.843887e-01 -4.051461e-01 -6.052527e-01 -7.338692e-01 -1.800634e+00 -4.821248e-01 3.299029e-01 2.349256e-01 6.000053e-01 5.631594e-01 5.321886e-01 2.884445e-01 
-3.944082e-14 -4.440817e-01 -8.326055e-01 -9.567117e-01 -1.120166e+00 -7.029374e-01 -5.950101e-01 1.531197e+00 1.137921e+00 7.262711e-02 7.202602e-01 4.964591e-01 5.428022e-01 3.031332e-01 2.275169e-01 7.470259e-02 -6.317021e-15 -7.470259e-02 -2.275169e-01 -3.031332e-01 -5.428022e-01 -4.964591e-01 -7.202602e-01 -7.262711e-02 -1.137921e+00 -1.531197e+00 5.950101e-01 7.029374e-01 1.120166e+00 9.567117e-01 8.326055e-01 4.440817e-01 
-2.236158e-14 -4.960896e-01 -9.200859e-01 -1.092173e+00 -1.242043e+00 -8.869332e-01 -2.971477e-01 1.899800e+00 9.552482e-01 1.075013e-01 9.520918e-01 6.850648e-01 6.917507e-01 3.516617e-01 2.332700e-01 6.561261e-02 -2.991448e-14 -6.561261e-02 -2.332700e-01 -3.516617e-01 -6.917507e-01 -6.850648e-01 -9.520918e-01 -1.075013e-01 -9.552482e-01 -1.899800e+00 2.971477e-01 8.869332e-01 1.242043e+00 1.092173e+00 9.200859e-01 4.960896e-01 
2.368589e-14 -4.440817e-01 -8.326055e-01 -9.567117e-01 -1.120166e+00 -7.029374e-01 -5.950101e-01 1.531197e+00 1.137921e+00 7.262711e-02 7.202602e-01 4.964591e-01 5.428022e-01 3.031332e-01 2.275169e-01 7.470259e-02 -3.362482e-14 -7.470259e-02 -2.275169e-01 -3.031332e-01 -5.428022e-01 -4.964591e-01 -7.202602e-01 -7.262711e-02 -1.137921e+00 -1.531197e+00 5.950101e-01 7.029374e-01 1.120166e+00 9.567117e-01 8.326055e-01 4.440817e-01 
1.516927e-14 -2.884445e-01 -5.321886e-01 -5.631594e-01 -6.000053e-01 -2.349256e-01 -3.299029e-01 4.821248e-01 1.800634e+00 7.338692e-01 6.052527e-01 4.051461e-01 3.843887e-01 1.763141e-01 9.613718e-02 3.044919e-03 -7.847795e-14 -3.044919e-03 -9.613718e-02 -1.763141e-01 -3.843887e-01 -4.051461e-01 -6.052527e-01 -7.338692e-01 -1.800634e+00 -4.821248e-01 3.299029e-01 2.349256e-01 6.000053e-01 5.631594e-01 5.321886e-01 2.884445e-01 
2.311642e-14 -1.236574e-01 -2.022019e-01 -2.098594e-01 -8.728458e-02 -6.887699e-02 2.258034e-01 -8.434811e-01 1.275649e+00 1.649465e+00 7.443450e-01 4.920028e-01 2.724234e-01 2.295326e-01 1.806992e-01 6.924676e-02 -7.958376e-14 -6.924676e-02 -1.806992e-01 -2.295326e-01 -2.724234e-01 -4.920028e-01 -7.443450e-01 -1.649465e+00 -1.275649e+00 8.434811e-01 -2.258034e-01 6.887699e-02 8.728458e-02 2.098594e-01 2.022019e-01 1.236574e-01 
-2.305645e-14 9.153420e-03 3.877575e-02 5.308794e-02 1.835916e-01 6.372876e-02 3.253854e-01 -8.243841e-01 -3.121453e-01 1.443351e+00 6.981623e-01 8.095542e-01 4.646501e-01 1.755941e-01 7.056208e-04 -3.919710e-02 -1.305742e-13 3.919710e-02 -7.056208e-04 -1.755941e-01 -4.646501e-01 -8.095542e-01 -6.981623e-01 -1.443351e+00 3.121453e-01 8.243841e-01 -3.253854e-01 -6.372876e-02 -1.835916e-01 -5.308794e-02 -3.877575e-02 -9.153420e-03 
-1.669202e-14 1.060971e-01 2.133013e-01 2.625416e-01 3.822536e-01 3.403325e-01 4.648340e-01 1.184295e-01 -7.075051e-01 6.397498e-01 7.133093e-01 9.038590e-01 1.068941e+00 1.054182e+00 8.183813e-01 4.494581e-01 -1.291466e-13 -4.494581e-01 -8.183813e-01 -1.054182e+00 -1.068941e+00 -9.038590e-01 -7.133093e-01 -6.397498e-01 7.075051e-01 -1.184295e-01 -4.648340e-01 -3.403325e-01 -3.822536e-01 -2.625416e-01 -2.133013e-01 -1.060971e-01 
-4.455222e-14 1.543422e-01 2.955703e-01 3.505407e-01 4.296460e-01 3.642571e-01 3.667667e-01 2.113171e-01 -4.084521e-01 -5.675821e-02 4.902834e-01 1.898568e-01 6.625411e-02 5.703563e-01 7.496506e-01 5.799656e-01 -3.807805e-15 -5.799656e-01 -7.496506e-01 -5.703563e-01 -6.625411e-02 -1.898568e-01 -4.902834e-01 5.675821e-02 4.084521e-01 -2.113171e-01 -3.667667e-01 -3.642571e-01 -4.296460e-01 -3.505407e-01 -2.955703e-01 -1.543422e-01 
-3.172639e-14 1.802194e-01 3.357755e-01 4.052149e-01 4.461528e-01 3.804280e-01 2.660518e-01 9.169446e-02 -2.678053e-01 -3.532259e-01 1.457926e-01 6.099472e-01 -2.648069e-02 -4.369566e-01 -7.060242e-01 -3.138280e-01 2.964226e-13 3.138280e-01 7.060242e-01 4.369566e-01 2.648069e-02 -6.099472e-01 -1.457926e-01 3.532259e-01 2.678053e-01 -9.169446e-02 -2.660518e-01 -3.804280e-01 -4.461528e-01 -4.052149e-01 -3.357755e-01 -1.802194e-01 
-3.071586e-14 1.803733e-01 3.340649e-01 4.032540e-01 4.331455e-01 3.713006e-01 2.675655e-01 1.241479e-01 -1.639791e-01 -3.185172e-01 -1.771402e-01 6.528390e-01 1.020068e+00 1.006556e+00 5.468084e-01 2.060321e-01 1.163556e-13 -2.060321e-01 -5.468084e-01 -1.006556e+00 -1.020068e+00 -6.528390e-01 1.771402e-01 3.185172e-01 1.639791e-01 -1.241479e-01 -2.675655e-01 -3.713006e-01 -4.331455e-01 -4.032540e-01 -3.340649e-01 -1.803733e-01 
-1.554649e-14 1.663379e-01 3.035619e-01 3.676087e-01 3.826074e-01 3.258659e-01 2.319877e-01 1.118468e-01 -4.207157e-02 -1.899955e-01 -2.630934e-01 -2.114752e-01 3.001219e-01 8.114738e-01 9.833401e-01 5.466176e-01 -8.146162e-14 -5.466176e-01 -9.833401e-01 -8.114738e-01 -3.001219e-01 2.114752e-01 2.630934e-01 1.899955e-01 4.207157e-02 -1.118468e-01 -2.319877e-01 -3.258659e-01 -3.826074e-01 -3.676087e-01 -3.035619e-01 -1.663379e-01 
-9.253079e-15 1.381061e-01 2.501309e-01 2.991680e-01 3.061024e-01 2.550856e-01 1.811063e-01 9.146090e-02 -4.201613e-03 -7.583423e-02 -5.609600e-02 -1.110013e-01 1.092815e-02 9.793848e-02 2.891870e-01 2.455394e-01 -9.632526e-15 -2.455394e-01 -2.891870e-01 -9.793848e-02 -1.092815e-02 1.110013e-01 5.609600e-02 7.583423e-02 4.201613e-03 -9.146090e-02 -1.811063e-01 -2.550856e-01 -3.061024e-01 -2.991680e-01 -2.501309e-01 -1.381061e-01 
-4.240881e-15 1.021356e-01 1.814799e-01 2.095176e-01 2.017887e-01 1.465383e-01 7.796985e-02 -9.900103e-03 -8.257889e-02 -1.573335e-01 -1.588353e-01 -1.772646e-01 -3.515542e-02 6.698836e-02 1.665850e-01 1.654614e-01 1.467196e-14 -1.654614e-01 -1.665850e-01 -6.698836e-02 3.515542e-02 1.772646e-01 1.588353e-01 1.573335e-01 8.257889e-02 9.900103e-03 -7.796985e-02 -1.465383e-01 -2.017887e-01 -2.095176e-01 -1.814799e-01 -1.021356e-01 
-3.332526e-15 6.417137e-02 1.104134e-01 1.147602e-01 9.108251e-02 2.610774e-02 -4.927415e-02 -1.464323e-01 -2.296657e-01 -3.202955e-01 -3.535751e-01 -4.118514e-01 -3.803878e-01 -3.688908e-01 -2.892799e-01 -1.219133e-01 4.348069e-14 1.219133e-01 2.892799e-01 3.688908e-01 3.803878e-01 4.118514e-01 3.535751e-01 3.202955e-01 2.296657e-01 1.464323e-01 4.927415e-02 -2.610774e-02 -9.108251e-02 -1.147602e-01 -1.104134e-01 -6.417137e-02 
-3.825368e-15 2.918841e-02 4.408772e-02 2.356849e-02 -2.091892e-02 -1.064780e-01 -2.036571e-01 -3.320318e-01 -4.477245e-01 -5.778637e-01 -6.542987e-01 -7.306186e-01 -7.192624e-01 -6.936608e-01 -5.819020e-01 -3.347384e-01 1.430221e-15 3.347384e-01 5.819020e-01 6.936608e-01 7.192624e-01 7.306186e-01 6.542987e-01 5.778637e-01 4.477245e-01 3.320318e-01 2.036571e-01 1.064780e-01 2.091892e-02 -2.356849e-02 -4.408772e-02 -2.918841e-02 
-2.752603e-15 1.576093e-03 -8.848636e-03 -5.145003e-02 -1.175507e-01 -2.274905e-01 -3.558103e-01 -5.236687e-01 -6.872684e-01 -8.691412e-01 -1.001674e+00 -1.122369e+00 -1.145489e+00 -1.108116e+00 -9.221972e-01 -5.535269e-01 -5.671611e-15 5.535269e-01 9.221972e-01 1.108116e+00 1.145489e+00 1.122369e+00 1.001674e+00 8.691412e-01 6.872684e-01 5.236687e-01 3.558103e-01 2.274905e-01 1.175507e-01 5.145003e-02 8.848636e-03 -1.576093e-03 
-3.855942e-15 -1.623929e-02 -4.339891e-02 -1.018801e-01 -1.844331e-01 -3.148723e-01 -4.679796e-01 -6.677550e-01 -8.658848e-01 -1.083423e+00 -1.247480e+00 -1.382910e+00 -1.403390e+00 -1.334693e+00 -1.088596e+00 -6.569201e-01 -7.643783e-15 6.569201e-01 1.088596e+00 1.334693e+00 1.403390e+00 1.382910e+00 1.247480e+00 1.083423e+00 8.658848e-01 6.677550e-01 4.679796e-01 3.148723e-01 1.844331e-01 1.018801e-01 4.339891e-02 1.623929e-02 
