# vtk DataFile Version 2.0
Comment goes here
ASCII

DATASET STRUCTURED_POINTS
FIELD FieldData 1
TIME 1 1 double
0.16000000
DIMENSIONS    32   32   1

ORIGIN    0.000   0.000   0.000
SPACING   0.03125 0.03125   1.000

POINT_DATA   1024
SCALARS uX double
LOOKUP_TABLE default

2.257763e-16 -3.491495e-02 -6.867196e-02 -1.114286e-01 -1.516056e-01 -2.077353e-01 -2.631610e-01 -3.373693e-01 -4.184034e-01 -5.149418e-01 -6.294860e-01 -7.496120e-01 -8.784037e-01 -9.260519e-01 -8.380145e-01 -4.899554e-01 -3.451526e-15 4.899554e-01 8.380145e-01 9.260519e-01 8.784037e-01 7.496120e-01 6.294860e-01 5.149418e-01 4.184034e-01 3.373693e-01 2.631610e-01 2.077353e-01 1.516056e-01 1.114286e-01 6.867196e-02 3.491495e-02 
-6.035388e-16 -3.344719e-02 -6.532456e-02 -1.073141e-01 -1.453492e-01 -2.020084e-01 -2.555983e-01 -3.323233e-01 -4.128593e-01 -5.108516e-01 -6.211020e-01 -7.214273e-01 -8.108528e-01 -7.629940e-01 -6.473284e-01 -4.022785e-01 1.134122e-14 4.022785e-01 6.473284e-01 7.629940e-01 8.108528e-01 7.214273e-01 6.211020e-01 5.108516e-01 4.128593e-01 3.323233e-01 2.555983e-01 2.020084e-01 1.453492e-01 1.073141e-01 6.532456e-02 3.344719e-02 
5.420177e-16 -3.150721e-02 -6.143039e-02 -1.013497e-01 -1.371215e-01 -1.909717e-01 -2.413418e-01 -3.134335e-01 -3.900476e-01 -4.844248e-01 -5.999232e-01 -7.352464e-01 -9.016922e-01 -9.738227e-01 -8.457185e-01 -4.412034e-01 1.849583e-14 4.412034e-01 8.457185e-01 9.738227e-01 9.016922e-01 7.352464e-01 5.999232e-01 4.844248e-01 3.900476e-01 3.134335e-01 2.413418e-01 1.909717e-01 1.371215e-01 1.013497e-01 6.143039e-02 3.150721e-02 
-2.390593e-15 -2.634619e-02 -5.043960e-02 -8.620056e-02 -1.149718e-01 -1.665225e-01 -2.091333e-01 -2.850608e-01 -3.627845e-01 -4.774047e-01 -6.116196e-01 -7.491350e-01 -7.006523e-01 -1.464156e-01 3.150667e-01 3.109820e-01 2.255863e-14 -3.109820e-01 -3.150667e-01 1.464156e-01 7.006523e-01 7.491350e-01 6.116196e-01 4.774047e-01 3.627845e-01 2.850608e-01 2.091333e-01 1.665225e-01 1.149718e-01 8.620056e-02 5.043960e-02 2.634619e-02 
1.328122e-15 -2.113428e-02 -3.973966e-02 -7.122034e-02 -9.433538e-02 -1.429988e-01 -1.802543e-01 -2.526258e-01 -3.204438e-01 -3.877306e-01 -3.921624e-01 -1.866909e-01 4.775069e-01 1.011493e+00 7.401201e-01 3.673237e-01 5.266066e-15 -3.673237e-01 -7.401201e-01 -1.011493e+00 -4.775069e-01 1.866909e-01 3.921624e-01 3.877306e-01 3.204438e-01 2.526258e-01 1.802543e-01 1.429988e-01 9.433538e-02 7.122034e-02 3.973966e-02 2.113428e-02 
-2.527333e-15 -1.188387e-02 -2.128671e-02 -4.471095e-02 -5.734915e-02 -1.012048e-01 -1.247606e-01 -2.050209e-01 -2.705722e-01 -3.479003e-01 -3.581868e-01 -1.561127e-01 1.446715e-01 -5.797297e-01 -1.174964e+00 -6.727138e-01 -7.348695e-14 6.727138e-01 1.174964e+00 5.797297e-01 -1.446715e-01 1.561127e-01 3.581868e-01 3.479003e-01 2.705722e-01 2.050209e-01 1.247606e-01 1.012048e-01 5.734915e-02 4.471095e-02 2.128671e-02 1.188387e-02 
2.020731e-15 -2.871016e-03 -3.624016e-03 -2.139222e-02 -2.752367e-02 -7.468704e-02 -1.018763e-01 -2.313819e-01 -3.787107e-01 -4.344049e-01 -5.751339e-01 -3.048005e-01 -4.914420e-01 -6.703514e-01 1.592675e-01 3.188802e-01 -6.389602e-14 -3.188802e-01 -1.592675e-01 6.703514e-01 4.914420e-01 3.048005e-01 5.751339e-01 4.344049e-01 3.787107e-01 2.313819e-01 1.018763e-01 7.468704e-02 2.752367e-02 2.139222e-02 3.624016e-03 2.871016e-03 
-4.527001e-15 1.172483e-02 2.198157e-02 1.682450e-02 1.468679e-02 -3.960002e-02 -8.434782e-02 -2.788698e-01 -2.527070e-01 -2.337337e-01 -2.746174e-01 2.984097e-01 5.151787e-01 1.084934e+00 1.621182e+00 9.603203e-01 -1.585778e-14 -9.603203e-01 -1.621182e+00 -1.084934e+00 -5.151787e-01 -2.984097e-01 2.746174e-01 2.337337e-01 2.527070e-01 2.788698e-01 8.434782e-02 3.960002e-02 -1.468679e-02 -1.682450e-02 -2.198157e-02 -1.172483e-02 
2.160518e-16 2.798026e-02 5.025796e-02 5.222727e-02 4.764476e-02 -2.740471e-02 -7.550236e-02 -2.882007e-01 1.172876e-01 -5.779938e-02 4.695805e-01 8.650002e-01 7.539994e-01 1.231455e+00 9.103838e-01 4.835936e-01 2.020949e-14 -4.835936e-01 -9.103838e-01 -1.231455e+00 -7.539994e-01 -8.650002e-01 -4.695805e-01 5.779938e-02 -1.172876e-01 2.882007e-01 7.550236e-02 2.740471e-02 -4.764476e-02 -5.222727e-02 -5.025796e-02 -2.798026e-02 
-4.829262e-15 5.186499e-02 8.508542e-02 1.036002e-01 6.778823e-02 1.304450e-04 -1.034699e-01 -1.058282e-01 3.055914e-01 2.480422e-01 1.082638e+00 1.097480e+00 4.294068e-01 5.097369e-01 2.180668e-01 1.354858e-01 3.625828e-15 -1.354858e-01 -2.180668e-01 -5.097369e-01 -4.294068e-01 -1.097480e+00 -1.082638e+00 -2.480422e-01 -3.055914e-01 1.058282e-01 1.034699e-01 -1.304450e-04 -6.778823e-02 -1.036002e-01 -8.508542e-02 -5.186499e-02 
-2.392858e-15 8.653713e-02 1.410338e-01 1.741443e-01 1.186215e-01 1.094317e-01 3.174455e-02 3.256984e-01 3.906814e-01 7.870023e-01 1.173507e+00 2.966023e-01 -2.024337e-01 -5.857767e-01 -7.122163e-01 -4.402973e-01 1.599336e-14 4.402973e-01 7.122163e-01 5.857767e-01 2.024337e-01 -2.966023e-01 -1.173507e+00 -7.870023e-01 -3.906814e-01 -3.256984e-01 -3.174455e-02 -1.094317e-01 -1.186215e-01 -1.741443e-01 -1.410338e-01 -8.653713e-02 
-7.142869e-15 1.344735e-01 2.281030e-01 2.804387e-01 1.909774e-01 2.254234e-01 1.746180e-01 4.417941e-01 1.630063e-01 7.354910e-01 6.733394e-01 -6.073881e-01 -6.014989e-01 -7.752855e-01 -6.872044e-01 -4.350378e-01 3.311926e-15 4.350378e-01 6.872044e-01 7.752855e-01 6.014989e-01 6.073881e-01 -6.733394e-01 -7.354910e-01 -1.630063e-01 -4.417941e-01 -1.746180e-01 -2.254234e-01 -1.909774e-01 -2.804387e-01 -2.281030e-01 -1.344735e-01 
-6.836928e-15 1.912661e-01 3.488911e-01 3.905755e-01 3.359085e-01 4.247603e-01 2.366803e-01 1.879578e-01 -9.474162e-02 4.209537e-01 2.861463e-01 -2.331563e-01 -2.312843e-02 -2.136046e-01 -2.466346e-01 -2.131868e-01 -1.894532e-15 2.131868e-01 2.466346e-01 2.136046e-01 2.312843e-02 2.331563e-01 -2.861463e-01 -4.209537e-01 9.474162e-02 -1.879578e-01 -2.366803e-01 -4.247603e-01 -3.359085e-01 -3.905755e-01 -3.488911e-01 -1.912661e-01 
-7.829382e-15 1.959934e-01 3.917881e-01 4.786320e-01 5.895014e-01 5.703459e-01 2.317936e-01 1.068729e-01 5.954413e-03 1.355258e-01 3.080723e-01 5.594163e-01 4.352962e-01 1.206991e-01 -2.490846e-02 -6.657771e-02 6.362994e-15 6.657771e-02 2.490846e-02 -1.206991e-01 -4.352962e-01 -5.594163e-01 -3.080723e-01 -1.355258e-01 -5.954413e-03 -1.068729e-01 -2.317936e-01 -5.703459e-01 -5.895014e-01 -4.786320e-01 -3.917881e-01 -1.959934e-01 
-3.348835e-15 8.811470e-02 1.629016e-01 2.243436e-01 2.836435e-01 1.580159e-01 1.237725e-01 2.699127e-01 3.028074e-01 1.134388e-01 2.165288e-01 6.865139e-01 5.581272e-01 3.750701e-01 1.964805e-01 6.822561e-02 -1.053589e-14 -6.822561e-02 -1.964805e-01 -3.750701e-01 -5.581272e-01 -6.865139e-01 -2.165288e-01 -1.134388e-01 -3.028074e-01 -2.699127e-01 -1.237725e-01 -1.580159e-01 -2.836435e-01 -2.243436e-01 -1.629016e-01 -8.811470e-02 
9.178330e-15 -3.223795e-01 -5.899072e-01 -6.412698e-01 -5.452837e-01 -2.865640e-01 3.708982e-01 6.584360e-01 8.243709e-01 4.508314e-01 -1.985238e-01 2.787573e-01 5.884507e-01 5.490550e-01 3.800896e-01 1.698197e-01 7.619861e-15 -1.698197e-01 -3.800896e-01 -5.490550e-01 -5.884507e-01 -2.787573e-01 1.985238e-01 -4.508314e-01 -8.243709e-01 -6.584360e-01 -3.708982e-01 2.865640e-01 5.452837e-01 6.412698e-01 5.899072e-01 3.223795e-01 
7.182532e-15 -6.418563e-01 -1.127909e+00 -1.183228e+00 -9.020697e-01 -3.045561e-01 6.767160e-01 9.415154e-01 1.164738e+00 6.008715e-01 -5.275998e-01 -2.683271e-02 5.365292e-01 5.771255e-01 4.346494e-01 2.032841e-01 -9.040389e-15 -2.032841e-01 -4.346494e-01 -5.771255e-01 -5.365292e-01 2.683271e-02 5.275998e-01 -6.008715e-01 -1.164738e+00 -9.415154e-01 -6.767160e-01 3.045561e-01 9.020697e-01 1.183228e+00 1.127909e+00 6.418563e-01 
-2.368967e-15 -3.223795e-01 -5.899072e-01 -6.412698e-01 -5.452837e-01 -2.865640e-01 3.708982e-01 6.584360e-01 8.243709e-01 4.508314e-01 -1.985238e-01 2.787573e-01 5.884507e-01 5.490550e-01 3.800896e-01 1.698197e-01 1.433798e-14 -1.698197e-01 -3.800896e-01 -5.490550e-01 -5.884507e-01 -2.787573e-01 1.985238e-01 -4.508314e-01 -8.243709e-01 -6.584360e-01 -3.708982e-01 2.865640e-01 5.452837e-01 6.412698e-01 5.899072e-01 3.223795e-01 
3.543415e-15 8.811470e-02 1.629016e-01 2.243436e-01 2.836435e-01 1.580159e-01 1.237725e-01 2.699127e-01 3.028074e-01 1.134388e-01 2.165288e-01 6.865139e-01 5.581272e-01 3.750701e-01 1.964805e-01 6.822561e-02 -6.060214e-15 -6.822561e-02 -1.964805e-01 -3.750701e-01 -5.581272e-01 -6.865139e-01 -2.165288e-01 -1.134388e-01 -3.028074e-01 -2.699127e-01 -1.237725e-01 -1.580159e-01 -2.836435e-01 -2.243436e-01 -1.629016e-01 -8.811470e-02 
5.439935e-15 1.959934e-01 3.917881e-01 4.786320e-01 5.895014e-01 5.703459e-01 2.317936e-01 1.068729e-01 5.954413e-03 1.355258e-01 3.080723e-01 5.594163e-01 4.352962e-01 1.206991e-01 -2.490846e-02 -6.657771e-02 1.219411e-14 6.657771e-02 2.490846e-02 -1.206991e-01 -4.352962e-01 -5.594163e-01 -3.080723e-01 -1.355258e-01 -5.954413e-03 -1.068729e-01 -2.317936e-01 -5.703459e-01 -5.895014e-01 -4.786320e-01 -3.917881e-01 -1.959934e-01 
6.127998e-15 1.912661e-01 3.488911e-01 3.905755e-01 3.359085e-01 4.247603e-01 2.366803e-01 1.879578e-01 -9.474162e-02 4.209537e-01 2.861463e-01 -2.331563e-01 -2.312843e-02 -2.136046e-01 -2.466346e-01 -2.131868e-01 4.783817e-16 2.131868e-01 2.466346e-01 2.136046e-01 2.312843e-02 2.331563e-01 -2.861463e-01 -4.209537e-01 9.474162e-02 -1.879578e-01 -2.366803e-01 -4.247603e-01 -3.359085e-01 -3.905755e-01 -3.488911e-01 -1.912661e-01 
5.536099e-15 1.344735e-01 2.281030e-01 2.804387e-01 1.909774e-01 2.254234e-01 1.746180e-01 4.417941e-01 1.630063e-01 7.354910e-01 6.733394e-01 -6.073881e-01 -6.014989e-01 -7.752855e-01 -6.872044e-01 -4.350378e-01 5.962166e-15 4.350378e-01 6.872044e-01 7.752855e-01 6.014989e-01 6.073881e-01 -6.733394e-01 -7.354910e-01 -1.630063e-01 -4.417941e-01 -1.746180e-01 -2.254234e-01 -1.909774e-01 -2.804387e-01 -2.281030e-01 -1.344735e-01 
9.211920e-16 8.653713e-02 1.410338e-01 1.741443e-01 1.186215e-01 1.094317e-01 3.174455e-02 3.256984e-01 3.906814e-01 7.870023e-01 1.173507e+00 2.966023e-01 -2.024337e-01 -5.857767e-01 -7.122163e-01 -4.402973e-01 1.130502e-14 4.402973e-01 7.122163e-01 5.857767e-01 2.024337e-01 -2.966023e-01 -1.173507e+00 -7.870023e-01 -3.906814e-01 -3.256984e-01 -3.174455e-02 -1.094317e-01 -1.186215e-01 -1.741443e-01 -1.410338e-01 -8.653713e-02 
6.859056e-15 5.186499e-02 8.508542e-02 1.036002e-01 6.778823e-02 1.304450e-04 -1.034699e-01 -1.058282e-01 3.055914e-01 2.480422e-01 1.082638e+00 1.097480e+00 4.294068e-01 5.097369e-01 2.180668e-01 1.354858e-01 -4.105724e-15 -1.354858e-01 -2.180668e-01 -5.097369e-01 -4.294068e-01 -1.097480e+00 -1.082638e+00 -2.480422e-01 -3.055914e-01 1.058282e-01 1.034699e-01 -1.304450e-04 -6.778823e-02 -1.036002e-01 -8.508542e-02 -5.186499e-02 
-1.463208e-15 2.798026e-02 5.025796e-02 5.222727e-02 4.764476e-02 -2.740471e-02 -7.550236e-02 -2.882007e-01 1.172876e-01 -5.779938e-02 4.695805e-01 8.650002e-01 7.539994e-01 1.231455e+00 9.103838e-01 4.835936e-01 1.786757e-14 -4.835936e-01 -9.103838e-01 -1.231455e+00 -7.539994e-01 -8.650002e-01 -4.695805e-01 5.779938e-02 -1.172876e-01 2.882007e-01 7.550236e-02 2.740471e-02 -4.764476e-02 -5.222727e-02 -5.025796e-02 -2.798026e-02 
5.095632e-15 1.172483e-02 2.198157e-02 1.682450e-02 1.468679e-02 -3.960002e-02 -8.434782e-02 -2.788698e-01 -2.527070e-01 -2.337337e-01 -2.746174e-01 2.984097e-01 5.151787e-01 1.084934e+00 1.621182e+00 9.603203e-01 -1.229577e-14 -9.603203e-01 -1.621182e+00 -1.084934e+00 -5.151787e-01 -2.984097e-01 2.746174e-01 2.337337e-01 2.527070e-01 2.788698e-01 8.434782e-02 3.960002e-02 -1.468679e-02 -1.682450e-02 -2.198157e-02 -1.172483e-02 
-2.721440e-15 -2.871016e-03 -3.624016e-03 -2.139222e-02 -2.752367e-02 -7.468704e-02 -1.018763e-01 -2.313819e-01 -3.787107e-01 -4.344049e-01 -5.751339e-01 -3.048005e-01 -4.914420e-01 -6.703514e-01 1.592675e-01 3.188802e-01 -1.562572e-13 -3.188802e-01 -1.592675e-01 6.703514e-01 4.914420e-01 3.048005e-01 5.751339e-01 4.344049e-01 3.787107e-01 2.313819e-01 1.018763e-01 7.468704e-02 2.752367e-02 2.139222e-02 3.624016e-03 2.871016e-03 
1.384473e-15 -1.188387e-02 -2.128671e-02 -4.471095e-02 -5.734915e-02 -1.012048e-01 -1.247606e-01 -2.050209e-01 -2.705722e-01 -3.479003e-01 -3.581868e-01 -1.561127e-01 1.446715e-01 -5.797297e-01 -1.174964e+00 -6.727138e-01 -8.841222e-14 6.727138e-01 1.174964e+00 5.797297e-01 -1.446715e-01 1.561127e-01 3.581868e-01 3.479003e-01 2.705722e-01 2.050209e-01 1.247606e-01 1.012048e-01 5.734915e-02 4.471095e-02 2.128671e-02 1.188387e-02 
-2.312198e-15 -2.113428e-02 -3.973966e-02 -7.122034e-02 -9.433538e-02 -1.429988e-01 -1.802543e-01 -2.526258e-01 -3.204438e-01 -3.877306e-01 -3.921624e-01 -1.866909e-01 4.775069e-01 1.011493e+00 7.401201e-01 3.673237e-01 1.866550e-13 -3.673237e-01 -7.401201e-01 -1.011493e+00 -4.775069e-01 1.866909e-01 3.921624e-01 3.877306e-01 3.204438e-01 2.526258e-01 1.802543e-01 1.429988e-01 9.433538e-02 7.122034e-02 3.973966e-02 2.113428e-02 
9.072507e-16 -2.634619e-02 -5.043960e-02 -8.620056e-02 -1.149718e-01 -1.665225e-01 -2.091333e-01 -2.850608e-01 -3.627845e-01 -4.774047e-01 -6.116196e-01 -7.491350e-01 -7.006523e-01 -1.464156e-01 3.150667e-01 3.109820e-01 1.359105e-13 -3.109820e-01 -3.150667e-01 1.464156e-01 7.006523e-01 7.491350e-01 6.116196e-01 4.774047e-01 3.627845e-01 2.850608e-01 2.091333e-01 1.665225e-01 1.149718e-01 8.620056e-02 5.043960e-02 2.634619e-02 
-4.363277e-16 -3.150721e-02 -6.143039e-02 -1.013497e-01 -1.371215e-01 -1.909717e-01 -2.413418e-01 -3.134335e-01 -3.900476e-01 -4.844248e-01 -5.999232e-01 -7.352464e-01 -9.016922e-01 -9.738227e-01 -8.457185e-01 -4.412034e-01 -2.253891e-14 4.412034e-01 8.457185e-01 9.738227e-01 9.016922e-01 7.352464e-01 5.999232e-01 4.844248e-01 3.900476e-01 3.134335e-01 2.413418e-01 1.909717e-01 1.371215e-01 1.013497e-01 6.143039e-02 3.150721e-02 
3.359643e-16 -3.344719e-02 -6.532456e-02 -1.073141e-01 -1.453492e-01 -2.020084e-01 -2.555983e-01 -3.323233e-01 -4.128593e-01 -5.108516e-01 -6.211020e-01 -7.214273e-01 -8.108528e-01 -7.629940e-01 -6.473284e-01 -4.022785e-01 -2.654897e-14 4.022785e-01 6.473284e-01 7.629940e-01 8.108528e-01 7.214273e-01 6.211020e-01 5.108516e-01 4.128593e-01 3.323233e-01 2.555983e-01 2.020084e-01 1.453492e-01 1.073141e-01 6.532456e-02 3.344719e-02 
