# vtk DataFile Version 2.0
Comment goes here
ASCII

DATASET STRUCTURED_POINTS
FIELD FieldData 1
TIME 1 1 double
0.28000000
DIMENSIONS    32   32   1

ORIGIN    0.000   0.000   0.000
SPACING   0.03125 0.03125   1.000

POINT_DATA   1024
SCALARS uX double
LOOKUP_TABLE default

-1.174732e-15 -1.261067e-01 -2.552505e-01 -3.825296e-01 -5.157799e-01 -6.422602e-01 -7.705463e-01 -8.840598e-01 -9.892420e-01 -1.073530e+00 -1.141646e+00 -1.198629e+00 -1.231719e+00 -1.243921e+00 -1.124127e+00 -7.854970e-01 -5.242579e-15 7.854970e-01 1.124127e+00 1.243921e+00 1.231719e+00 1.198629e+00 1.141646e+00 1.073530e+00 9.892420e-01 8.840598e-01 7.705463e-01 6.422602e-01 5.157799e-01 3.825296e-01 2.552505e-01 1.261067e-01 
-3.794805e-15 -1.259341e-01 -2.549942e-01 -3.827615e-01 -5.163508e-01 -6.441923e-01 -7.725482e-01 -8.868337e-01 -9.893056e-01 -1.068683e+00 -1.126518e+00 -1.170026e+00 -1.192930e+00 -1.191355e+00 -1.063849e+00 -7.154181e-01 -3.580978e-15 7.154181e-01 1.063849e+00 1.191355e+00 1.192930e+00 1.170026e+00 1.126518e+00 1.068683e+00 9.893056e-01 8.868337e-01 7.725482e-01 6.441923e-01 5.163508e-01 3.827615e-01 2.549942e-01 1.259341e-01 
3.983194e-16 -1.239751e-01 -2.526263e-01 -3.810789e-01 -5.193470e-01 -6.527211e-01 -7.912773e-01 -9.138277e-01 -1.025033e+00 -1.102522e+00 -1.148549e+00 -1.157602e+00 -1.123398e+00 -1.055369e+00 -8.784707e-01 -5.126020e-01 -4.475774e-15 5.126020e-01 8.784707e-01 1.055369e+00 1.123398e+00 1.157602e+00 1.148549e+00 1.102522e+00 1.025033e+00 9.138277e-01 7.912773e-01 6.527211e-01 5.193470e-01 3.810789e-01 2.526263e-01 1.239751e-01 
-2.380156e-15 -1.210156e-01 -2.489248e-01 -3.791635e-01 -5.240482e-01 -6.679908e-01 -8.203778e-01 -9.585037e-01 -1.078028e+00 -1.149022e+00 -1.159671e+00 -1.103905e+00 -9.886270e-01 -8.377080e-01 -5.986921e-01 -2.538392e-01 2.001407e-15 2.538392e-01 5.986921e-01 8.377080e-01 9.886270e-01 1.103905e+00 1.159671e+00 1.149022e+00 1.078028e+00 9.585037e-01 8.203778e-01 6.679908e-01 5.240482e-01 3.791635e-01 2.489248e-01 1.210156e-01 
1.872638e-15 -1.130783e-01 -2.371167e-01 -3.680962e-01 -5.240210e-01 -6.849504e-01 -8.673527e-01 -1.036878e+00 -1.190827e+00 -1.285363e+00 -1.311164e+00 -1.221018e+00 -9.950034e-01 -7.345276e-01 -3.653024e-01 -7.187005e-02 1.302698e-14 7.187005e-02 3.653024e-01 7.345276e-01 9.950034e-01 1.221018e+00 1.311164e+00 1.285363e+00 1.190827e+00 1.036878e+00 8.673527e-01 6.849504e-01 5.240210e-01 3.680962e-01 2.371167e-01 1.130783e-01 
-1.975197e-15 -1.013255e-01 -2.201959e-01 -3.524544e-01 -5.245892e-01 -7.126424e-01 -9.375462e-01 -1.165473e+00 -1.382765e+00 -1.531994e+00 -1.564048e+00 -1.457849e+00 -1.220304e+00 -8.962061e-01 -3.542208e-01 -1.023703e-01 2.359837e-14 1.023703e-01 3.542208e-01 8.962061e-01 1.220304e+00 1.457849e+00 1.564048e+00 1.531994e+00 1.382765e+00 1.165473e+00 9.375462e-01 7.126424e-01 5.245892e-01 3.524544e-01 2.201959e-01 1.013255e-01 
2.424068e-15 -7.685066e-02 -1.799769e-01 -3.085655e-01 -4.974058e-01 -7.178534e-01 -1.006236e+00 -1.316159e+00 -1.653906e+00 -1.965930e+00 -2.187270e+00 -2.088905e+00 -1.672662e+00 -1.114282e+00 -4.575777e-01 -2.598402e-01 1.885181e-14 2.598402e-01 4.575777e-01 1.114282e+00 1.672662e+00 2.088905e+00 2.187270e+00 1.965930e+00 1.653906e+00 1.316159e+00 1.006236e+00 7.178534e-01 4.974058e-01 3.085655e-01 1.799769e-01 7.685066e-02 
-2.973775e-15 -4.155939e-02 -1.240492e-01 -2.426549e-01 -4.514257e-01 -7.050673e-01 -1.072525e+00 -1.585868e+00 -2.221720e+00 -2.551989e+00 -2.346074e+00 -1.806499e+00 -1.324600e+00 -8.549993e-01 -4.750965e-01 -3.092673e-01 -9.655746e-15 3.092673e-01 4.750965e-01 8.549993e-01 1.324600e+00 1.806499e+00 2.346074e+00 2.551989e+00 2.221720e+00 1.585868e+00 1.072525e+00 7.050673e-01 4.514257e-01 2.426549e-01 1.240492e-01 4.155939e-02 
-5.776420e-16 1.834556e-02 -1.714670e-02 -1.100127e-01 -3.221233e-01 -6.215479e-01 -1.144426e+00 -1.795632e+00 -2.144364e+00 -1.654892e+00 -1.000799e+00 -4.943257e-01 -2.531360e-01 -1.227218e-01 -2.075424e-01 -7.382960e-02 -6.613082e-14 7.382960e-02 2.075424e-01 1.227218e-01 2.531360e-01 4.943257e-01 1.000799e+00 1.654892e+00 2.144364e+00 1.795632e+00 1.144426e+00 6.215479e-01 3.221233e-01 1.100127e-01 1.714670e-02 -1.834556e-02 
-4.620375e-15 9.397682e-02 1.148894e-01 7.197571e-02 -1.435784e-01 -4.246656e-01 -8.912703e-01 -1.290651e+00 -8.581702e-01 5.035162e-02 3.902015e-01 6.243281e-01 1.013023e+00 1.232028e+00 9.831975e-01 6.751981e-01 -4.358758e-14 -6.751981e-01 -9.831975e-01 -1.232028e+00 -1.013023e+00 -6.243281e-01 -3.902015e-01 -5.035162e-02 8.581702e-01 1.290651e+00 8.912703e-01 4.246656e-01 1.435784e-01 -7.197571e-02 -1.148894e-01 -9.397682e-02 
-4.420049e-15 1.877726e-01 3.109228e-01 3.649860e-01 2.657813e-01 1.449045e-01 -9.793990e-02 -3.268560e-01 5.787326e-01 1.060066e+00 1.465345e+00 1.979048e+00 2.201802e+00 2.115122e+00 1.678628e+00 9.877724e-01 -2.653262e-14 -9.877724e-01 -1.678628e+00 -2.115122e+00 -2.201802e+00 -1.979048e+00 -1.465345e+00 -1.060066e+00 -5.787326e-01 3.268560e-01 9.793990e-02 -1.449045e-01 -2.657813e-01 -3.649860e-01 -3.109228e-01 -1.877726e-01 
-6.141893e-16 2.672815e-01 4.893682e-01 6.843276e-01 6.811930e-01 8.498012e-01 3.163748e-02 5.801066e-01 1.723923e+00 1.869930e+00 2.212220e+00 2.023085e+00 1.559823e+00 1.087224e+00 6.967460e-01 3.634816e-01 -2.805702e-15 -3.634816e-01 -6.967460e-01 -1.087224e+00 -1.559823e+00 -2.023085e+00 -2.212220e+00 -1.869930e+00 -1.723923e+00 -5.801066e-01 -3.163748e-02 -8.498012e-01 -6.811930e-01 -6.843276e-01 -4.893682e-01 -2.672815e-01 
-6.928640e-15 2.883444e-01 5.968564e-01 8.837380e-01 1.257846e+00 1.277966e+00 7.616507e-02 1.825753e+00 2.548563e+00 2.165488e+00 1.700715e+00 9.986051e-01 5.788401e-01 3.164171e-01 1.433588e-01 6.028478e-02 4.066736e-15 -6.028478e-02 -1.433588e-01 -3.164171e-01 -5.788401e-01 -9.986051e-01 -1.700715e+00 -2.165488e+00 -2.548563e+00 -1.825753e+00 -7.616507e-02 -1.277966e+00 -1.257846e+00 -8.837380e-01 -5.968564e-01 -2.883444e-01 
1.830226e-14 2.319887e-01 5.946594e-01 9.901047e-01 1.796228e+00 9.054420e-01 1.439690e+00 2.926340e+00 2.440226e+00 1.879150e+00 1.333347e+00 9.656078e-01 7.274035e-01 4.933934e-01 2.649476e-01 1.059823e-01 5.735467e-15 -1.059823e-01 -2.649476e-01 -4.933934e-01 -7.274035e-01 -9.656078e-01 -1.333347e+00 -1.879150e+00 -2.440226e+00 -2.926340e+00 -1.439690e+00 -9.054420e-01 -1.796228e+00 -9.901047e-01 -5.946594e-01 -2.319887e-01 
1.985993e-15 7.922292e-02 2.767020e-01 6.690586e-01 9.522894e-01 5.592659e-01 2.629075e+00 2.732969e+00 2.065016e+00 1.939689e+00 1.770734e+00 1.480713e+00 1.056211e+00 6.654195e-01 3.386073e-01 1.295261e-01 1.319662e-15 -1.295261e-01 -3.386073e-01 -6.654195e-01 -1.056211e+00 -1.480713e+00 -1.770734e+00 -1.939689e+00 -2.065016e+00 -2.732969e+00 -2.629075e+00 -5.592659e-01 -9.522894e-01 -6.690586e-01 -2.767020e-01 -7.922292e-02 
2.857564e-14 -2.034124e-01 -3.507528e-01 -3.893738e-01 -3.174292e-01 1.399315e+00 3.022940e+00 2.380883e+00 2.365839e+00 2.502256e+00 2.260542e+00 1.925258e+00 1.426213e+00 9.676231e-01 5.469677e-01 2.362328e-01 1.567421e-15 -2.362328e-01 -5.469677e-01 -9.676231e-01 -1.426213e+00 -1.925258e+00 -2.260542e+00 -2.502256e+00 -2.365839e+00 -2.380883e+00 -3.022940e+00 -1.399315e+00 3.174292e-01 3.893738e-01 3.507528e-01 2.034124e-01 
2.551395e-15 -3.934563e-01 -7.399787e-01 -1.117529e+00 -7.102594e-01 2.032134e+00 3.174528e+00 2.545323e+00 2.632880e+00 2.760458e+00 2.563621e+00 2.205598e+00 1.646412e+00 1.103805e+00 6.207248e-01 2.666142e-01 3.032355e-15 -2.666142e-01 -6.207248e-01 -1.103805e+00 -1.646412e+00 -2.205598e+00 -2.563621e+00 -2.760458e+00 -2.632880e+00 -2.545323e+00 -3.174528e+00 -2.032134e+00 7.102594e-01 1.117529e+00 7.399787e-01 3.934563e-01 
-5.591804e-15 -2.034124e-01 -3.507528e-01 -3.893738e-01 -3.174292e-01 1.399315e+00 3.022940e+00 2.380883e+00 2.365839e+00 2.502256e+00 2.260542e+00 1.925258e+00 1.426213e+00 9.676231e-01 5.469677e-01 2.362328e-01 3.882772e-15 -2.362328e-01 -5.469677e-01 -9.676231e-01 -1.426213e+00 -1.925258e+00 -2.260542e+00 -2.502256e+00 -2.365839e+00 -2.380883e+00 -3.022940e+00 -1.399315e+00 3.174292e-01 3.893738e-01 3.507528e-01 2.034124e-01 
7.928777e-15 7.922292e-02 2.767020e-01 6.690586e-01 9.522894e-01 5.592659e-01 2.629075e+00 2.732969e+00 2.065016e+00 1.939689e+00 1.770734e+00 1.480713e+00 1.056211e+00 6.654195e-01 3.386073e-01 1.295261e-01 1.104119e-14 -1.295261e-01 -3.386073e-01 -6.654195e-01 -1.056211e+00 -1.480713e+00 -1.770734e+00 -1.939689e+00 -2.065016e+00 -2.732969e+00 -2.629075e+00 -5.592659e-01 -9.522894e-01 -6.690586e-01 -2.767020e-01 -7.922292e-02 
-7.411133e-15 2.319887e-01 5.946594e-01 9.901047e-01 1.796228e+00 9.054420e-01 1.439690e+00 2.926340e+00 2.440226e+00 1.879150e+00 1.333347e+00 9.656078e-01 7.274035e-01 4.933934e-01 2.649476e-01 1.059823e-01 9.271508e-15 -1.059823e-01 -2.649476e-01 -4.933934e-01 -7.274035e-01 -9.656078e-01 -1.333347e+00 -1.879150e+00 -2.440226e+00 -2.926340e+00 -1.439690e+00 -9.054420e-01 -1.796228e+00 -9.901047e-01 -5.946594e-01 -2.319887e-01 
2.722197e-15 2.883444e-01 5.968564e-01 8.837380e-01 1.257846e+00 1.277966e+00 7.616507e-02 1.825753e+00 2.548563e+00 2.165488e+00 1.700715e+00 9.986051e-01 5.788401e-01 3.164171e-01 1.433588e-01 6.028478e-02 1.158587e-14 -6.028478e-02 -1.433588e-01 -3.164171e-01 -5.788401e-01 -9.986051e-01 -1.700715e+00 -2.165488e+00 -2.548563e+00 -1.825753e+00 -7.616507e-02 -1.277966e+00 -1.257846e+00 -8.837380e-01 -5.968564e-01 -2.883444e-01 
3.616722e-15 2.672815e-01 4.893682e-01 6.843276e-01 6.811930e-01 8.498012e-01 3.163748e-02 5.801066e-01 1.723923e+00 1.869930e+00 2.212220e+00 2.023085e+00 1.559823e+00 1.087224e+00 6.967460e-01 3.634816e-01 1.770360e-14 -3.634816e-01 -6.967460e-01 -1.087224e+00 -1.559823e+00 -2.023085e+00 -2.212220e+00 -1.869930e+00 -1.723923e+00 -5.801066e-01 -3.163748e-02 -8.498012e-01 -6.811930e-01 -6.843276e-01 -4.893682e-01 -2.672815e-01 
-1.259289e-15 1.877726e-01 3.109228e-01 3.649860e-01 2.657813e-01 1.449045e-01 -9.793990e-02 -3.268560e-01 5.787326e-01 1.060066e+00 1.465345e+00 1.979048e+00 2.201802e+00 2.115122e+00 1.678628e+00 9.877724e-01 -5.745686e-15 -9.877724e-01 -1.678628e+00 -2.115122e+00 -2.201802e+00 -1.979048e+00 -1.465345e+00 -1.060066e+00 -5.787326e-01 3.268560e-01 9.793990e-02 -1.449045e-01 -2.657813e-01 -3.649860e-01 -3.109228e-01 -1.877726e-01 
-1.437547e-15 9.397682e-02 1.148894e-01 7.197571e-02 -1.435784e-01 -4.246656e-01 -8.912703e-01 -1.290651e+00 -8.581702e-01 5.035162e-02 3.902015e-01 6.243281e-01 1.013023e+00 1.232028e+00 9.831975e-01 6.751981e-01 -2.010651e-13 -6.751981e-01 -9.831975e-01 -1.232028e+00 -1.013023e+00 -6.243281e-01 -3.902015e-01 -5.035162e-02 8.581702e-01 1.290651e+00 8.912703e-01 4.246656e-01 1.435784e-01 -7.197571e-02 -1.148894e-01 -9.397682e-02 
-2.222676e-15 1.834556e-02 -1.714670e-02 -1.100127e-01 -3.221233e-01 -6.215479e-01 -1.144426e+00 -1.795632e+00 -2.144364e+00 -1.654892e+00 -1.000799e+00 -4.943257e-01 -2.531360e-01 -1.227218e-01 -2.075424e-01 -7.382960e-02 -1.239670e-13 7.382960e-02 2.075424e-01 1.227218e-01 2.531360e-01 4.943257e-01 1.000799e+00 1.654892e+00 2.144364e+00 1.795632e+00 1.144426e+00 6.215479e-01 3.221233e-01 1.100127e-01 1.714670e-02 -1.834556e-02 
-6.603671e-15 -4.155939e-02 -1.240492e-01 -2.426549e-01 -4.514257e-01 -7.050673e-01 -1.072525e+00 -1.585868e+00 -2.221720e+00 -2.551989e+00 -2.346074e+00 -1.806499e+00 -1.324600e+00 -8.549993e-01 -4.750965e-01 -3.092673e-01 1.212550e-13 3.092673e-01 4.750965e-01 8.549993e-01 1.324600e+00 1.806499e+00 2.346074e+00 2.551989e+00 2.221720e+00 1.585868e+00 1.072525e+00 7.050673e-01 4.514257e-01 2.426549e-01 1.240492e-01 4.155939e-02 
-4.049238e-15 -7.685066e-02 -1.799769e-01 -3.085655e-01 -4.974058e-01 -7.178534e-01 -1.006236e+00 -1.316159e+00 -1.653906e+00 -1.965930e+00 -2.187270e+00 -2.088905e+00 -1.672662e+00 -1.114282e+00 -4.575777e-01 -2.598402e-01 1.065206e-13 2.598402e-01 4.575777e-01 1.114282e+00 1.672662e+00 2.088905e+00 2.187270e+00 1.965930e+00 1.653906e+00 1.316159e+00 1.006236e+00 7.178534e-01 4.974058e-01 3.085655e-01 1.799769e-01 7.685066e-02 
-8.419093e-15 -1.013255e-01 -2.201959e-01 -3.524544e-01 -5.245892e-01 -7.126424e-01 -9.375462e-01 -1.165473e+00 -1.382765e+00 -1.531994e+00 -1.564048e+00 -1.457849e+00 -1.220304e+00 -8.962061e-01 -3.542208e-01 -1.023703e-01 5.095756e-14 1.023703e-01 3.542208e-01 8.962061e-01 1.220304e+00 1.457849e+00 1.564048e+00 1.531994e+00 1.382765e+00 1.165473e+00 9.375462e-01 7.126424e-01 5.245892e-01 3.524544e-01 2.201959e-01 1.013255e-01 
-4.265947e-15 -1.130783e-01 -2.371167e-01 -3.680962e-01 -5.240210e-01 -6.849504e-01 -8.673527e-01 -1.036878e+00 -1.190827e+00 -1.285363e+00 -1.311164e+00 -1.221018e+00 -9.950034e-01 -7.345276e-01 -3.653024e-01 -7.187005e-02 4.604484e-14 7.187005e-02 3.653024e-01 7.345276e-01 9.950034e-01 1.221018e+00 1.311164e+00 1.285363e+00 1.190827e+00 1.036878e+00 8.673527e-01 6.849504e-01 5.240210e-01 3.680962e-01 2.371167e-01 1.130783e-01 
-6.976709e-15 -1.210156e-01 -2.489248e-01 -3.791635e-01 -5.240482e-01 -6.679908e-01 -8.203778e-01 -9.585037e-01 -1.078028e+00 -1.149022e+00 -1.159671e+00 -1.103905e+00 -9.886270e-01 -8.377080e-01 -5.986921e-01 -2.538392e-01 1.846240e-14 2.538392e-01 5.986921e-01 8.377080e-01 9.886270e-01 1.103905e+00 1.159671e+00 1.149022e+00 1.078028e+00 9.585037e-01 8.203778e-01 6.679908e-01 5.240482e-01 3.791635e-01 2.489248e-01 1.210156e-01 
-2.812288e-15 -1.239751e-01 -2.526263e-01 -3.810789e-01 -5.193470e-01 -6.527211e-01 -7.912773e-01 -9.138277e-01 -1.025033e+00 -1.102522e+00 -1.148549e+00 -1.157602e+00 -1.123398e+00 -1.055369e+00 -8.784707e-01 -5.126020e-01 8.777361e-15 5.126020e-01 8.784707e-01 1.055369e+00 1.123398e+00 1.157602e+00 1.148549e+00 1.102522e+00 1.025033e+00 9.138277e-01 7.912773e-01 6.527211e-01 5.193470e-01 3.810789e-01 2.526263e-01 1.239751e-01 
-4.735570e-15 -1.259341e-01 -2.549942e-01 -3.827615e-01 -5.163508e-01 -6.441923e-01 -7.725482e-01 -8.868337e-01 -9.893056e-01 -1.068683e+00 -1.126518e+00 -1.170026e+00 -1.192930e+00 -1.191355e+00 -1.063849e+00 -7.154181e-01 -7.797713e-16 7.154181e-01 1.063849e+00 1.191355e+00 1.192930e+00 1.170026e+00 1.126518e+00 1.068683e+00 9.893056e-01 8.868337e-01 7.725482e-01 6.441923e-01 5.163508e-01 3.827615e-01 2.549942e-01 1.259341e-01 
