# vtk DataFile Version 2.0
Comment goes here
ASCII

DATASET STRUCTURED_POINTS
FIELD FieldData 1
TIME 1 1 double
1.04000000
DIMENSIONS    32   32   1

ORIGIN    0.000   0.000   0.000
SPACING   0.03125 0.03125   1.000

POINT_DATA   1024
SCALARS uX double
LOOKUP_TABLE default

-2.166683e-14 -3.137095e-04 -1.876083e-02 -6.210882e-02 -1.492870e-01 -2.717094e-01 -4.423839e-01 -6.390216e-01 -8.583866e-01 -1.071752e+00 -1.252216e+00 -1.378592e+00 -1.400218e+00 -1.309295e+00 -1.051495e+00 -6.196382e-01 1.149903e-13 6.196382e-01 1.051495e+00 1.309295e+00 1.400218e+00 1.378592e+00 1.252216e+00 1.071752e+00 8.583866e-01 6.390216e-01 4.423839e-01 2.717094e-01 1.492870e-01 6.210882e-02 1.876083e-02 3.137095e-04 
-1.385000e-14 5.790536e-03 -6.855767e-03 -4.429106e-02 -1.251696e-01 -2.397361e-01 -4.010177e-01 -5.863987e-01 -7.935521e-01 -9.939889e-01 -1.163324e+00 -1.280724e+00 -1.302788e+00 -1.219543e+00 -9.876801e-01 -5.885805e-01 4.559681e-14 5.885805e-01 9.876801e-01 1.219543e+00 1.302788e+00 1.280724e+00 1.163324e+00 9.939889e-01 7.935521e-01 5.863987e-01 4.010177e-01 2.397361e-01 1.251696e-01 4.429106e-02 6.855767e-03 -5.790536e-03 
-9.723240e-15 2.736622e-02 3.535512e-02 1.861200e-02 -4.100842e-02 -1.293471e-01 -2.613861e-01 -4.099863e-01 -5.802415e-01 -7.418908e-01 -8.789061e-01 -9.828664e-01 -1.009989e+00 -9.757267e-01 -8.254477e-01 -5.110636e-01 4.340431e-15 5.110636e-01 8.254477e-01 9.757267e-01 1.009989e+00 9.828664e-01 8.789061e-01 7.418908e-01 5.802415e-01 4.099863e-01 2.613861e-01 1.293471e-01 4.100842e-02 -1.861200e-02 -3.535512e-02 -2.736622e-02 
-3.156497e-15 5.730824e-02 9.287873e-02 1.021712e-01 6.694772e-02 7.460257e-03 -9.294030e-02 -2.016751e-01 -3.311052e-01 -4.500767e-01 -5.491500e-01 -6.282585e-01 -6.464020e-01 -6.336054e-01 -5.681942e-01 -3.633398e-01 -1.244612e-14 3.633398e-01 5.681942e-01 6.336054e-01 6.464020e-01 6.282585e-01 5.491500e-01 4.500767e-01 3.311052e-01 2.016751e-01 9.294030e-02 -7.460257e-03 -6.694772e-02 -1.021712e-01 -9.287873e-02 -5.730824e-02 
7.210303e-15 9.511381e-02 1.653051e-01 2.051949e-01 1.966745e-01 1.667952e-01 9.561658e-02 2.916678e-02 -6.231652e-02 -1.314914e-01 -1.876576e-01 -2.439807e-01 -2.346507e-01 -2.710663e-01 -3.009949e-01 -1.869631e-01 4.801049e-15 1.869631e-01 3.009949e-01 2.710663e-01 2.346507e-01 2.439807e-01 1.876576e-01 1.314914e-01 6.231652e-02 -2.916678e-02 -9.561658e-02 -1.667952e-01 -1.966745e-01 -2.051949e-01 -1.653051e-01 -9.511381e-02 
1.904550e-14 1.322703e-01 2.355093e-01 3.029594e-01 3.144785e-01 3.038910e-01 2.462049e-01 2.002469e-01 1.224584e-01 6.966708e-02 2.931899e-02 -2.036495e-02 6.454308e-02 1.274754e-01 1.185029e-01 1.105529e-01 9.692979e-14 -1.105529e-01 -1.185029e-01 -1.274754e-01 -6.454308e-02 2.036495e-02 -2.931899e-02 -6.966708e-02 -1.224584e-01 -2.002469e-01 -2.462049e-01 -3.038910e-01 -3.144785e-01 -3.029594e-01 -2.355093e-01 -1.322703e-01 
3.883556e-14 1.643675e-01 2.975058e-01 3.866976e-01 4.152916e-01 4.164810e-01 3.620993e-01 3.317811e-01 2.458490e-01 2.295828e-01 2.103954e-01 1.839408e-01 3.924398e-01 3.607029e-01 3.262451e-01 2.725380e-01 2.027178e-13 -2.725380e-01 -3.262451e-01 -3.607029e-01 -3.924398e-01 -1.839408e-01 -2.103954e-01 -2.295828e-01 -2.458490e-01 -3.317811e-01 -3.620993e-01 -4.164810e-01 -4.152916e-01 -3.866976e-01 -2.975058e-01 -1.643675e-01 
5.454557e-14 1.839620e-01 3.358846e-01 4.382082e-01 4.759942e-01 4.838471e-01 4.227839e-01 3.913498e-01 2.729872e-01 2.191894e-01 9.393265e-02 -1.658060e-02 3.658482e-01 7.336201e-01 1.101600e+00 7.603667e-01 3.548461e-13 -7.603667e-01 -1.101600e+00 -7.336201e-01 -3.658482e-01 1.658060e-02 -9.393265e-02 -2.191894e-01 -2.729872e-01 -3.913498e-01 -4.227839e-01 -4.838471e-01 -4.759942e-01 -4.382082e-01 -3.358846e-01 -1.839620e-01 
7.439869e-14 1.858960e-01 3.443807e-01 4.433614e-01 4.889806e-01 4.871925e-01 4.193265e-01 3.725889e-01 1.668532e-01 1.741156e-01 -2.995107e-02 5.738259e-01 9.943600e-01 1.072524e+00 1.017746e+00 4.321328e-01 1.261943e-13 -4.321328e-01 -1.017746e+00 -1.072524e+00 -9.943600e-01 -5.738259e-01 2.995107e-02 -1.741156e-01 -1.668532e-01 -3.725889e-01 -4.193265e-01 -4.871925e-01 -4.889806e-01 -4.433614e-01 -3.443807e-01 -1.858960e-01 
8.259730e-14 1.683234e-01 3.165888e-01 4.026222e-01 4.513830e-01 4.525700e-01 3.868000e-01 3.721326e-01 1.510559e-01 8.593018e-02 3.064130e-01 1.062739e+00 4.745990e-01 -1.525798e-01 -4.714406e-01 -3.952336e-01 -4.300873e-13 3.952336e-01 4.714406e-01 1.525798e-01 -4.745990e-01 -1.062739e+00 -3.064130e-01 -8.593018e-02 -1.510559e-01 -3.721326e-01 -3.868000e-01 -4.525700e-01 -4.513830e-01 -4.026222e-01 -3.165888e-01 -1.683234e-01 
9.110952e-14 1.293016e-01 2.517635e-01 3.082015e-01 3.715718e-01 3.449913e-01 3.362251e-01 1.896497e-01 -2.343832e-01 -4.248539e-01 3.369258e-01 7.933483e-02 -4.395804e-01 -5.282584e-02 1.355417e-01 3.459290e-01 -2.361297e-13 -3.459290e-01 -1.355417e-01 5.282584e-02 4.395804e-01 -7.933483e-02 -3.369258e-01 4.248539e-01 2.343832e-01 -1.896497e-01 -3.362251e-01 -3.449913e-01 -3.715718e-01 -3.082015e-01 -2.517635e-01 -1.293016e-01 
8.531706e-14 6.578065e-02 1.433968e-01 1.602853e-01 2.357048e-01 1.938025e-01 2.098828e-01 4.848495e-02 -7.625596e-01 -5.938804e-02 6.466642e-01 2.819468e-01 7.155975e-01 9.796456e-01 6.437960e-01 4.552116e-01 4.424686e-14 -4.552116e-01 -6.437960e-01 -9.796456e-01 -7.155975e-01 -2.819468e-01 -6.466642e-01 5.938804e-02 7.625596e-01 -4.848495e-02 -2.098828e-01 -1.938025e-01 -2.357048e-01 -1.602853e-01 -1.433968e-01 -6.578065e-02 
7.609248e-14 -2.442290e-02 -2.036715e-02 -3.743001e-02 5.520278e-02 9.343423e-03 2.152477e-01 -2.668342e-01 -8.727369e-01 9.352170e-01 6.719028e-01 5.360497e-01 4.977582e-01 2.634267e-01 3.941994e-02 -4.264044e-02 1.259265e-13 4.264044e-02 -3.941994e-02 -2.634267e-01 -4.977582e-01 -5.360497e-01 -6.719028e-01 -9.352170e-01 8.727369e-01 2.668342e-01 -2.152477e-01 -9.343423e-03 -5.520278e-02 3.743001e-02 2.036715e-02 2.442290e-02 
4.873522e-14 -1.534161e-01 -2.478230e-01 -3.357778e-01 -2.132753e-01 -3.497486e-01 1.882068e-01 -9.883554e-01 1.681622e-01 1.532592e+00 2.580178e-01 3.448000e-01 7.613919e-03 3.010273e-02 5.438737e-02 6.208260e-03 1.009897e-13 -6.208260e-03 -5.438737e-02 -3.010273e-02 -7.613919e-03 -3.448000e-01 -2.580178e-01 -1.532592e+00 -1.681622e-01 9.883554e-01 -1.882068e-01 3.497486e-01 2.132753e-01 3.357778e-01 2.478230e-01 1.534161e-01 
2.296446e-14 -3.128827e-01 -5.680400e-01 -7.001550e-01 -7.175434e-01 -6.619763e-01 -4.039872e-01 -5.255788e-01 1.401839e+00 8.279195e-01 1.565850e-01 2.975591e-01 2.284515e-01 1.244249e-01 4.783582e-02 -1.963340e-02 7.846271e-14 1.963340e-02 -4.783582e-02 -1.244249e-01 -2.284515e-01 -2.975591e-01 -1.565850e-01 -8.279195e-01 -1.401839e+00 5.255788e-01 4.039872e-01 6.619763e-01 7.175434e-01 7.001550e-01 5.680400e-01 3.128827e-01 
7.960347e-15 -4.600190e-01 -8.695794e-01 -1.026177e+00 -1.206063e+00 -8.520862e-01 -9.599204e-01 7.642148e-01 1.172553e+00 -4.039255e-01 3.781278e-01 2.564416e-01 3.209881e-01 1.348840e-01 1.090281e-01 1.481442e-02 -2.505870e-15 -1.481442e-02 -1.090281e-01 -1.348840e-01 -3.209881e-01 -2.564416e-01 -3.781278e-01 4.039255e-01 -1.172553e+00 -7.642148e-01 9.599204e-01 8.520862e-01 1.206063e+00 1.026177e+00 8.695794e-01 4.600190e-01 
-7.433504e-15 -5.291653e-01 -9.930452e-01 -1.186856e+00 -1.389052e+00 -9.952505e-01 -1.083900e+00 1.197448e+00 7.286614e-01 -6.654456e-01 6.936272e-01 4.908659e-01 5.426396e-01 2.663758e-01 1.708023e-01 3.903968e-02 -4.595462e-14 -3.903968e-02 -1.708023e-01 -2.663758e-01 -5.426396e-01 -4.908659e-01 -6.936272e-01 6.654456e-01 -7.286614e-01 -1.197448e+00 1.083900e+00 9.952505e-01 1.389052e+00 1.186856e+00 9.930452e-01 5.291653e-01 
-1.079353e-14 -4.600190e-01 -8.695794e-01 -1.026177e+00 -1.206063e+00 -8.520862e-01 -9.599204e-01 7.642148e-01 1.172553e+00 -4.039255e-01 3.781278e-01 2.564416e-01 3.209881e-01 1.348840e-01 1.090281e-01 1.481442e-02 -1.241492e-13 -1.481442e-02 -1.090281e-01 -1.348840e-01 -3.209881e-01 -2.564416e-01 -3.781278e-01 4.039255e-01 -1.172553e+00 -7.642148e-01 9.599204e-01 8.520862e-01 1.206063e+00 1.026177e+00 8.695794e-01 4.600190e-01 
-2.910478e-14 -3.128827e-01 -5.680400e-01 -7.001550e-01 -7.175434e-01 -6.619763e-01 -4.039872e-01 -5.255788e-01 1.401839e+00 8.279195e-01 1.565850e-01 2.975591e-01 2.284515e-01 1.244249e-01 4.783582e-02 -1.963340e-02 -1.811568e-13 1.963340e-02 -4.783582e-02 -1.244249e-01 -2.284515e-01 -2.975591e-01 -1.565850e-01 -8.279195e-01 -1.401839e+00 5.255788e-01 4.039872e-01 6.619763e-01 7.175434e-01 7.001550e-01 5.680400e-01 3.128827e-01 
-6.257822e-14 -1.534161e-01 -2.478230e-01 -3.357778e-01 -2.132753e-01 -3.497486e-01 1.882068e-01 -9.883554e-01 1.681622e-01 1.532592e+00 2.580178e-01 3.448000e-01 7.613919e-03 3.010273e-02 5.438737e-02 6.208260e-03 -2.234973e-13 -6.208260e-03 -5.438737e-02 -3.010273e-02 -7.613919e-03 -3.448000e-01 -2.580178e-01 -1.532592e+00 -1.681622e-01 9.883554e-01 -1.882068e-01 3.497486e-01 2.132753e-01 3.357778e-01 2.478230e-01 1.534161e-01 
-8.032843e-14 -2.442290e-02 -2.036715e-02 -3.743001e-02 5.520278e-02 9.343423e-03 2.152477e-01 -2.668342e-01 -8.727369e-01 9.352170e-01 6.719028e-01 5.360497e-01 4.977582e-01 2.634267e-01 3.941994e-02 -4.264044e-02 -1.602660e-13 4.264044e-02 -3.941994e-02 -2.634267e-01 -4.977582e-01 -5.360497e-01 -6.719028e-01 -9.352170e-01 8.727369e-01 2.668342e-01 -2.152477e-01 -9.343423e-03 -5.520278e-02 3.743001e-02 2.036715e-02 2.442290e-02 
-9.720771e-14 6.578065e-02 1.433968e-01 1.602853e-01 2.357048e-01 1.938025e-01 2.098828e-01 4.848495e-02 -7.625596e-01 -5.938804e-02 6.466642e-01 2.819468e-01 7.155975e-01 9.796456e-01 6.437960e-01 4.552116e-01 1.850702e-13 -4.552116e-01 -6.437960e-01 -9.796456e-01 -7.155975e-01 -2.819468e-01 -6.466642e-01 5.938804e-02 7.625596e-01 -4.848495e-02 -2.098828e-01 -1.938025e-01 -2.357048e-01 -1.602853e-01 -1.433968e-01 -6.578065e-02 
-9.776178e-14 1.293016e-01 2.517635e-01 3.082015e-01 3.715718e-01 3.449913e-01 3.362251e-01 1.896497e-01 -2.343832e-01 -4.248539e-01 3.369258e-01 7.933483e-02 -4.395804e-01 -5.282584e-02 1.355417e-01 3.459290e-01 8.870786e-13 -3.459290e-01 -1.355417e-01 5.282584e-02 4.395804e-01 -7.933483e-02 -3.369258e-01 4.248539e-01 2.343832e-01 -1.896497e-01 -3.362251e-01 -3.449913e-01 -3.715718e-01 -3.082015e-01 -2.517635e-01 -1.293016e-01 
-9.901116e-14 1.683234e-01 3.165888e-01 4.026222e-01 4.513830e-01 4.525700e-01 3.868000e-01 3.721326e-01 1.510559e-01 8.593018e-02 3.064130e-01 1.062739e+00 4.745990e-01 -1.525798e-01 -4.714406e-01 -3.952336e-01 9.139532e-13 3.952336e-01 4.714406e-01 1.525798e-01 -4.745990e-01 -1.062739e+00 -3.064130e-01 -8.593018e-02 -1.510559e-01 -3.721326e-01 -3.868000e-01 -4.525700e-01 -4.513830e-01 -4.026222e-01 -3.165888e-01 -1.683234e-01 
-9.072468e-14 1.858960e-01 3.443807e-01 4.433614e-01 4.889806e-01 4.871925e-01 4.193265e-01 3.725889e-01 1.668532e-01 1.741156e-01 -2.995107e-02 5.738259e-01 9.943600e-01 1.072524e+00 1.017746e+00 4.321328e-01 -8.000216e-13 -4.321328e-01 -1.017746e+00 -1.072524e+00 -9.943600e-01 -5.738259e-01 2.995107e-02 -1.741156e-01 -1.668532e-01 -3.725889e-01 -4.193265e-01 -4.871925e-01 -4.889806e-01 -4.433614e-01 -3.443807e-01 -1.858960e-01 
-7.627045e-14 1.839620e-01 3.358846e-01 4.382082e-01 4.759942e-01 4.838471e-01 4.227839e-01 3.913498e-01 2.729872e-01 2.191894e-01 9.393265e-02 -1.658060e-02 3.658482e-01 7.336201e-01 1.101600e+00 7.603667e-01 -1.219761e-12 -7.603667e-01 -1.101600e+00 -7.336201e-01 -3.658482e-01 1.658060e-02 -9.393265e-02 -2.191894e-01 -2.729872e-01 -3.913498e-01 -4.227839e-01 -4.838471e-01 -4.759942e-01 -4.382082e-01 -3.358846e-01 -1.839620e-01 
-6.385407e-14 1.643675e-01 2.975058e-01 3.866976e-01 4.152916e-01 4.164810e-01 3.620993e-01 3.317811e-01 2.458490e-01 2.295828e-01 2.103954e-01 1.839408e-01 3.924398e-01 3.607029e-01 3.262451e-01 2.725380e-01 -6.483635e-13 -2.725380e-01 -3.262451e-01 -3.607029e-01 -3.924398e-01 -1.839408e-01 -2.103954e-01 -2.295828e-01 -2.458490e-01 -3.317811e-01 -3.620993e-01 -4.164810e-01 -4.152916e-01 -3.866976e-01 -2.975058e-01 -1.643675e-01 
-4.599067e-14 1.322703e-01 2.355093e-01 3.029594e-01 3.144785e-01 3.038910e-01 2.462049e-01 2.002469e-01 1.224584e-01 6.966708e-02 2.931899e-02 -2.036495e-02 6.454308e-02 1.274754e-01 1.185029e-01 1.105529e-01 -2.827470e-13 -1.105529e-01 -1.185029e-01 -1.274754e-01 -6.454308e-02 2.036495e-02 -2.931899e-02 -6.966708e-02 -1.224584e-01 -2.002469e-01 -2.462049e-01 -3.038910e-01 -3.144785e-01 -3.029594e-01 -2.355093e-01 -1.322703e-01 
-4.170733e-14 9.511381e-02 1.653051e-01 2.051949e-01 1.966745e-01 1.667952e-01 9.561658e-02 2.916678e-02 -6.231652e-02 -1.314914e-01 -1.876576e-01 -2.439807e-01 -2.346507e-01 -2.710663e-01 -3.009949e-01 -1.869631e-01 1.035149e-13 1.869631e-01 3.009949e-01 2.710663e-01 2.346507e-01 2.439807e-01 1.876576e-01 1.314914e-01 6.231652e-02 -2.916678e-02 -9.561658e-02 -1.667952e-01 -1.966745e-01 -2.051949e-01 -1.653051e-01 -9.511381e-02 
-3.005768e-14 5.730824e-02 9.287873e-02 1.021712e-01 6.694772e-02 7.460257e-03 -9.294030e-02 -2.016751e-01 -3.311052e-01 -4.500767e-01 -5.491500e-01 -6.282585e-01 -6.464020e-01 -6.336054e-01 -5.681942e-01 -3.633398e-01 2.139245e-13 3.633398e-01 5.681942e-01 6.336054e-01 6.464020e-01 6.282585e-01 5.491500e-01 4.500767e-01 3.311052e-01 2.016751e-01 9.294030e-02 -7.460257e-03 -6.694772e-02 -1.021712e-01 -9.287873e-02 -5.730824e-02 
-3.128537e-14 2.736622e-02 3.535512e-02 1.861200e-02 -4.100842e-02 -1.293471e-01 -2.613861e-01 -4.099863e-01 -5.802415e-01 -7.418908e-01 -8.789061e-01 -9.828664e-01 -1.009989e+00 -9.757267e-01 -8.254477e-01 -5.110636e-01 2.608867e-13 5.110636e-01 8.254477e-01 9.757267e-01 1.009989e+00 9.828664e-01 8.789061e-01 7.418908e-01 5.802415e-01 4.099863e-01 2.613861e-01 1.293471e-01 4.100842e-02 -1.861200e-02 -3.535512e-02 -2.736622e-02 
-2.259087e-14 5.790536e-03 -6.855767e-03 -4.429106e-02 -1.251696e-01 -2.397361e-01 -4.010177e-01 -5.863987e-01 -7.935521e-01 -9.939889e-01 -1.163324e+00 -1.280724e+00 -1.302788e+00 -1.219543e+00 -9.876801e-01 -5.885805e-01 1.763307e-13 5.885805e-01 9.876801e-01 1.219543e+00 1.302788e+00 1.280724e+00 1.163324e+00 9.939889e-01 7.935521e-01 5.863987e-01 4.010177e-01 2.397361e-01 1.251696e-01 4.429106e-02 6.855767e-03 -5.790536e-03 
