# vtk DataFile Version 2.0
Comment goes here
ASCII

DATASET STRUCTURED_POINTS
FIELD FieldData 1
TIME 1 1 double
0.88000000
DIMENSIONS    32   32   1

ORIGIN    0.000   0.000   0.000
SPACING   0.03125 0.03125   1.000

POINT_DATA   1024
SCALARS uX double
LOOKUP_TABLE default

7.217335e-16 9.987230e-03 1.063499e-02 -2.194490e-02 -7.556125e-02 -1.849319e-01 -3.147538e-01 -5.078649e-01 -6.986534e-01 -9.340471e-01 -1.114012e+00 -1.289940e+00 -1.336095e+00 -1.297826e+00 -1.056731e+00 -6.428864e-01 3.619589e-15 6.428864e-01 1.056731e+00 1.297826e+00 1.336095e+00 1.289940e+00 1.114012e+00 9.340471e-01 6.986534e-01 5.078649e-01 3.147538e-01 1.849319e-01 7.556125e-02 2.194490e-02 -1.063499e-02 -9.987230e-03 
-9.499133e-16 1.566181e-02 2.197146e-02 -5.104765e-03 -5.177672e-02 -1.526186e-01 -2.700649e-01 -4.482337e-01 -6.201615e-01 -8.364401e-01 -9.969677e-01 -1.161160e+00 -1.204812e+00 -1.182378e+00 -9.758456e-01 -6.049459e-01 2.567277e-14 6.049459e-01 9.758456e-01 1.182378e+00 1.204812e+00 1.161160e+00 9.969677e-01 8.364401e-01 6.201615e-01 4.482337e-01 2.700649e-01 1.526186e-01 5.177672e-02 5.104765e-03 -2.197146e-02 -1.566181e-02 
1.670636e-15 3.359186e-02 5.658378e-02 4.582648e-02 1.572323e-02 -6.365398e-02 -1.552487e-01 -2.992643e-01 -4.340228e-01 -6.116253e-01 -7.376049e-01 -8.874211e-01 -9.385390e-01 -9.600899e-01 -8.309968e-01 -5.314818e-01 5.123903e-14 5.314818e-01 8.309968e-01 9.600899e-01 9.385390e-01 8.874211e-01 7.376049e-01 6.116253e-01 4.340228e-01 2.992643e-01 1.552487e-01 6.365398e-02 -1.572323e-02 -4.582648e-02 -5.658378e-02 -3.359186e-02 
-2.634601e-15 6.014865e-02 1.074819e-01 1.182026e-01 1.094145e-01 5.487426e-02 -4.296288e-03 -1.058039e-01 -1.886672e-01 -3.101402e-01 -3.749063e-01 -4.838213e-01 -5.054070e-01 -5.536739e-01 -5.232076e-01 -3.504289e-01 6.801800e-14 3.504289e-01 5.232076e-01 5.536739e-01 5.054070e-01 4.838213e-01 3.749063e-01 3.101402e-01 1.886672e-01 1.058039e-01 4.296288e-03 -5.487426e-02 -1.094145e-01 -1.182026e-01 -1.074819e-01 -6.014865e-02 
2.005604e-15 9.481498e-02 1.728666e-01 2.089554e-01 2.210724e-01 1.890329e-01 1.541954e-01 8.905355e-02 4.565308e-02 -2.770471e-02 -4.013097e-02 -1.301009e-01 -1.353877e-01 -2.185419e-01 -2.476942e-01 -1.357280e-01 4.901362e-14 1.357280e-01 2.476942e-01 2.185419e-01 1.353877e-01 1.301009e-01 4.013097e-02 2.770471e-02 -4.565308e-02 -8.905355e-02 -1.541954e-01 -1.890329e-01 -2.210724e-01 -2.089554e-01 -1.728666e-01 -9.481498e-02 
-1.425886e-15 1.306530e-01 2.398479e-01 2.983802e-01 3.262107e-01 3.052263e-01 2.805899e-01 2.323968e-01 2.079282e-01 1.676097e-01 2.074570e-01 1.558246e-01 2.859894e-01 2.994091e-01 2.718935e-01 2.335883e-01 9.896395e-15 -2.335883e-01 -2.718935e-01 -2.994091e-01 -2.859894e-01 -1.558246e-01 -2.074570e-01 -1.676097e-01 -2.079282e-01 -2.323968e-01 -2.805899e-01 -3.052263e-01 -3.262107e-01 -2.983802e-01 -2.398479e-01 -1.306530e-01 
1.196558e-14 1.645855e-01 3.039361e-01 3.828796e-01 4.243271e-01 4.103467e-01 3.860143e-01 3.466098e-01 3.160142e-01 3.058242e-01 3.979912e-01 3.304301e-01 4.320040e-01 3.596460e-01 4.868857e-01 4.750924e-01 -1.949498e-14 -4.750924e-01 -4.868857e-01 -3.596460e-01 -4.320040e-01 -3.304301e-01 -3.979912e-01 -3.058242e-01 -3.160142e-01 -3.466098e-01 -3.860143e-01 -4.103467e-01 -4.243271e-01 -3.828796e-01 -3.039361e-01 -1.645855e-01 
1.461105e-14 1.870829e-01 3.464801e-01 4.356859e-01 4.828652e-01 4.624456e-01 4.259257e-01 3.695500e-01 2.920392e-01 2.694440e-01 2.823238e-01 1.936679e-01 6.633872e-01 1.155990e+00 1.329364e+00 7.709034e-01 1.353865e-15 -7.709034e-01 -1.329364e+00 -1.155990e+00 -6.633872e-01 -1.936679e-01 -2.823238e-01 -2.694440e-01 -2.920392e-01 -3.695500e-01 -4.259257e-01 -4.624456e-01 -4.828652e-01 -4.356859e-01 -3.464801e-01 -1.870829e-01 
3.640518e-14 1.942691e-01 3.625699e-01 4.518453e-01 5.055573e-01 4.786428e-01 4.367509e-01 3.663849e-01 1.919489e-01 1.893999e-01 3.240476e-01 9.781451e-01 1.353872e+00 1.364346e+00 9.142911e-01 3.184215e-01 -2.494271e-14 -3.184215e-01 -9.142911e-01 -1.364346e+00 -1.353872e+00 -9.781451e-01 -3.240476e-01 -1.893999e-01 -1.919489e-01 -3.663849e-01 -4.367509e-01 -4.786428e-01 -5.055573e-01 -4.518453e-01 -3.625699e-01 -1.942691e-01 
3.684257e-14 1.825069e-01 3.408001e-01 4.176131e-01 4.703364e-01 4.260201e-01 3.896160e-01 2.758024e-01 -5.152489e-03 8.635367e-02 3.858355e-01 7.520861e-01 7.856649e-02 -4.052282e-01 -6.151826e-01 -3.119255e-01 -1.540310e-13 3.119255e-01 6.151826e-01 4.052282e-01 -7.856649e-02 -7.520861e-01 -3.858355e-01 -8.635367e-02 5.152489e-03 -2.758024e-01 -3.896160e-01 -4.260201e-01 -4.703364e-01 -4.176131e-01 -3.408001e-01 -1.825069e-01 
4.992216e-14 1.465588e-01 2.764628e-01 3.269918e-01 3.898191e-01 3.346140e-01 3.734495e-01 1.794300e-01 -3.893766e-01 -1.148750e-01 6.520724e-02 -2.538930e-01 -3.779235e-01 1.090242e-01 3.922711e-01 3.494118e-01 -6.996224e-14 -3.494118e-01 -3.922711e-01 -1.090242e-01 3.779235e-01 2.538930e-01 -6.520724e-02 1.148750e-01 3.893766e-01 -1.794300e-01 -3.734495e-01 -3.346140e-01 -3.898191e-01 -3.269918e-01 -2.764628e-01 -1.465588e-01 
3.544715e-14 8.719580e-02 1.625638e-01 1.882128e-01 2.472230e-01 1.735174e-01 2.465032e-01 -4.388257e-01 -8.124937e-01 2.553819e-01 7.718711e-02 3.146559e-01 5.545565e-01 6.299291e-01 4.893253e-01 2.940060e-01 2.028699e-14 -2.940060e-01 -4.893253e-01 -6.299291e-01 -5.545565e-01 -3.146559e-01 -7.718711e-02 -2.553819e-01 8.124937e-01 4.388257e-01 -2.465032e-01 -1.735174e-01 -2.472230e-01 -1.882128e-01 -1.625638e-01 -8.719580e-02 
2.552479e-14 -1.633581e-02 -3.154852e-02 -5.345633e-02 -2.360986e-02 -1.488833e-01 -1.398499e-01 -1.372071e+00 -2.373380e-01 1.174604e+00 3.699447e-01 4.515978e-01 1.390319e-01 1.446208e-03 -1.295675e-01 -7.500204e-02 4.070325e-14 7.500204e-02 1.295675e-01 -1.446208e-03 -1.390319e-01 -4.515978e-01 -3.699447e-01 -1.174604e+00 2.373380e-01 1.372071e+00 1.398499e-01 1.488833e-01 2.360986e-02 5.345633e-02 3.154852e-02 1.633581e-02 
3.478949e-15 -1.559380e-01 -2.987482e-01 -3.409755e-01 -3.868043e-01 -2.900914e-01 -4.870563e-01 -7.475832e-01 1.236735e+00 1.029764e+00 2.379728e-01 6.574245e-02 -5.404698e-02 -1.047107e-02 -1.107430e-02 -2.140690e-02 -1.408526e-15 2.140690e-02 1.107430e-02 1.047107e-02 5.404698e-02 -6.574245e-02 -2.379728e-01 -1.029764e+00 -1.236735e+00 7.475832e-01 4.870563e-01 2.900914e-01 3.868043e-01 3.409755e-01 2.987482e-01 1.559380e-01 
-2.489941e-14 -3.380500e-01 -6.406994e-01 -7.363168e-01 -8.644575e-01 -5.399779e-01 -7.826296e-01 4.432461e-01 1.001189e+00 -1.737502e-01 -1.001790e-02 -1.847987e-02 4.043327e-02 -6.155167e-02 -7.867696e-02 -7.226240e-02 4.744227e-15 7.226240e-02 7.867696e-02 6.155167e-02 -4.043327e-02 1.847987e-02 1.001790e-02 1.737502e-01 -1.001189e+00 -4.432461e-01 7.826296e-01 5.399779e-01 8.644575e-01 7.363168e-01 6.406994e-01 3.380500e-01 
-2.023952e-14 -5.073110e-01 -9.203970e-01 -1.112014e+00 -1.197469e+00 -9.793737e-01 -5.812172e-01 8.626972e-01 -1.102278e-01 -6.619731e-01 1.810978e-01 1.630049e-01 1.817662e-01 6.642328e-02 3.472706e-02 -9.790540e-03 -1.073099e-14 9.790540e-03 -3.472706e-02 -6.642328e-02 -1.817662e-01 -1.630049e-01 -1.810978e-01 6.619731e-01 1.102278e-01 -8.626972e-01 5.812172e-01 9.793737e-01 1.197469e+00 1.112014e+00 9.203970e-01 5.073110e-01 
-1.349250e-14 -5.688561e-01 -1.010978e+00 -1.231506e+00 -1.261302e+00 -1.135311e+00 -2.306101e-01 1.001087e+00 -2.894821e-01 -5.496986e-01 3.751384e-01 3.493842e-01 3.091137e-01 1.092684e-01 4.370585e-02 -1.401646e-02 -2.460090e-14 1.401646e-02 -4.370585e-02 -1.092684e-01 -3.091137e-01 -3.493842e-01 -3.751384e-01 5.496986e-01 2.894821e-01 -1.001087e+00 2.306101e-01 1.135311e+00 1.261302e+00 1.231506e+00 1.010978e+00 5.688561e-01 
2.268733e-14 -5.073110e-01 -9.203970e-01 -1.112014e+00 -1.197469e+00 -9.793737e-01 -5.812172e-01 8.626972e-01 -1.102278e-01 -6.619731e-01 1.810978e-01 1.630049e-01 1.817662e-01 6.642328e-02 3.472706e-02 -9.790540e-03 -2.593851e-14 9.790540e-03 -3.472706e-02 -6.642328e-02 -1.817662e-01 -1.630049e-01 -1.810978e-01 6.619731e-01 1.102278e-01 -8.626972e-01 5.812172e-01 9.793737e-01 1.197469e+00 1.112014e+00 9.203970e-01 5.073110e-01 
1.494423e-14 -3.380500e-01 -6.406994e-01 -7.363168e-01 -8.644575e-01 -5.399779e-01 -7.826296e-01 4.432461e-01 1.001189e+00 -1.737502e-01 -1.001790e-02 -1.847987e-02 4.043327e-02 -6.155167e-02 -7.867696e-02 -7.226240e-02 -4.858013e-14 7.226240e-02 7.867696e-02 6.155167e-02 -4.043327e-02 1.847987e-02 1.001790e-02 1.737502e-01 -1.001189e+00 -4.432461e-01 7.826296e-01 5.399779e-01 8.644575e-01 7.363168e-01 6.406994e-01 3.380500e-01 
-5.351288e-15 -1.559380e-01 -2.987482e-01 -3.409755e-01 -3.868043e-01 -2.900914e-01 -4.870563e-01 -7.475832e-01 1.236735e+00 1.029764e+00 2.379728e-01 6.574245e-02 -5.404698e-02 -1.047107e-02 -1.107430e-02 -2.140690e-02 -5.184729e-14 2.140690e-02 1.107430e-02 1.047107e-02 5.404698e-02 -6.574245e-02 -2.379728e-01 -1.029764e+00 -1.236735e+00 7.475832e-01 4.870563e-01 2.900914e-01 3.868043e-01 3.409755e-01 2.987482e-01 1.559380e-01 
-2.991454e-14 -1.633581e-02 -3.154852e-02 -5.345633e-02 -2.360986e-02 -1.488833e-01 -1.398499e-01 -1.372071e+00 -2.373380e-01 1.174604e+00 3.699447e-01 4.515978e-01 1.390319e-01 1.446208e-03 -1.295675e-01 -7.500204e-02 -8.738557e-14 7.500204e-02 1.295675e-01 -1.446208e-03 -1.390319e-01 -4.515978e-01 -3.699447e-01 -1.174604e+00 2.373380e-01 1.372071e+00 1.398499e-01 1.488833e-01 2.360986e-02 5.345633e-02 3.154852e-02 1.633581e-02 
-3.953987e-14 8.719580e-02 1.625638e-01 1.882128e-01 2.472230e-01 1.735174e-01 2.465032e-01 -4.388257e-01 -8.124937e-01 2.553819e-01 7.718711e-02 3.146559e-01 5.545565e-01 6.299291e-01 4.893253e-01 2.940060e-01 -1.198117e-13 -2.940060e-01 -4.893253e-01 -6.299291e-01 -5.545565e-01 -3.146559e-01 -7.718711e-02 -2.553819e-01 8.124937e-01 4.388257e-01 -2.465032e-01 -1.735174e-01 -2.472230e-01 -1.882128e-01 -1.625638e-01 -8.719580e-02 
-5.020931e-14 1.465588e-01 2.764628e-01 3.269918e-01 3.898191e-01 3.346140e-01 3.734495e-01 1.794300e-01 -3.893766e-01 -1.148750e-01 6.520724e-02 -2.538930e-01 -3.779235e-01 1.090242e-01 3.922711e-01 3.494118e-01 2.268246e-13 -3.494118e-01 -3.922711e-01 -1.090242e-01 3.779235e-01 2.538930e-01 -6.520724e-02 1.148750e-01 3.893766e-01 -1.794300e-01 -3.734495e-01 -3.346140e-01 -3.898191e-01 -3.269918e-01 -2.764628e-01 -1.465588e-01 
-4.121209e-14 1.825069e-01 3.408001e-01 4.176131e-01 4.703364e-01 4.260201e-01 3.896160e-01 2.758024e-01 -5.152489e-03 8.635367e-02 3.858355e-01 7.520861e-01 7.856649e-02 -4.052282e-01 -6.151826e-01 -3.119255e-01 6.329007e-13 3.119255e-01 6.151826e-01 4.052282e-01 -7.856649e-02 -7.520861e-01 -3.858355e-01 -8.635367e-02 5.152489e-03 -2.758024e-01 -3.896160e-01 -4.260201e-01 -4.703364e-01 -4.176131e-01 -3.408001e-01 -1.825069e-01 
-3.273218e-14 1.942691e-01 3.625699e-01 4.518453e-01 5.055573e-01 4.786428e-01 4.367509e-01 3.663849e-01 1.919489e-01 1.893999e-01 3.240476e-01 9.781451e-01 1.353872e+00 1.364346e+00 9.142911e-01 3.184215e-01 9.180596e-14 -3.184215e-01 -9.142911e-01 -1.364346e+00 -1.353872e+00 -9.781451e-01 -3.240476e-01 -1.893999e-01 -1.919489e-01 -3.663849e-01 -4.367509e-01 -4.786428e-01 -5.055573e-01 -4.518453e-01 -3.625699e-01 -1.942691e-01 
-1.681994e-14 1.870829e-01 3.464801e-01 4.356859e-01 4.828652e-01 4.624456e-01 4.259257e-01 3.695500e-01 2.920392e-01 2.694440e-01 2.823238e-01 1.936679e-01 6.633872e-01 1.155990e+00 1.329364e+00 7.709034e-01 -2.569402e-13 -7.709034e-01 -1.329364e+00 -1.155990e+00 -6.633872e-01 -1.936679e-01 -2.823238e-01 -2.694440e-01 -2.920392e-01 -3.695500e-01 -4.259257e-01 -4.624456e-01 -4.828652e-01 -4.356859e-01 -3.464801e-01 -1.870829e-01 
-9.164699e-15 1.645855e-01 3.039361e-01 3.828796e-01 4.243271e-01 4.103467e-01 3.860143e-01 3.466098e-01 3.160142e-01 3.058242e-01 3.979912e-01 3.304301e-01 4.320040e-01 3.596460e-01 4.868857e-01 4.750924e-01 -1.372022e-13 -4.750924e-01 -4.868857e-01 -3.596460e-01 -4.320040e-01 -3.304301e-01 -3.979912e-01 -3.058242e-01 -3.160142e-01 -3.466098e-01 -3.860143e-01 -4.103467e-01 -4.243271e-01 -3.828796e-01 -3.039361e-01 -1.645855e-01 
-3.367456e-15 1.306530e-01 2.398479e-01 2.983802e-01 3.262107e-01 3.052263e-01 2.805899e-01 2.323968e-01 2.079282e-01 1.676097e-01 2.074570e-01 1.558246e-01 2.859894e-01 2.994091e-01 2.718935e-01 2.335883e-01 -7.249763e-14 -2.335883e-01 -2.718935e-01 -2.994091e-01 -2.859894e-01 -1.558246e-01 -2.074570e-01 -1.676097e-01 -2.079282e-01 -2.323968e-01 -2.805899e-01 -3.052263e-01 -3.262107e-01 -2.983802e-01 -2.398479e-01 -1.306530e-01 
-2.635840e-15 9.481498e-02 1.728666e-01 2.089554e-01 2.210724e-01 1.890329e-01 1.541954e-01 8.905355e-02 4.565308e-02 -2.770471e-02 -4.013097e-02 -1.301009e-01 -1.353877e-01 -2.185419e-01 -2.476942e-01 -1.357280e-01 -3.924424e-14 1.357280e-01 2.476942e-01 2.185419e-01 1.353877e-01 1.301009e-01 4.013097e-02 2.770471e-02 -4.565308e-02 -8.905355e-02 -1.541954e-01 -1.890329e-01 -2.210724e-01 -2.089554e-01 -1.728666e-01 -9.481498e-02 
-1.756403e-15 6.014865e-02 1.074819e-01 1.182026e-01 1.094145e-01 5.487426e-02 -4.296288e-03 -1.058039e-01 -1.886672e-01 -3.101402e-01 -3.749063e-01 -4.838213e-01 -5.054070e-01 -5.536739e-01 -5.232076e-01 -3.504289e-01 -6.182964e-14 3.504289e-01 5.232076e-01 5.536739e-01 5.054070e-01 4.838213e-01 3.749063e-01 3.101402e-01 1.886672e-01 1.058039e-01 4.296288e-03 -5.487426e-02 -1.094145e-01 -1.182026e-01 -1.074819e-01 -6.014865e-02 
-1.514540e-15 3.359186e-02 5.658378e-02 4.582648e-02 1.572323e-02 -6.365398e-02 -1.552487e-01 -2.992643e-01 -4.340228e-01 -6.116253e-01 -7.376049e-01 -8.874211e-01 -9.385390e-01 -9.600899e-01 -8.309968e-01 -5.314818e-01 -3.794038e-14 5.314818e-01 8.309968e-01 9.600899e-01 9.385390e-01 8.874211e-01 7.376049e-01 6.116253e-01 4.340228e-01 2.992643e-01 1.552487e-01 6.365398e-02 -1.572323e-02 -4.582648e-02 -5.658378e-02 -3.359186e-02 
-1.615816e-15 1.566181e-02 2.197146e-02 -5.104765e-03 -5.177672e-02 -1.526186e-01 -2.700649e-01 -4.482337e-01 -6.201615e-01 -8.364401e-01 -9.969677e-01 -1.161160e+00 -1.204812e+00 -1.182378e+00 -9.758456e-01 -6.049459e-01 -2.493897e-14 6.049459e-01 9.758456e-01 1.182378e+00 1.204812e+00 1.161160e+00 9.969677e-01 8.364401e-01 6.201615e-01 4.482337e-01 2.700649e-01 1.526186e-01 5.177672e-02 5.104765e-03 -2.197146e-02 -1.566181e-02 
