# vtk DataFile Version 2.0
Comment goes here
ASCII

DATASET STRUCTURED_POINTS
FIELD FieldData 1
TIME 1 1 double
0.60000000
DIMENSIONS    32   32   1

ORIGIN    0.000   0.000   0.000
SPACING   0.03125 0.03125   1.000

POINT_DATA   1024
SCALARS uX double
LOOKUP_TABLE default

-5.690977e-15 -6.610225e-02 -1.326737e-01 -2.262734e-01 -3.172277e-01 -4.580689e-01 -5.877708e-01 -7.871350e-01 -9.568858e-01 -1.199334e+00 -1.358632e+00 -1.554815e+00 -1.581249e+00 -1.567970e+00 -1.287913e+00 -8.191742e-01 2.572354e-14 8.191742e-01 1.287913e+00 1.567970e+00 1.581249e+00 1.554815e+00 1.358632e+00 1.199334e+00 9.568858e-01 7.871350e-01 5.877708e-01 4.580689e-01 3.172277e-01 2.262734e-01 1.326737e-01 6.610225e-02 
-7.112169e-15 -6.140958e-02 -1.235835e-01 -2.126409e-01 -2.990987e-01 -4.333870e-01 -5.552630e-01 -7.413737e-01 -8.958026e-01 -1.117171e+00 -1.257283e+00 -1.436221e+00 -1.456085e+00 -1.450231e+00 -1.185119e+00 -7.427902e-01 2.060893e-14 7.427902e-01 1.185119e+00 1.450231e+00 1.456085e+00 1.436221e+00 1.257283e+00 1.117171e+00 8.958026e-01 7.413737e-01 5.552630e-01 4.333870e-01 2.990987e-01 2.126409e-01 1.235835e-01 6.140958e-02 
-2.356167e-15 -5.325693e-02 -1.088436e-01 -1.925491e-01 -2.750527e-01 -4.038633e-01 -5.167775e-01 -6.867887e-01 -8.149926e-01 -1.002913e+00 -1.098566e+00 -1.242924e+00 -1.212212e+00 -1.178426e+00 -9.199853e-01 -5.374849e-01 2.439497e-14 5.374849e-01 9.199853e-01 1.178426e+00 1.212212e+00 1.242924e+00 1.098566e+00 1.002913e+00 8.149926e-01 6.867887e-01 5.167775e-01 4.038633e-01 2.750527e-01 1.925491e-01 1.088436e-01 5.325693e-02 
-4.858201e-15 -3.602477e-02 -7.715090e-02 -1.489671e-01 -2.227827e-01 -3.409257e-01 -4.418139e-01 -5.879602e-01 -6.840500e-01 -8.198266e-01 -8.458263e-01 -9.188478e-01 -8.191456e-01 -7.769267e-01 -5.322433e-01 -2.639442e-01 3.749952e-14 2.639442e-01 5.322433e-01 7.769267e-01 8.191456e-01 9.188478e-01 8.458263e-01 8.198266e-01 6.840500e-01 5.879602e-01 4.418139e-01 3.409257e-01 2.227827e-01 1.489671e-01 7.715090e-02 3.602477e-02 
-1.475829e-15 -1.337879e-02 -3.748216e-02 -9.765916e-02 -1.680987e-01 -2.849834e-01 -3.881386e-01 -5.313004e-01 -6.209397e-01 -7.372688e-01 -7.325017e-01 -7.980838e-01 -5.989143e-01 -4.756728e-01 -1.662307e-01 -2.101829e-02 2.967782e-14 2.101829e-02 1.662307e-01 4.756728e-01 5.989143e-01 7.980838e-01 7.325017e-01 7.372688e-01 6.209397e-01 5.313004e-01 3.881386e-01 2.849834e-01 1.680987e-01 9.765916e-02 3.748216e-02 1.337879e-02 
-5.763321e-15 1.797242e-02 1.790365e-02 -2.753576e-02 -9.408316e-02 -2.136959e-01 -3.296116e-01 -4.838570e-01 -6.001275e-01 -7.218770e-01 -6.857072e-01 -6.914325e-01 -4.128878e-01 -2.961648e-01 5.697551e-02 7.394756e-02 2.387103e-14 -7.394756e-02 -5.697551e-02 2.961648e-01 4.128878e-01 6.914325e-01 6.857072e-01 7.218770e-01 6.001275e-01 4.838570e-01 3.296116e-01 2.136959e-01 9.408316e-02 2.753576e-02 -1.790365e-02 -1.797242e-02 
-2.622321e-15 5.742934e-02 8.566053e-02 5.781692e-02 -1.008827e-02 -1.416543e-01 -2.877453e-01 -4.776200e-01 -6.495264e-01 -8.146077e-01 -8.887659e-01 -1.028039e+00 -5.545719e-01 -1.319789e-01 2.621809e-01 1.312248e-01 -7.465903e-15 -1.312248e-01 -2.621809e-01 1.319789e-01 5.545719e-01 1.028039e+00 8.887659e-01 8.146077e-01 6.495264e-01 4.776200e-01 2.877453e-01 1.416543e-01 1.008827e-02 -5.781692e-02 -8.566053e-02 -5.742934e-02 
-6.251530e-15 1.005444e-01 1.622329e-01 1.534554e-01 9.017280e-02 -5.542664e-02 -2.336228e-01 -4.788039e-01 -8.207827e-01 -1.116620e+00 -1.005958e+00 -4.645075e-01 1.863388e-01 5.315518e-01 4.447781e-01 1.489803e-01 -3.397055e-14 -1.489803e-01 -4.447781e-01 -5.315518e-01 -1.863388e-01 4.645075e-01 1.005958e+00 1.116620e+00 8.207827e-01 4.788039e-01 2.336228e-01 5.542664e-02 -9.017280e-02 -1.534554e-01 -1.622329e-01 -1.005444e-01 
3.305078e-17 1.476526e-01 2.457015e-01 2.677705e-01 2.130380e-01 5.609656e-02 -1.726253e-01 -5.158372e-01 -9.312850e-01 -8.296269e-01 -2.576983e-01 5.984282e-01 4.389328e-01 1.341011e-01 -1.824348e-01 -8.829832e-02 1.709323e-14 8.829832e-02 1.824348e-01 -1.341011e-01 -4.389328e-01 -5.984282e-01 2.576983e-01 8.296269e-01 9.312850e-01 5.158372e-01 1.726253e-01 -5.609656e-02 -2.130380e-01 -2.677705e-01 -2.457015e-01 -1.476526e-01 
4.391451e-15 1.815076e-01 3.122293e-01 3.620391e-01 3.388077e-01 1.841250e-01 -1.623052e-02 -3.371819e-01 -8.178637e-01 -1.759775e-01 2.133734e-01 1.448671e-01 -9.408789e-02 8.855549e-02 1.848203e-01 2.956498e-01 1.748796e-14 -2.956498e-01 -1.848203e-01 -8.855549e-02 9.408789e-02 -1.448671e-01 -2.133734e-01 1.759775e-01 8.178637e-01 3.371819e-01 1.623052e-02 -1.841250e-01 -3.388077e-01 -3.620391e-01 -3.122293e-01 -1.815076e-01 
1.566994e-14 2.036219e-01 3.610051e-01 4.687563e-01 5.093937e-01 4.514058e-01 4.183253e-01 -5.108956e-03 -3.529990e-01 6.347239e-01 7.844945e-01 9.581459e-01 1.330642e+00 1.578112e+00 1.324122e+00 7.747711e-01 -1.819398e-14 -7.747711e-01 -1.324122e+00 -1.578112e+00 -1.330642e+00 -9.581459e-01 -7.844945e-01 -6.347239e-01 3.529990e-01 5.108956e-03 -4.183253e-01 -4.514058e-01 -5.093937e-01 -4.687563e-01 -3.610051e-01 -2.036219e-01 
3.399879e-14 1.836244e-01 3.399842e-01 4.800296e-01 5.837100e-01 5.261063e-01 7.094198e-01 -4.481598e-01 5.105529e-01 1.410919e+00 1.393571e+00 1.576370e+00 1.209900e+00 9.115911e-01 5.070451e-01 2.597387e-01 -2.426273e-15 -2.597387e-01 -5.070451e-01 -9.115911e-01 -1.209900e+00 -1.576370e+00 -1.393571e+00 -1.410919e+00 -5.105529e-01 4.481598e-01 -7.094198e-01 -5.261063e-01 -5.837100e-01 -4.800296e-01 -3.399842e-01 -1.836244e-01 
4.147868e-14 1.169508e-01 2.297550e-01 4.207283e-01 5.046354e-01 7.864535e-01 5.119634e-01 -4.735981e-01 1.693619e+00 1.493310e+00 1.146398e+00 7.811290e-01 3.221594e-01 1.568492e-01 -1.594407e-03 1.155001e-02 -7.995409e-15 -1.155001e-02 1.594407e-03 -1.568492e-01 -3.221594e-01 -7.811290e-01 -1.146398e+00 -1.493310e+00 -1.693619e+00 4.735981e-01 -5.119634e-01 -7.864535e-01 -5.046354e-01 -4.207283e-01 -2.297550e-01 -1.169508e-01 
6.541728e-14 -1.550032e-03 6.793409e-03 2.510107e-01 2.708361e-01 1.048061e+00 -2.007328e-01 7.918697e-01 2.050693e+00 1.136587e+00 9.258689e-01 6.228154e-01 5.054242e-01 3.697208e-01 1.827474e-01 7.418486e-02 -3.256147e-15 -7.418486e-02 -1.827474e-01 -3.697208e-01 -5.054242e-01 -6.228154e-01 -9.258689e-01 -1.136587e+00 -2.050693e+00 -7.918697e-01 2.007328e-01 -1.048061e+00 -2.708361e-01 -2.510107e-01 -6.793409e-03 1.550032e-03 
4.081958e-14 -1.911094e-01 -3.045382e-01 -2.362608e-01 -9.992868e-02 2.994782e-01 -7.827615e-02 2.025124e+00 1.624536e+00 1.090831e+00 1.025226e+00 8.391927e-01 5.797069e-01 3.697098e-01 1.574006e-01 6.288518e-02 -1.983664e-14 -6.288518e-02 -1.574006e-01 -3.697098e-01 -5.797069e-01 -8.391927e-01 -1.025226e+00 -1.090831e+00 -1.624536e+00 -2.025124e+00 7.827615e-02 -2.994782e-01 9.992868e-02 2.362608e-01 3.045382e-01 1.911094e-01 
5.304363e-14 -3.846644e-01 -6.384091e-01 -8.573910e-01 -6.675620e-01 -7.148573e-01 1.067855e+00 2.285467e+00 1.257381e+00 1.403966e+00 1.261961e+00 1.166956e+00 8.805436e-01 6.219031e-01 3.409961e-01 1.542332e-01 -1.283991e-14 -1.542332e-01 -3.409961e-01 -6.219031e-01 -8.805436e-01 -1.166956e+00 -1.261961e+00 -1.403966e+00 -1.257381e+00 -2.285467e+00 -1.067855e+00 7.148573e-01 6.675620e-01 8.573910e-01 6.384091e-01 3.846644e-01 
-1.417322e-14 -4.697168e-01 -8.098425e-01 -1.150932e+00 -1.030570e+00 -1.067797e+00 1.614319e+00 2.117394e+00 1.060061e+00 1.530436e+00 1.401459e+00 1.339117e+00 9.697628e-01 6.625818e-01 3.409966e-01 1.519149e-01 -3.155022e-14 -1.519149e-01 -3.409966e-01 -6.625818e-01 -9.697628e-01 -1.339117e+00 -1.401459e+00 -1.530436e+00 -1.060061e+00 -2.117394e+00 -1.614319e+00 1.067797e+00 1.030570e+00 1.150932e+00 8.098425e-01 4.697168e-01 
-3.980175e-14 -3.846644e-01 -6.384091e-01 -8.573910e-01 -6.675620e-01 -7.148573e-01 1.067855e+00 2.285467e+00 1.257381e+00 1.403966e+00 1.261961e+00 1.166956e+00 8.805436e-01 6.219031e-01 3.409961e-01 1.542332e-01 -2.822872e-14 -1.542332e-01 -3.409961e-01 -6.219031e-01 -8.805436e-01 -1.166956e+00 -1.261961e+00 -1.403966e+00 -1.257381e+00 -2.285467e+00 -1.067855e+00 7.148573e-01 6.675620e-01 8.573910e-01 6.384091e-01 3.846644e-01 
-5.436210e-14 -1.911094e-01 -3.045382e-01 -2.362608e-01 -9.992868e-02 2.994782e-01 -7.827615e-02 2.025124e+00 1.624536e+00 1.090831e+00 1.025226e+00 8.391927e-01 5.797069e-01 3.697098e-01 1.574006e-01 6.288518e-02 -3.844228e-14 -6.288518e-02 -1.574006e-01 -3.697098e-01 -5.797069e-01 -8.391927e-01 -1.025226e+00 -1.090831e+00 -1.624536e+00 -2.025124e+00 7.827615e-02 -2.994782e-01 9.992868e-02 2.362608e-01 3.045382e-01 1.911094e-01 
-4.231778e-14 -1.550032e-03 6.793409e-03 2.510107e-01 2.708361e-01 1.048061e+00 -2.007328e-01 7.918697e-01 2.050693e+00 1.136587e+00 9.258689e-01 6.228154e-01 5.054242e-01 3.697208e-01 1.827474e-01 7.418486e-02 -5.232343e-14 -7.418486e-02 -1.827474e-01 -3.697208e-01 -5.054242e-01 -6.228154e-01 -9.258689e-01 -1.136587e+00 -2.050693e+00 -7.918697e-01 2.007328e-01 -1.048061e+00 -2.708361e-01 -2.510107e-01 -6.793409e-03 1.550032e-03 
-2.801292e-14 1.169508e-01 2.297550e-01 4.207283e-01 5.046354e-01 7.864535e-01 5.119634e-01 -4.735981e-01 1.693619e+00 1.493310e+00 1.146398e+00 7.811290e-01 3.221594e-01 1.568492e-01 -1.594407e-03 1.155001e-02 -6.163727e-14 -1.155001e-02 1.594407e-03 -1.568492e-01 -3.221594e-01 -7.811290e-01 -1.146398e+00 -1.493310e+00 -1.693619e+00 4.735981e-01 -5.119634e-01 -7.864535e-01 -5.046354e-01 -4.207283e-01 -2.297550e-01 -1.169508e-01 
-2.205190e-14 1.836244e-01 3.399842e-01 4.800296e-01 5.837100e-01 5.261063e-01 7.094198e-01 -4.481598e-01 5.105529e-01 1.410919e+00 1.393571e+00 1.576370e+00 1.209900e+00 9.115911e-01 5.070451e-01 2.597387e-01 -9.988077e-14 -2.597387e-01 -5.070451e-01 -9.115911e-01 -1.209900e+00 -1.576370e+00 -1.393571e+00 -1.410919e+00 -5.105529e-01 4.481598e-01 -7.094198e-01 -5.261063e-01 -5.837100e-01 -4.800296e-01 -3.399842e-01 -1.836244e-01 
1.533136e-15 2.036219e-01 3.610051e-01 4.687563e-01 5.093937e-01 4.514058e-01 4.183253e-01 -5.108956e-03 -3.529990e-01 6.347239e-01 7.844945e-01 9.581459e-01 1.330642e+00 1.578112e+00 1.324122e+00 7.747711e-01 -3.187093e-14 -7.747711e-01 -1.324122e+00 -1.578112e+00 -1.330642e+00 -9.581459e-01 -7.844945e-01 -6.347239e-01 3.529990e-01 5.108956e-03 -4.183253e-01 -4.514058e-01 -5.093937e-01 -4.687563e-01 -3.610051e-01 -2.036219e-01 
-7.216171e-15 1.815076e-01 3.122293e-01 3.620391e-01 3.388077e-01 1.841250e-01 -1.623052e-02 -3.371819e-01 -8.178637e-01 -1.759775e-01 2.133734e-01 1.448671e-01 -9.408789e-02 8.855549e-02 1.848203e-01 2.956498e-01 4.677528e-14 -2.956498e-01 -1.848203e-01 -8.855549e-02 9.408789e-02 -1.448671e-01 -2.133734e-01 1.759775e-01 8.178637e-01 3.371819e-01 1.623052e-02 -1.841250e-01 -3.388077e-01 -3.620391e-01 -3.122293e-01 -1.815076e-01 
5.547193e-15 1.476526e-01 2.457015e-01 2.677705e-01 2.130380e-01 5.609656e-02 -1.726253e-01 -5.158372e-01 -9.312850e-01 -8.296269e-01 -2.576983e-01 5.984282e-01 4.389328e-01 1.341011e-01 -1.824348e-01 -8.829832e-02 8.641051e-14 8.829832e-02 1.824348e-01 -1.341011e-01 -4.389328e-01 -5.984282e-01 2.576983e-01 8.296269e-01 9.312850e-01 5.158372e-01 1.726253e-01 -5.609656e-02 -2.130380e-01 -2.677705e-01 -2.457015e-01 -1.476526e-01 
-7.296718e-15 1.005444e-01 1.622329e-01 1.534554e-01 9.017280e-02 -5.542664e-02 -2.336228e-01 -4.788039e-01 -8.207827e-01 -1.116620e+00 -1.005958e+00 -4.645075e-01 1.863388e-01 5.315518e-01 4.447781e-01 1.489803e-01 -3.919652e-15 -1.489803e-01 -4.447781e-01 -5.315518e-01 -1.863388e-01 4.645075e-01 1.005958e+00 1.116620e+00 8.207827e-01 4.788039e-01 2.336228e-01 5.542664e-02 -9.017280e-02 -1.534554e-01 -1.622329e-01 -1.005444e-01 
-2.243587e-15 5.742934e-02 8.566053e-02 5.781692e-02 -1.008827e-02 -1.416543e-01 -2.877453e-01 -4.776200e-01 -6.495264e-01 -8.146077e-01 -8.887659e-01 -1.028039e+00 -5.545719e-01 -1.319789e-01 2.621809e-01 1.312248e-01 -9.227091e-14 -1.312248e-01 -2.621809e-01 1.319789e-01 5.545719e-01 1.028039e+00 8.887659e-01 8.146077e-01 6.495264e-01 4.776200e-01 2.877453e-01 1.416543e-01 1.008827e-02 -5.781692e-02 -8.566053e-02 -5.742934e-02 
-1.266159e-14 1.797242e-02 1.790365e-02 -2.753576e-02 -9.408316e-02 -2.136959e-01 -3.296116e-01 -4.838570e-01 -6.001275e-01 -7.218770e-01 -6.857072e-01 -6.914325e-01 -4.128878e-01 -2.961648e-01 5.697551e-02 7.394756e-02 -6.637780e-14 -7.394756e-02 -5.697551e-02 2.961648e-01 4.128878e-01 6.914325e-01 6.857072e-01 7.218770e-01 6.001275e-01 4.838570e-01 3.296116e-01 2.136959e-01 9.408316e-02 2.753576e-02 -1.790365e-02 -1.797242e-02 
-8.868933e-15 -1.337879e-02 -3.748216e-02 -9.765916e-02 -1.680987e-01 -2.849834e-01 -3.881386e-01 -5.313004e-01 -6.209397e-01 -7.372688e-01 -7.325017e-01 -7.980838e-01 -5.989143e-01 -4.756728e-01 -1.662307e-01 -2.101829e-02 2.326441e-14 2.101829e-02 1.662307e-01 4.756728e-01 5.989143e-01 7.980838e-01 7.325017e-01 7.372688e-01 6.209397e-01 5.313004e-01 3.881386e-01 2.849834e-01 1.680987e-01 9.765916e-02 3.748216e-02 1.337879e-02 
-1.385118e-14 -3.602477e-02 -7.715090e-02 -1.489671e-01 -2.227827e-01 -3.409257e-01 -4.418139e-01 -5.879602e-01 -6.840500e-01 -8.198266e-01 -8.458263e-01 -9.188478e-01 -8.191456e-01 -7.769267e-01 -5.322433e-01 -2.639442e-01 7.973003e-14 2.639442e-01 5.322433e-01 7.769267e-01 8.191456e-01 9.188478e-01 8.458263e-01 8.198266e-01 6.840500e-01 5.879602e-01 4.418139e-01 3.409257e-01 2.227827e-01 1.489671e-01 7.715090e-02 3.602477e-02 
-9.191231e-15 -5.325693e-02 -1.088436e-01 -1.925491e-01 -2.750527e-01 -4.038633e-01 -5.167775e-01 -6.867887e-01 -8.149926e-01 -1.002913e+00 -1.098566e+00 -1.242924e+00 -1.212212e+00 -1.178426e+00 -9.199853e-01 -5.374849e-01 7.878335e-14 5.374849e-01 9.199853e-01 1.178426e+00 1.212212e+00 1.242924e+00 1.098566e+00 1.002913e+00 8.149926e-01 6.867887e-01 5.167775e-01 4.038633e-01 2.750527e-01 1.925491e-01 1.088436e-01 5.325693e-02 
-1.099547e-14 -6.140958e-02 -1.235835e-01 -2.126409e-01 -2.990987e-01 -4.333870e-01 -5.552630e-01 -7.413737e-01 -8.958026e-01 -1.117171e+00 -1.257283e+00 -1.436221e+00 -1.456085e+00 -1.450231e+00 -1.185119e+00 -7.427902e-01 5.392387e-14 7.427902e-01 1.185119e+00 1.450231e+00 1.456085e+00 1.436221e+00 1.257283e+00 1.117171e+00 8.958026e-01 7.413737e-01 5.552630e-01 4.333870e-01 2.990987e-01 2.126409e-01 1.235835e-01 6.140958e-02 
