# vtk DataFile Version 2.0
Comment goes here
ASCII

DATASET STRUCTURED_POINTS
FIELD FieldData 1
TIME 1 1 double
0.34000000
DIMENSIONS    32   32   1

ORIGIN    0.000   0.000   0.000
SPACING   0.03125 0.03125   1.000

POINT_DATA   1024
SCALARS uX double
LOOKUP_TABLE default

1.141873e-15 6.324520e-02 1.257577e-01 1.840238e-01 2.386795e-01 2.832988e-01 3.144475e-01 3.252983e-01 2.965568e-01 2.333692e-01 9.212555e-02 -6.769199e-02 -2.899963e-01 -4.003021e-01 -4.620834e-01 -3.179375e-01 -2.752871e-14 3.179375e-01 4.620834e-01 4.003021e-01 2.899963e-01 6.769199e-02 -9.212555e-02 -2.333692e-01 -2.965568e-01 -3.252983e-01 -3.144475e-01 -2.832988e-01 -2.386795e-01 -1.840238e-01 -1.257577e-01 -6.324520e-02 
1.041943e-15 6.497247e-02 1.288528e-01 1.892710e-01 2.452179e-01 2.924124e-01 3.253026e-01 3.386472e-01 3.124658e-01 2.488632e-01 1.084263e-01 -6.906314e-02 -3.008135e-01 -4.578787e-01 -4.935647e-01 -2.778007e-01 -1.898154e-14 2.778007e-01 4.935647e-01 4.578787e-01 3.008135e-01 6.906314e-02 -1.084263e-01 -2.488632e-01 -3.124658e-01 -3.386472e-01 -3.253026e-01 -2.924124e-01 -2.452179e-01 -1.892710e-01 -1.288528e-01 -6.497247e-02 
2.747081e-15 6.598002e-02 1.318067e-01 1.939140e-01 2.556574e-01 3.097538e-01 3.601062e-01 3.976802e-01 4.168585e-01 4.188460e-01 3.704253e-01 3.130626e-01 1.926667e-01 1.869645e-01 5.403055e-02 -4.586268e-02 -2.011915e-14 4.586268e-02 -5.403055e-02 -1.869645e-01 -1.926667e-01 -3.130626e-01 -3.704253e-01 -4.188460e-01 -4.168585e-01 -3.976802e-01 -3.601062e-01 -3.097538e-01 -2.556574e-01 -1.939140e-01 -1.318067e-01 -6.598002e-02 
1.866678e-15 7.021575e-02 1.402140e-01 2.079707e-01 2.770878e-01 3.431499e-01 4.130757e-01 4.803412e-01 5.453823e-01 6.093828e-01 6.291789e-01 6.156096e-01 4.897929e-01 3.647087e-01 3.015112e-01 3.386360e-01 -3.844162e-14 -3.386360e-01 -3.015112e-01 -3.647087e-01 -4.897929e-01 -6.156096e-01 -6.291789e-01 -6.093828e-01 -5.453823e-01 -4.803412e-01 -4.130757e-01 -3.431499e-01 -2.770878e-01 -2.079707e-01 -1.402140e-01 -7.021575e-02 
3.939966e-15 7.187740e-02 1.436284e-01 2.115077e-01 2.845700e-01 3.534263e-01 4.410153e-01 5.275963e-01 6.454348e-01 7.775018e-01 9.247970e-01 1.057954e+00 1.349925e+00 2.097333e+00 2.221873e+00 1.361436e+00 -2.666596e-14 -1.361436e+00 -2.221873e+00 -2.097333e+00 -1.349925e+00 -1.057954e+00 -9.247970e-01 -7.775018e-01 -6.454348e-01 -5.275963e-01 -4.410153e-01 -3.534263e-01 -2.845700e-01 -2.115077e-01 -1.436284e-01 -7.187740e-02 
2.890639e-15 7.627731e-02 1.505662e-01 2.211185e-01 2.966964e-01 3.728255e-01 4.786986e-01 5.958123e-01 7.807338e-01 1.049723e+00 1.401995e+00 1.872134e+00 2.709569e+00 2.758460e+00 1.451885e+00 3.921934e-01 1.737109e-14 -3.921934e-01 -1.451885e+00 -2.758460e+00 -2.709569e+00 -1.872134e+00 -1.401995e+00 -1.049723e+00 -7.807338e-01 -5.958123e-01 -4.786986e-01 -3.728255e-01 -2.966964e-01 -2.211185e-01 -1.505662e-01 -7.627731e-02 
2.060759e-15 7.816969e-02 1.502437e-01 2.134120e-01 2.778480e-01 3.361434e-01 4.333610e-01 5.281174e-01 7.507534e-01 1.125513e+00 1.503173e+00 1.418038e+00 7.866112e-01 -1.159382e+00 -2.133794e+00 -1.188103e+00 6.407786e-14 1.188103e+00 2.133794e+00 1.159382e+00 -7.866112e-01 -1.418038e+00 -1.503173e+00 -1.125513e+00 -7.507534e-01 -5.281174e-01 -4.333610e-01 -3.361434e-01 -2.778480e-01 -2.134120e-01 -1.502437e-01 -7.816969e-02 
2.573605e-15 8.309131e-02 1.522996e-01 2.078243e-01 2.530552e-01 2.915912e-01 3.688946e-01 4.399224e-01 7.782198e-01 1.125710e+00 9.502556e-01 -1.651051e-02 -1.116814e+00 -1.386364e+00 -4.109984e-01 1.394740e-01 -1.175442e-14 -1.394740e-01 4.109984e-01 1.386364e+00 1.116814e+00 1.651051e-02 -9.502556e-01 -1.125710e+00 -7.782198e-01 -4.399224e-01 -3.688946e-01 -2.915912e-01 -2.530552e-01 -2.078243e-01 -1.522996e-01 -8.309131e-02 
-3.609034e-15 9.157688e-02 1.569020e-01 1.990713e-01 2.064168e-01 1.978363e-01 2.153902e-01 2.017155e-01 6.095013e-01 2.661334e-01 -4.015821e-01 -1.063359e+00 -1.174771e+00 -4.527063e-02 8.035613e-01 5.344640e-01 -2.389769e-14 -5.344640e-01 -8.035613e-01 4.527063e-02 1.174771e+00 1.063359e+00 4.015821e-01 -2.661334e-01 -6.095013e-01 -2.017155e-01 -2.153902e-01 -1.978363e-01 -2.064168e-01 -1.990713e-01 -1.569020e-01 -9.157688e-02 
2.442721e-15 1.019931e-01 1.636828e-01 1.905234e-01 1.417667e-01 9.220348e-02 1.733758e-02 3.548145e-02 2.077856e-01 -6.311161e-01 -8.196412e-01 -8.713848e-01 -8.892891e-01 -1.153063e-01 8.710267e-02 5.519563e-02 -3.092763e-14 -5.519563e-02 -8.710267e-02 1.153063e-01 8.892891e-01 8.713848e-01 8.196412e-01 6.311161e-01 -2.077856e-01 -3.548145e-02 -1.733758e-02 -9.220348e-02 -1.417667e-01 -1.905234e-01 -1.636828e-01 -1.019931e-01 
-1.076722e-14 1.168447e-01 1.836265e-01 2.149931e-01 1.186842e-01 7.862559e-02 -1.033150e-01 4.772296e-02 -4.650265e-01 -7.979414e-01 -8.650197e-01 -1.047307e+00 -5.691330e-01 -2.604800e-01 -1.370948e-01 -8.567253e-02 -7.961560e-15 8.567253e-02 1.370948e-01 2.604800e-01 5.691330e-01 1.047307e+00 8.650197e-01 7.979414e-01 4.650265e-01 -4.772296e-02 1.033150e-01 -7.862559e-02 -1.186842e-01 -2.149931e-01 -1.836265e-01 -1.168447e-01 
2.735635e-15 1.134949e-01 1.857524e-01 2.173489e-01 9.466652e-02 2.577217e-03 -2.697524e-01 -2.284851e-01 -1.191929e+00 -8.166263e-01 -8.963094e-01 -1.228786e+00 -5.400635e-01 -8.070294e-01 -5.295661e-01 -3.608363e-01 1.480001e-16 3.608363e-01 5.295661e-01 8.070294e-01 5.400635e-01 1.228786e+00 8.963094e-01 8.166263e-01 1.191929e+00 2.284851e-01 2.697524e-01 -2.577217e-03 -9.466652e-02 -2.173489e-01 -1.857524e-01 -1.134949e-01 
-1.208941e-14 8.573773e-02 1.514150e-01 1.803207e-01 7.665563e-02 -2.862722e-02 -2.755333e-01 -4.460676e-01 -1.087394e+00 -6.638947e-01 -6.348438e-01 -8.112172e-01 -3.916600e-01 -6.474690e-01 -4.468810e-01 -3.226029e-01 -4.401448e-15 3.226029e-01 4.468810e-01 6.474690e-01 3.916600e-01 8.112172e-01 6.348438e-01 6.638947e-01 1.087394e+00 4.460676e-01 2.755333e-01 2.862722e-02 -7.665563e-02 -1.803207e-01 -1.514150e-01 -8.573773e-02 
7.447401e-15 -3.415886e-04 1.619372e-02 1.754055e-02 -2.092638e-02 -1.537338e-01 -4.371359e-01 -8.061503e-01 -8.359166e-01 -7.543154e-01 -8.266122e-01 -5.950268e-01 -4.174889e-01 -4.920193e-01 -3.803642e-01 -2.654621e-01 9.176098e-15 2.654621e-01 3.803642e-01 4.920193e-01 4.174889e-01 5.950268e-01 8.266122e-01 7.543154e-01 8.359166e-01 8.061503e-01 4.371359e-01 1.537338e-01 2.092638e-02 -1.754055e-02 -1.619372e-02 3.415886e-04 
-6.480651e-16 -1.664360e-01 -2.967783e-01 -4.310803e-01 -4.968199e-01 -6.601421e-01 -7.869637e-01 -9.590181e-01 -6.034402e-01 -7.937329e-01 -7.470718e-01 -7.349788e-02 -1.630510e-01 -1.218550e-01 -1.717811e-01 -1.162658e-01 -9.839390e-15 1.162658e-01 1.717811e-01 1.218550e-01 1.630510e-01 7.349788e-02 7.470718e-01 7.937329e-01 6.034402e-01 9.590181e-01 7.869637e-01 6.601421e-01 4.968199e-01 4.310803e-01 2.967783e-01 1.664360e-01 
1.541211e-14 -5.097033e-01 -9.375616e-01 -1.251597e+00 -1.287564e+00 -1.241026e+00 -8.964207e-01 -8.555691e-01 -5.967412e-01 -8.316211e-01 -5.472931e-01 2.930276e-01 6.510769e-02 1.354284e-01 -2.600567e-02 -2.140001e-02 3.068277e-15 2.140001e-02 2.600567e-02 -1.354284e-01 -6.510769e-02 -2.930276e-01 5.472931e-01 8.316211e-01 5.967412e-01 8.555691e-01 8.964207e-01 1.241026e+00 1.287564e+00 1.251597e+00 9.375616e-01 5.097033e-01 
-6.218371e-15 -7.507459e-01 -1.367446e+00 -1.748301e+00 -1.684704e+00 -1.457331e+00 -8.825693e-01 -9.207917e-01 -8.299316e-01 -8.982197e-01 -3.918810e-01 4.803456e-01 2.288214e-01 3.006199e-01 8.225627e-02 4.315156e-02 -2.120731e-15 -4.315156e-02 -8.225627e-02 -3.006199e-01 -2.288214e-01 -4.803456e-01 3.918810e-01 8.982197e-01 8.299316e-01 9.207917e-01 8.825693e-01 1.457331e+00 1.684704e+00 1.748301e+00 1.367446e+00 7.507459e-01 
-1.537418e-14 -5.097033e-01 -9.375616e-01 -1.251597e+00 -1.287564e+00 -1.241026e+00 -8.964207e-01 -8.555691e-01 -5.967412e-01 -8.316211e-01 -5.472931e-01 2.930276e-01 6.510769e-02 1.354284e-01 -2.600567e-02 -2.140001e-02 -2.606296e-15 2.140001e-02 2.600567e-02 -1.354284e-01 -6.510769e-02 -2.930276e-01 5.472931e-01 8.316211e-01 5.967412e-01 8.555691e-01 8.964207e-01 1.241026e+00 1.287564e+00 1.251597e+00 9.375616e-01 5.097033e-01 
5.821400e-15 -1.664360e-01 -2.967783e-01 -4.310803e-01 -4.968199e-01 -6.601421e-01 -7.869637e-01 -9.590181e-01 -6.034402e-01 -7.937329e-01 -7.470718e-01 -7.349788e-02 -1.630510e-01 -1.218550e-01 -1.717811e-01 -1.162658e-01 9.097995e-15 1.162658e-01 1.717811e-01 1.218550e-01 1.630510e-01 7.349788e-02 7.470718e-01 7.937329e-01 6.034402e-01 9.590181e-01 7.869637e-01 6.601421e-01 4.968199e-01 4.310803e-01 2.967783e-01 1.664360e-01 
-6.777309e-15 -3.415886e-04 1.619372e-02 1.754055e-02 -2.092638e-02 -1.537338e-01 -4.371359e-01 -8.061503e-01 -8.359166e-01 -7.543154e-01 -8.266122e-01 -5.950268e-01 -4.174889e-01 -4.920193e-01 -3.803642e-01 -2.654621e-01 1.760041e-15 2.654621e-01 3.803642e-01 4.920193e-01 4.174889e-01 5.950268e-01 8.266122e-01 7.543154e-01 8.359166e-01 8.061503e-01 4.371359e-01 1.537338e-01 2.092638e-02 -1.754055e-02 -1.619372e-02 3.415886e-04 
1.096249e-14 8.573773e-02 1.514150e-01 1.803207e-01 7.665563e-02 -2.862722e-02 -2.755333e-01 -4.460676e-01 -1.087394e+00 -6.638947e-01 -6.348438e-01 -8.112172e-01 -3.916600e-01 -6.474690e-01 -4.468810e-01 -3.226029e-01 1.825555e-14 3.226029e-01 4.468810e-01 6.474690e-01 3.916600e-01 8.112172e-01 6.348438e-01 6.638947e-01 1.087394e+00 4.460676e-01 2.755333e-01 2.862722e-02 -7.665563e-02 -1.803207e-01 -1.514150e-01 -8.573773e-02 
-6.242257e-15 1.134949e-01 1.857524e-01 2.173489e-01 9.466652e-02 2.577217e-03 -2.697524e-01 -2.284851e-01 -1.191929e+00 -8.166263e-01 -8.963094e-01 -1.228786e+00 -5.400635e-01 -8.070294e-01 -5.295661e-01 -3.608363e-01 1.265024e-14 3.608363e-01 5.295661e-01 8.070294e-01 5.400635e-01 1.228786e+00 8.963094e-01 8.166263e-01 1.191929e+00 2.284851e-01 2.697524e-01 -2.577217e-03 -9.466652e-02 -2.173489e-01 -1.857524e-01 -1.134949e-01 
6.974185e-15 1.168447e-01 1.836265e-01 2.149931e-01 1.186842e-01 7.862559e-02 -1.033150e-01 4.772296e-02 -4.650265e-01 -7.979414e-01 -8.650197e-01 -1.047307e+00 -5.691330e-01 -2.604800e-01 -1.370948e-01 -8.567253e-02 4.091079e-14 8.567253e-02 1.370948e-01 2.604800e-01 5.691330e-01 1.047307e+00 8.650197e-01 7.979414e-01 4.650265e-01 -4.772296e-02 1.033150e-01 -7.862559e-02 -1.186842e-01 -2.149931e-01 -1.836265e-01 -1.168447e-01 
-4.228446e-15 1.019931e-01 1.636828e-01 1.905234e-01 1.417667e-01 9.220348e-02 1.733758e-02 3.548145e-02 2.077856e-01 -6.311161e-01 -8.196412e-01 -8.713848e-01 -8.892891e-01 -1.153063e-01 8.710267e-02 5.519563e-02 3.066314e-14 -5.519563e-02 -8.710267e-02 1.153063e-01 8.892891e-01 8.713848e-01 8.196412e-01 6.311161e-01 -2.077856e-01 -3.548145e-02 -1.733758e-02 -9.220348e-02 -1.417667e-01 -1.905234e-01 -1.636828e-01 -1.019931e-01 
1.984585e-15 9.157688e-02 1.569020e-01 1.990713e-01 2.064168e-01 1.978363e-01 2.153902e-01 2.017155e-01 6.095013e-01 2.661334e-01 -4.015821e-01 -1.063359e+00 -1.174771e+00 -4.527063e-02 8.035613e-01 5.344640e-01 5.017120e-15 -5.344640e-01 -8.035613e-01 4.527063e-02 1.174771e+00 1.063359e+00 4.015821e-01 -2.661334e-01 -6.095013e-01 -2.017155e-01 -2.153902e-01 -1.978363e-01 -2.064168e-01 -1.990713e-01 -1.569020e-01 -9.157688e-02 
-3.115878e-15 8.309131e-02 1.522996e-01 2.078243e-01 2.530552e-01 2.915912e-01 3.688946e-01 4.399224e-01 7.782198e-01 1.125710e+00 9.502556e-01 -1.651051e-02 -1.116814e+00 -1.386364e+00 -4.109984e-01 1.394740e-01 -4.374549e-14 -1.394740e-01 4.109984e-01 1.386364e+00 1.116814e+00 1.651051e-02 -9.502556e-01 -1.125710e+00 -7.782198e-01 -4.399224e-01 -3.688946e-01 -2.915912e-01 -2.530552e-01 -2.078243e-01 -1.522996e-01 -8.309131e-02 
-1.571280e-15 7.816969e-02 1.502437e-01 2.134120e-01 2.778480e-01 3.361434e-01 4.333610e-01 5.281174e-01 7.507534e-01 1.125513e+00 1.503173e+00 1.418038e+00 7.866112e-01 -1.159382e+00 -2.133794e+00 -1.188103e+00 -1.276759e-13 1.188103e+00 2.133794e+00 1.159382e+00 -7.866112e-01 -1.418038e+00 -1.503173e+00 -1.125513e+00 -7.507534e-01 -5.281174e-01 -4.333610e-01 -3.361434e-01 -2.778480e-01 -2.134120e-01 -1.502437e-01 -7.816969e-02 
-3.009713e-15 7.627731e-02 1.505662e-01 2.211185e-01 2.966964e-01 3.728255e-01 4.786986e-01 5.958123e-01 7.807338e-01 1.049723e+00 1.401995e+00 1.872134e+00 2.709569e+00 2.758460e+00 1.451885e+00 3.921934e-01 8.741918e-14 -3.921934e-01 -1.451885e+00 -2.758460e+00 -2.709569e+00 -1.872134e+00 -1.401995e+00 -1.049723e+00 -7.807338e-01 -5.958123e-01 -4.786986e-01 -3.728255e-01 -2.966964e-01 -2.211185e-01 -1.505662e-01 -7.627731e-02 
-2.864054e-15 7.187740e-02 1.436284e-01 2.115077e-01 2.845700e-01 3.534263e-01 4.410153e-01 5.275963e-01 6.454348e-01 7.775018e-01 9.247970e-01 1.057954e+00 1.349925e+00 2.097333e+00 2.221873e+00 1.361436e+00 1.497278e-13 -1.361436e+00 -2.221873e+00 -2.097333e+00 -1.349925e+00 -1.057954e+00 -9.247970e-01 -7.775018e-01 -6.454348e-01 -5.275963e-01 -4.410153e-01 -3.534263e-01 -2.845700e-01 -2.115077e-01 -1.436284e-01 -7.187740e-02 
-1.479197e-15 7.021575e-02 1.402140e-01 2.079707e-01 2.770878e-01 3.431499e-01 4.130757e-01 4.803412e-01 5.453823e-01 6.093828e-01 6.291789e-01 6.156096e-01 4.897929e-01 3.647087e-01 3.015112e-01 3.386360e-01 6.514278e-15 -3.386360e-01 -3.015112e-01 -3.647087e-01 -4.897929e-01 -6.156096e-01 -6.291789e-01 -6.093828e-01 -5.453823e-01 -4.803412e-01 -4.130757e-01 -3.431499e-01 -2.770878e-01 -2.079707e-01 -1.402140e-01 -7.021575e-02 
-8.826083e-16 6.598002e-02 1.318067e-01 1.939140e-01 2.556574e-01 3.097538e-01 3.601062e-01 3.976802e-01 4.168585e-01 4.188460e-01 3.704253e-01 3.130626e-01 1.926667e-01 1.869645e-01 5.403055e-02 -4.586268e-02 -3.989437e-14 4.586268e-02 -5.403055e-02 -1.869645e-01 -1.926667e-01 -3.130626e-01 -3.704253e-01 -4.188460e-01 -4.168585e-01 -3.976802e-01 -3.601062e-01 -3.097538e-01 -2.556574e-01 -1.939140e-01 -1.318067e-01 -6.598002e-02 
3.586159e-16 6.497247e-02 1.288528e-01 1.892710e-01 2.452179e-01 2.924124e-01 3.253026e-01 3.386472e-01 3.124658e-01 2.488632e-01 1.084263e-01 -6.906314e-02 -3.008135e-01 -4.578787e-01 -4.935647e-01 -2.778007e-01 -2.577096e-14 2.778007e-01 4.935647e-01 4.578787e-01 3.008135e-01 6.906314e-02 -1.084263e-01 -2.488632e-01 -3.124658e-01 -3.386472e-01 -3.253026e-01 -2.924124e-01 -2.452179e-01 -1.892710e-01 -1.288528e-01 -6.497247e-02 
