# vtk DataFile Version 2.0
Comment goes here
ASCII

DATASET STRUCTURED_POINTS
FIELD FieldData 1
TIME 1 1 double
0.18000000
DIMENSIONS    32   32   1

ORIGIN    0.000   0.000   0.000
SPACING   0.03125 0.03125   1.000

POINT_DATA   1024
SCALARS uX double
LOOKUP_TABLE default

2.656195e-15 1.012879e-01 2.067436e-01 3.086405e-01 4.205829e-01 5.243577e-01 6.345804e-01 7.261186e-01 7.995982e-01 8.258301e-01 7.754398e-01 6.206758e-01 3.202010e-01 -2.994145e-02 -3.146412e-01 -3.100631e-01 -4.494425e-14 3.100631e-01 3.146412e-01 2.994145e-02 -3.202010e-01 -6.206758e-01 -7.754398e-01 -8.258301e-01 -7.995982e-01 -7.261186e-01 -6.345804e-01 -5.243577e-01 -4.205829e-01 -3.086405e-01 -2.067436e-01 -1.012879e-01 
-6.879466e-16 1.005071e-01 2.052487e-01 3.067502e-01 4.185923e-01 5.235879e-01 6.355356e-01 7.333944e-01 8.133469e-01 8.599063e-01 8.289982e-01 7.235449e-01 4.673982e-01 2.152024e-01 6.365487e-02 -1.054569e-01 -2.748638e-14 1.054569e-01 -6.365487e-02 -2.152024e-01 -4.673982e-01 -7.235449e-01 -8.289982e-01 -8.599063e-01 -8.133469e-01 -7.333944e-01 -6.355356e-01 -5.235879e-01 -4.185923e-01 -3.067502e-01 -2.052487e-01 -1.005071e-01 
2.973410e-15 9.895890e-02 2.032908e-01 3.046007e-01 4.205949e-01 5.312770e-01 6.587906e-01 7.765328e-01 8.940956e-01 9.807856e-01 1.009673e+00 9.018555e-01 5.624162e-01 1.221028e-01 -2.173995e-01 -2.287299e-01 -5.696688e-15 2.287299e-01 2.173995e-01 -1.221028e-01 -5.624162e-01 -9.018555e-01 -1.009673e+00 -9.807856e-01 -8.940956e-01 -7.765328e-01 -6.587906e-01 -5.312770e-01 -4.205949e-01 -3.046007e-01 -2.032908e-01 -9.895890e-02 
-1.633639e-15 9.538979e-02 1.973162e-01 2.963639e-01 4.149466e-01 5.300073e-01 6.729684e-01 8.135727e-01 9.722084e-01 1.126212e+00 1.259147e+00 1.277498e+00 1.033756e+00 1.273849e+00 1.765701e+00 1.304575e+00 -2.369108e-14 -1.304575e+00 -1.765701e+00 -1.273849e+00 -1.033756e+00 -1.277498e+00 -1.259147e+00 -1.126212e+00 -9.722084e-01 -8.135727e-01 -6.729684e-01 -5.300073e-01 -4.149466e-01 -2.963639e-01 -1.973162e-01 -9.538979e-02 
4.000358e-15 8.902438e-02 1.859716e-01 2.795528e-01 3.988604e-01 5.165171e-01 6.779866e-01 8.524776e-01 1.084775e+00 1.397606e+00 1.837699e+00 2.206490e+00 3.027448e+00 3.903766e+00 3.544128e+00 1.816354e+00 -6.827075e-14 -1.816354e+00 -3.544128e+00 -3.903766e+00 -3.027448e+00 -2.206490e+00 -1.837699e+00 -1.397606e+00 -1.084775e+00 -8.524776e-01 -6.779866e-01 -5.165171e-01 -3.988604e-01 -2.795528e-01 -1.859716e-01 -8.902438e-02 
-1.605659e-15 8.017966e-02 1.690309e-01 2.524717e-01 3.671457e-01 4.759710e-01 6.453079e-01 8.249119e-01 1.102198e+00 1.572354e+00 2.153718e+00 2.348615e+00 2.970005e+00 2.220600e+00 -9.355025e-02 -5.754363e-01 -1.031037e-13 5.754363e-01 9.355025e-02 -2.220600e+00 -2.970005e+00 -2.348615e+00 -2.153718e+00 -1.572354e+00 -1.102198e+00 -8.249119e-01 -6.453079e-01 -4.759710e-01 -3.671457e-01 -2.524717e-01 -1.690309e-01 -8.017966e-02 
3.473289e-15 6.656339e-02 1.409993e-01 2.049469e-01 3.003696e-01 3.766639e-01 5.153877e-01 6.453328e-01 9.075403e-01 1.514224e+00 1.721644e+00 1.604645e+00 9.709293e-01 -4.221332e-02 -6.177577e-01 -5.043192e-02 -2.316859e-14 5.043192e-02 6.177577e-01 4.221332e-02 -9.709293e-01 -1.604645e+00 -1.721644e+00 -1.514224e+00 -9.075403e-01 -6.453328e-01 -5.153877e-01 -3.766639e-01 -3.003696e-01 -2.049469e-01 -1.409993e-01 -6.656339e-02 
-2.404303e-15 5.280124e-02 1.097601e-01 1.496793e-01 2.129651e-01 2.305311e-01 3.141133e-01 3.361382e-01 7.179841e-01 1.032458e+00 8.297565e-01 7.452827e-01 1.244236e-02 -2.947571e-01 6.455991e-01 6.716969e-01 1.103512e-14 -6.716969e-01 -6.455991e-01 2.947571e-01 -1.244236e-02 -7.452827e-01 -8.297565e-01 -1.032458e+00 -7.179841e-01 -3.361382e-01 -3.141133e-01 -2.305311e-01 -2.129651e-01 -1.496793e-01 -1.097601e-01 -5.280124e-02 
7.615924e-16 3.773897e-02 7.176173e-02 7.660926e-02 8.590053e-02 1.542519e-02 2.223247e-02 -9.535037e-02 3.836634e-01 -7.890945e-02 1.654889e-02 -7.958563e-02 -7.679144e-01 -5.288546e-01 8.383109e-02 1.260655e-01 5.144142e-14 -1.260655e-01 -8.383109e-02 5.288546e-01 7.679144e-01 7.958563e-02 -1.654889e-02 7.890945e-02 -3.836634e-01 9.535037e-02 -2.223247e-02 -1.542519e-02 -8.590053e-02 -7.660926e-02 -7.176173e-02 -3.773897e-02 
-3.079591e-15 3.081010e-02 4.272494e-02 1.952017e-02 -4.166179e-02 -1.604357e-01 -2.503918e-01 -3.485240e-01 -1.367097e-01 -6.676938e-01 -3.047597e-01 -6.709479e-01 -1.242125e+00 -4.055780e-01 -1.654039e-01 1.122877e-02 3.322854e-14 -1.122877e-02 1.654039e-01 4.055780e-01 1.242125e+00 6.709479e-01 3.047597e-01 6.676938e-01 1.367097e-01 3.485240e-01 2.503918e-01 1.604357e-01 4.166179e-02 -1.952017e-02 -4.272494e-02 -3.081010e-02 
-3.620098e-15 3.807091e-02 3.724454e-02 -6.666146e-03 -1.333398e-01 -2.439718e-01 -4.193295e-01 -4.248929e-01 -7.722106e-01 -7.333866e-01 -6.643544e-01 -1.333477e+00 -1.552212e+00 -1.170369e+00 -9.997502e-01 -5.020904e-01 3.050664e-14 5.020904e-01 9.997502e-01 1.170369e+00 1.552212e+00 1.333477e+00 6.643544e-01 7.333866e-01 7.722106e-01 4.248929e-01 4.193295e-01 2.439718e-01 1.333398e-01 6.666146e-03 -3.724454e-02 -3.807091e-02 
-4.706113e-15 6.073250e-02 6.554014e-02 4.032434e-03 -1.767870e-01 -2.912957e-01 -5.355856e-01 -5.710486e-01 -1.165825e+00 -9.752539e-01 -1.316642e+00 -1.849068e+00 -1.650040e+00 -1.531309e+00 -1.190672e+00 -6.644506e-01 2.498830e-14 6.644506e-01 1.190672e+00 1.531309e+00 1.650040e+00 1.849068e+00 1.316642e+00 9.752539e-01 1.165825e+00 5.710486e-01 5.355856e-01 2.912957e-01 1.767870e-01 -4.032434e-03 -6.554014e-02 -6.073250e-02 
-7.473402e-15 8.657294e-02 1.118508e-01 4.017481e-02 -1.304667e-01 -2.386068e-01 -5.213387e-01 -6.363180e-01 -9.399622e-01 -9.982862e-01 -1.719243e+00 -1.984450e+00 -1.410415e+00 -1.388113e+00 -1.039783e+00 -6.262795e-01 9.766581e-15 6.262795e-01 1.039783e+00 1.388113e+00 1.410415e+00 1.984450e+00 1.719243e+00 9.982862e-01 9.399622e-01 6.363180e-01 5.213387e-01 2.386068e-01 1.304667e-01 -4.017481e-02 -1.118508e-01 -8.657294e-02 
-4.006133e-15 5.482099e-02 6.603038e-02 1.005197e-02 -1.011087e-01 -2.714390e-01 -6.167580e-01 -7.830354e-01 -9.604698e-01 -1.404012e+00 -1.954230e+00 -1.756342e+00 -1.106638e+00 -1.084226e+00 -7.664240e-01 -4.683028e-01 1.199014e-14 4.683028e-01 7.664240e-01 1.084226e+00 1.106638e+00 1.756342e+00 1.954230e+00 1.404012e+00 9.604698e-01 7.830354e-01 6.167580e-01 2.714390e-01 1.011087e-01 -1.005197e-02 -6.603038e-02 -5.482099e-02 
-1.315882e-15 -1.056622e-01 -2.335086e-01 -3.446125e-01 -4.725844e-01 -6.574141e-01 -8.458578e-01 -9.494506e-01 -1.203022e+00 -1.675094e+00 -1.922918e+00 -1.317967e+00 -8.055439e-01 -7.500207e-01 -5.099911e-01 -3.179988e-01 3.338975e-16 3.179988e-01 5.099911e-01 7.500207e-01 8.055439e-01 1.317967e+00 1.922918e+00 1.675094e+00 1.203022e+00 9.494506e-01 8.458578e-01 6.574141e-01 4.725844e-01 3.446125e-01 2.335086e-01 1.056622e-01 
1.210787e-14 -4.752414e-01 -8.556514e-01 -1.038870e+00 -1.094092e+00 -1.036927e+00 -8.651898e-01 -1.005409e+00 -1.342733e+00 -1.543972e+00 -1.495989e+00 -8.185825e-01 -4.847981e-01 -3.937816e-01 -2.589049e-01 -1.738540e-01 7.850829e-15 1.738540e-01 2.589049e-01 3.937816e-01 4.847981e-01 8.185825e-01 1.495989e+00 1.543972e+00 1.342733e+00 1.005409e+00 8.651898e-01 1.036927e+00 1.094092e+00 1.038870e+00 8.556514e-01 4.752414e-01 
6.381696e-15 -7.238225e-01 -1.241964e+00 -1.417852e+00 -1.359252e+00 -1.124139e+00 -8.103233e-01 -1.062781e+00 -1.509357e+00 -1.639709e+00 -1.333539e+00 -6.156995e-01 -3.696176e-01 -2.626530e-01 -1.719145e-01 -1.237140e-01 -2.862371e-15 1.237140e-01 1.719145e-01 2.626530e-01 3.696176e-01 6.156995e-01 1.333539e+00 1.639709e+00 1.509357e+00 1.062781e+00 8.103233e-01 1.124139e+00 1.359252e+00 1.417852e+00 1.241964e+00 7.238225e-01 
9.716222e-16 -4.752414e-01 -8.556514e-01 -1.038870e+00 -1.094092e+00 -1.036927e+00 -8.651898e-01 -1.005409e+00 -1.342733e+00 -1.543972e+00 -1.495989e+00 -8.185825e-01 -4.847981e-01 -3.937816e-01 -2.589049e-01 -1.738540e-01 1.255656e-14 1.738540e-01 2.589049e-01 3.937816e-01 4.847981e-01 8.185825e-01 1.495989e+00 1.543972e+00 1.342733e+00 1.005409e+00 8.651898e-01 1.036927e+00 1.094092e+00 1.038870e+00 8.556514e-01 4.752414e-01 
1.377430e-15 -1.056622e-01 -2.335086e-01 -3.446125e-01 -4.725844e-01 -6.574141e-01 -8.458578e-01 -9.494506e-01 -1.203022e+00 -1.675094e+00 -1.922918e+00 -1.317967e+00 -8.055439e-01 -7.500207e-01 -5.099911e-01 -3.179988e-01 2.109655e-15 3.179988e-01 5.099911e-01 7.500207e-01 8.055439e-01 1.317967e+00 1.922918e+00 1.675094e+00 1.203022e+00 9.494506e-01 8.458578e-01 6.574141e-01 4.725844e-01 3.446125e-01 2.335086e-01 1.056622e-01 
4.629112e-15 5.482099e-02 6.603038e-02 1.005197e-02 -1.011087e-01 -2.714390e-01 -6.167580e-01 -7.830354e-01 -9.604698e-01 -1.404012e+00 -1.954230e+00 -1.756342e+00 -1.106638e+00 -1.084226e+00 -7.664240e-01 -4.683028e-01 8.044357e-15 4.683028e-01 7.664240e-01 1.084226e+00 1.106638e+00 1.756342e+00 1.954230e+00 1.404012e+00 9.604698e-01 7.830354e-01 6.167580e-01 2.714390e-01 1.011087e-01 -1.005197e-02 -6.603038e-02 -5.482099e-02 
4.147281e-15 8.657294e-02 1.118508e-01 4.017481e-02 -1.304667e-01 -2.386068e-01 -5.213387e-01 -6.363180e-01 -9.399622e-01 -9.982862e-01 -1.719243e+00 -1.984450e+00 -1.410415e+00 -1.388113e+00 -1.039783e+00 -6.262795e-01 2.224869e-15 6.262795e-01 1.039783e+00 1.388113e+00 1.410415e+00 1.984450e+00 1.719243e+00 9.982862e-01 9.399622e-01 6.363180e-01 5.213387e-01 2.386068e-01 1.304667e-01 -4.017481e-02 -1.118508e-01 -8.657294e-02 
4.643882e-15 6.073250e-02 6.554014e-02 4.032434e-03 -1.767870e-01 -2.912957e-01 -5.355856e-01 -5.710486e-01 -1.165825e+00 -9.752539e-01 -1.316642e+00 -1.849068e+00 -1.650040e+00 -1.531309e+00 -1.190672e+00 -6.644506e-01 9.667880e-15 6.644506e-01 1.190672e+00 1.531309e+00 1.650040e+00 1.849068e+00 1.316642e+00 9.752539e-01 1.165825e+00 5.710486e-01 5.355856e-01 2.912957e-01 1.767870e-01 -4.032434e-03 -6.554014e-02 -6.073250e-02 
9.248493e-16 3.807091e-02 3.724454e-02 -6.666146e-03 -1.333398e-01 -2.439718e-01 -4.193295e-01 -4.248929e-01 -7.722106e-01 -7.333866e-01 -6.643544e-01 -1.333477e+00 -1.552212e+00 -1.170369e+00 -9.997502e-01 -5.020904e-01 7.466560e-15 5.020904e-01 9.997502e-01 1.170369e+00 1.552212e+00 1.333477e+00 6.643544e-01 7.333866e-01 7.722106e-01 4.248929e-01 4.193295e-01 2.439718e-01 1.333398e-01 6.666146e-03 -3.724454e-02 -3.807091e-02 
4.676858e-15 3.081010e-02 4.272494e-02 1.952017e-02 -4.166179e-02 -1.604357e-01 -2.503918e-01 -3.485240e-01 -1.367097e-01 -6.676938e-01 -3.047597e-01 -6.709479e-01 -1.242125e+00 -4.055780e-01 -1.654039e-01 1.122877e-02 1.200899e-14 -1.122877e-02 1.654039e-01 4.055780e-01 1.242125e+00 6.709479e-01 3.047597e-01 6.676938e-01 1.367097e-01 3.485240e-01 2.503918e-01 1.604357e-01 4.166179e-02 -1.952017e-02 -4.272494e-02 -3.081010e-02 
-1.083881e-15 3.773897e-02 7.176173e-02 7.660926e-02 8.590053e-02 1.542519e-02 2.223247e-02 -9.535037e-02 3.836634e-01 -7.890945e-02 1.654889e-02 -7.958563e-02 -7.679144e-01 -5.288546e-01 8.383109e-02 1.260655e-01 1.670732e-14 -1.260655e-01 -8.383109e-02 5.288546e-01 7.679144e-01 7.958563e-02 -1.654889e-02 7.890945e-02 -3.836634e-01 9.535037e-02 -2.223247e-02 -1.542519e-02 -8.590053e-02 -7.660926e-02 -7.176173e-02 -3.773897e-02 
2.650270e-15 5.280124e-02 1.097601e-01 1.496793e-01 2.129651e-01 2.305311e-01 3.141133e-01 3.361382e-01 7.179841e-01 1.032458e+00 8.297565e-01 7.452827e-01 1.244236e-02 -2.947571e-01 6.455991e-01 6.716969e-01 -3.294054e-15 -6.716969e-01 -6.455991e-01 2.947571e-01 -1.244236e-02 -7.452827e-01 -8.297565e-01 -1.032458e+00 -7.179841e-01 -3.361382e-01 -3.141133e-01 -2.305311e-01 -2.129651e-01 -1.496793e-01 -1.097601e-01 -5.280124e-02 
-1.909217e-15 6.656339e-02 1.409993e-01 2.049469e-01 3.003696e-01 3.766639e-01 5.153877e-01 6.453328e-01 9.075403e-01 1.514224e+00 1.721644e+00 1.604645e+00 9.709293e-01 -4.221332e-02 -6.177577e-01 -5.043192e-02 -1.248982e-13 5.043192e-02 6.177577e-01 4.221332e-02 -9.709293e-01 -1.604645e+00 -1.721644e+00 -1.514224e+00 -9.075403e-01 -6.453328e-01 -5.153877e-01 -3.766639e-01 -3.003696e-01 -2.049469e-01 -1.409993e-01 -6.656339e-02 
-5.279376e-16 8.017966e-02 1.690309e-01 2.524717e-01 3.671457e-01 4.759710e-01 6.453079e-01 8.249119e-01 1.102198e+00 1.572354e+00 2.153718e+00 2.348615e+00 2.970005e+00 2.220600e+00 -9.355025e-02 -5.754363e-01 1.065735e-14 5.754363e-01 9.355025e-02 -2.220600e+00 -2.970005e+00 -2.348615e+00 -2.153718e+00 -1.572354e+00 -1.102198e+00 -8.249119e-01 -6.453079e-01 -4.759710e-01 -3.671457e-01 -2.524717e-01 -1.690309e-01 -8.017966e-02 
-1.221153e-15 8.902438e-02 1.859716e-01 2.795528e-01 3.988604e-01 5.165171e-01 6.779866e-01 8.524776e-01 1.084775e+00 1.397606e+00 1.837699e+00 2.206490e+00 3.027448e+00 3.903766e+00 3.544128e+00 1.816354e+00 2.145926e-13 -1.816354e+00 -3.544128e+00 -3.903766e+00 -3.027448e+00 -2.206490e+00 -1.837699e+00 -1.397606e+00 -1.084775e+00 -8.524776e-01 -6.779866e-01 -5.165171e-01 -3.988604e-01 -2.795528e-01 -1.859716e-01 -8.902438e-02 
1.285247e-16 9.538979e-02 1.973162e-01 2.963639e-01 4.149466e-01 5.300073e-01 6.729684e-01 8.135727e-01 9.722084e-01 1.126212e+00 1.259147e+00 1.277498e+00 1.033756e+00 1.273849e+00 1.765701e+00 1.304575e+00 1.194102e-13 -1.304575e+00 -1.765701e+00 -1.273849e+00 -1.033756e+00 -1.277498e+00 -1.259147e+00 -1.126212e+00 -9.722084e-01 -8.135727e-01 -6.729684e-01 -5.300073e-01 -4.149466e-01 -2.963639e-01 -1.973162e-01 -9.538979e-02 
1.706946e-15 9.895890e-02 2.032908e-01 3.046007e-01 4.205949e-01 5.312770e-01 6.587906e-01 7.765328e-01 8.940956e-01 9.807856e-01 1.009673e+00 9.018555e-01 5.624162e-01 1.221028e-01 -2.173995e-01 -2.287299e-01 -5.352932e-14 2.287299e-01 2.173995e-01 -1.221028e-01 -5.624162e-01 -9.018555e-01 -1.009673e+00 -9.807856e-01 -8.940956e-01 -7.765328e-01 -6.587906e-01 -5.312770e-01 -4.205949e-01 -3.046007e-01 -2.032908e-01 -9.895890e-02 
-2.470148e-16 1.005071e-01 2.052487e-01 3.067502e-01 4.185923e-01 5.235879e-01 6.355356e-01 7.333944e-01 8.133469e-01 8.599063e-01 8.289982e-01 7.235449e-01 4.673982e-01 2.152024e-01 6.365487e-02 -1.054569e-01 -9.295328e-14 1.054569e-01 -6.365487e-02 -2.152024e-01 -4.673982e-01 -7.235449e-01 -8.289982e-01 -8.599063e-01 -8.133469e-01 -7.333944e-01 -6.355356e-01 -5.235879e-01 -4.185923e-01 -3.067502e-01 -2.052487e-01 -1.005071e-01 
