# vtk DataFile Version 2.0
Comment goes here
ASCII

DATASET STRUCTURED_POINTS
FIELD FieldData 1
TIME 1 1 double
1.14000000
DIMENSIONS    32   32   1

ORIGIN    0.000   0.000   0.000
SPACING   0.03125 0.03125   1.000

POINT_DATA   1024
SCALARS uX double
LOOKUP_TABLE default

-5.178795e-14 3.810362e-02 6.233989e-02 4.977806e-02 6.575284e-03 -9.421455e-02 -2.199670e-01 -4.027994e-01 -5.768860e-01 -7.864721e-01 -9.343130e-01 -1.084986e+00 -1.113933e+00 -1.087718e+00 -8.742356e-01 -5.079445e-01 2.702354e-13 5.079445e-01 8.742356e-01 1.087718e+00 1.113933e+00 1.084986e+00 9.343130e-01 7.864721e-01 5.768860e-01 4.027994e-01 2.199670e-01 9.421455e-02 -6.575284e-03 -4.977806e-02 -6.233989e-02 -3.810362e-02 
-5.632398e-14 4.661834e-02 7.922040e-02 7.648136e-02 4.343888e-02 -4.304396e-02 -1.542950e-01 -3.170993e-01 -4.739038e-01 -6.622136e-01 -7.954320e-01 -9.336991e-01 -9.608504e-01 -9.505154e-01 -7.704105e-01 -4.551318e-01 1.012340e-13 4.551318e-01 7.704105e-01 9.505154e-01 9.608504e-01 9.336991e-01 7.954320e-01 6.622136e-01 4.739038e-01 3.170993e-01 1.542950e-01 4.304396e-02 -4.343888e-02 -7.648136e-02 -7.922040e-02 -4.661834e-02 
-5.582010e-14 6.773745e-02 1.209596e-01 1.389198e-01 1.281698e-01 6.663915e-02 -1.474268e-02 -1.467046e-01 -2.684907e-01 -4.284385e-01 -5.327112e-01 -6.608199e-01 -6.875756e-01 -7.193116e-01 -6.035735e-01 -3.604916e-01 -1.769420e-14 3.604916e-01 6.035735e-01 7.193116e-01 6.875756e-01 6.608199e-01 5.327112e-01 4.284385e-01 2.684907e-01 1.467046e-01 1.474268e-02 -6.663915e-02 -1.281698e-01 -1.389198e-01 -1.209596e-01 -6.773745e-02 
-5.546056e-14 9.987802e-02 1.838419e-01 2.335364e-01 2.545725e-01 2.325902e-01 1.941091e-01 1.168933e-01 4.849433e-02 -5.128103e-02 -1.067433e-01 -1.988349e-01 -2.070152e-01 -2.967425e-01 -2.986696e-01 -2.100503e-01 -5.675135e-14 2.100503e-01 2.986696e-01 2.967425e-01 2.070152e-01 1.988349e-01 1.067433e-01 5.128103e-02 -4.849433e-02 -1.168933e-01 -1.941091e-01 -2.325902e-01 -2.545725e-01 -2.335364e-01 -1.838419e-01 -9.987802e-02 
-4.549748e-14 1.372954e-01 2.560659e-01 3.395733e-01 3.919622e-01 4.051808e-01 4.054839e-01 3.717256e-01 3.506677e-01 2.894746e-01 2.678319e-01 1.809407e-01 1.716339e-01 -1.767830e-02 -1.036138e-01 -7.145385e-02 -2.998635e-15 7.145385e-02 1.036138e-01 1.767830e-02 -1.716339e-01 -1.809407e-01 -2.678319e-01 -2.894746e-01 -3.506677e-01 -3.717256e-01 -4.054839e-01 -4.051808e-01 -3.919622e-01 -3.395733e-01 -2.560659e-01 -1.372954e-01 
-3.854911e-14 1.720895e-01 3.228252e-01 4.369525e-01 5.159654e-01 5.602509e-01 5.918482e-01 6.036543e-01 6.245125e-01 6.261320e-01 6.443011e-01 6.183140e-01 7.381119e-01 5.512866e-01 3.382790e-01 1.499582e-01 1.382109e-13 -1.499582e-01 -3.382790e-01 -5.512866e-01 -7.381119e-01 -6.183140e-01 -6.443011e-01 -6.261320e-01 -6.245125e-01 -6.036543e-01 -5.918482e-01 -5.602509e-01 -5.159654e-01 -4.369525e-01 -3.228252e-01 -1.720895e-01 
-1.712950e-14 2.014876e-01 3.778190e-01 5.184717e-01 6.168212e-01 6.861042e-01 7.395098e-01 7.819261e-01 8.382277e-01 8.734670e-01 9.167717e-01 9.519525e-01 1.062441e+00 6.673716e-01 7.108051e-01 6.644414e-01 6.001874e-13 -6.644414e-01 -7.108051e-01 -6.673716e-01 -1.062441e+00 -9.519525e-01 -9.167717e-01 -8.734670e-01 -8.382277e-01 -7.819261e-01 -7.395098e-01 -6.861042e-01 -6.168212e-01 -5.184717e-01 -3.778190e-01 -2.014876e-01 
2.726585e-15 2.124207e-01 3.975557e-01 5.473639e-01 6.520626e-01 7.310512e-01 7.954812e-01 8.597505e-01 9.369729e-01 1.035017e+00 1.002152e+00 1.217843e+00 1.563782e+00 1.983156e+00 2.133676e+00 1.249401e+00 8.008458e-13 -1.249401e+00 -2.133676e+00 -1.983156e+00 -1.563782e+00 -1.217843e+00 -1.002152e+00 -1.035017e+00 -9.369729e-01 -8.597505e-01 -7.954812e-01 -7.310512e-01 -6.520626e-01 -5.473639e-01 -3.975557e-01 -2.124207e-01 
4.577777e-14 2.087548e-01 3.872659e-01 5.392630e-01 6.380640e-01 7.306651e-01 7.990136e-01 8.912654e-01 1.011700e+00 1.107374e+00 1.239397e+00 1.856604e+00 1.951184e+00 2.019075e+00 1.171595e+00 2.600168e-01 2.708363e-13 -2.600168e-01 -1.171595e+00 -2.019075e+00 -1.951184e+00 -1.856604e+00 -1.239397e+00 -1.107374e+00 -1.011700e+00 -8.912654e-01 -7.990136e-01 -7.306651e-01 -6.380640e-01 -5.392630e-01 -3.872659e-01 -2.087548e-01 
8.924142e-14 1.754951e-01 3.223387e-01 4.488581e-01 5.231215e-01 5.975782e-01 6.612485e-01 7.424576e-01 9.717882e-01 1.021562e+00 1.126253e+00 8.949130e-01 4.017658e-02 -7.567902e-01 -1.100173e+00 -4.951350e-01 -3.581860e-13 4.951350e-01 1.100173e+00 7.567902e-01 -4.017658e-02 -8.949130e-01 -1.126253e+00 -1.021562e+00 -9.717882e-01 -7.424576e-01 -6.612485e-01 -5.975782e-01 -5.231215e-01 -4.488581e-01 -3.223387e-01 -1.754951e-01 
1.550381e-13 1.234585e-01 2.223836e-01 3.210235e-01 3.603711e-01 4.386586e-01 4.694321e-01 6.042718e-01 7.001410e-01 1.985165e-01 6.736002e-03 -3.926442e-01 -7.478962e-01 -5.181912e-01 -3.429153e-02 2.223466e-01 -2.884381e-13 -2.223466e-01 3.429153e-02 5.181912e-01 7.478962e-01 3.926442e-01 -6.736002e-03 -1.985165e-01 -7.001410e-01 -6.042718e-01 -4.694321e-01 -4.386586e-01 -3.603711e-01 -3.210235e-01 -2.223836e-01 -1.234585e-01 
2.092160e-13 3.894846e-02 6.518828e-02 1.080314e-01 9.024170e-02 1.180295e-01 1.292172e-02 3.016728e-02 -3.524224e-01 -9.112281e-01 -4.105424e-01 -3.872234e-01 -3.861339e-01 1.481335e-02 1.390393e-01 4.018964e-02 -5.708757e-14 -4.018964e-02 -1.390393e-01 -1.481335e-02 3.861339e-01 3.872234e-01 4.105424e-01 9.112281e-01 3.524224e-01 -3.016728e-02 -1.292172e-02 -1.180295e-01 -9.024170e-02 -1.080314e-01 -6.518828e-02 -3.894846e-02 
2.668996e-13 -6.631467e-02 -1.243209e-01 -1.393783e-01 -1.929753e-01 -1.675656e-01 -3.568899e-01 -2.762166e-01 -1.144905e+00 -9.154346e-01 1.174493e-01 -6.447486e-01 -6.234526e-01 -4.254780e-01 -3.106942e-01 -2.215534e-01 1.676406e-13 2.215534e-01 3.106942e-01 4.254780e-01 6.234526e-01 6.447486e-01 -1.174493e-01 9.154346e-01 1.144905e+00 2.762166e-01 3.568899e-01 1.675656e-01 1.929753e-01 1.393783e-01 1.243209e-01 6.631467e-02 
2.798516e-13 -2.008705e-01 -3.653786e-01 -4.600186e-01 -5.305191e-01 -5.066490e-01 -6.482727e-01 -5.137689e-01 -1.232237e+00 -3.799164e-01 -1.730108e-01 -8.525428e-01 -3.857906e-01 -3.258056e-01 -2.256200e-01 -1.659905e-01 1.711919e-13 1.659905e-01 2.256200e-01 3.258056e-01 3.857906e-01 8.525428e-01 1.730108e-01 3.799164e-01 1.232237e+00 5.137689e-01 6.482727e-01 5.066490e-01 5.305191e-01 4.600186e-01 3.653786e-01 2.008705e-01 
2.741841e-13 -3.691601e-01 -6.740852e-01 -9.162180e-01 -1.028839e+00 -1.130749e+00 -1.110164e+00 -1.228288e+00 -9.977117e-01 -2.361368e-01 -9.032590e-01 -7.451113e-01 -4.078402e-01 -3.904151e-01 -2.903676e-01 -1.867012e-01 9.997746e-14 1.867012e-01 2.903676e-01 3.904151e-01 4.078402e-01 7.451113e-01 9.032590e-01 2.361368e-01 9.977117e-01 1.228288e+00 1.110164e+00 1.130749e+00 1.028839e+00 9.162180e-01 6.740852e-01 3.691601e-01 
1.887678e-13 -5.445796e-01 -1.005592e+00 -1.391205e+00 -1.548883e+00 -1.689807e+00 -1.453041e+00 -1.522055e+00 -5.232049e-01 -6.780724e-01 -1.286978e+00 -3.587701e-01 -4.022805e-01 -2.194023e-01 -2.161218e-01 -1.132411e-01 4.417977e-14 1.132411e-01 2.161218e-01 2.194023e-01 4.022805e-01 3.587701e-01 1.286978e+00 6.780724e-01 5.232049e-01 1.522055e+00 1.453041e+00 1.689807e+00 1.548883e+00 1.391205e+00 1.005592e+00 5.445796e-01 
1.327149e-14 -6.446213e-01 -1.194516e+00 -1.653088e+00 -1.833724e+00 -1.963651e+00 -1.643319e+00 -1.593161e+00 -4.023707e-01 -9.911725e-01 -1.290118e+00 -7.361089e-03 -3.230560e-01 -1.430275e-01 -2.054842e-01 -1.052650e-01 -6.432391e-14 1.052650e-01 2.054842e-01 1.430275e-01 3.230560e-01 7.361089e-03 1.290118e+00 9.911725e-01 4.023707e-01 1.593161e+00 1.643319e+00 1.963651e+00 1.833724e+00 1.653088e+00 1.194516e+00 6.446213e-01 
-1.674179e-13 -5.445796e-01 -1.005592e+00 -1.391205e+00 -1.548883e+00 -1.689807e+00 -1.453041e+00 -1.522055e+00 -5.232049e-01 -6.780724e-01 -1.286978e+00 -3.587701e-01 -4.022805e-01 -2.194023e-01 -2.161218e-01 -1.132411e-01 -1.443611e-13 1.132411e-01 2.161218e-01 2.194023e-01 4.022805e-01 3.587701e-01 1.286978e+00 6.780724e-01 5.232049e-01 1.522055e+00 1.453041e+00 1.689807e+00 1.548883e+00 1.391205e+00 1.005592e+00 5.445796e-01 
-2.814920e-13 -3.691601e-01 -6.740852e-01 -9.162180e-01 -1.028839e+00 -1.130749e+00 -1.110164e+00 -1.228288e+00 -9.977117e-01 -2.361368e-01 -9.032590e-01 -7.451113e-01 -4.078402e-01 -3.904151e-01 -2.903676e-01 -1.867012e-01 -2.504408e-13 1.867012e-01 2.903676e-01 3.904151e-01 4.078402e-01 7.451113e-01 9.032590e-01 2.361368e-01 9.977117e-01 1.228288e+00 1.110164e+00 1.130749e+00 1.028839e+00 9.162180e-01 6.740852e-01 3.691601e-01 
-3.084045e-13 -2.008705e-01 -3.653786e-01 -4.600186e-01 -5.305191e-01 -5.066490e-01 -6.482727e-01 -5.137689e-01 -1.232237e+00 -3.799164e-01 -1.730108e-01 -8.525428e-01 -3.857906e-01 -3.258056e-01 -2.256200e-01 -1.659905e-01 -2.985409e-13 1.659905e-01 2.256200e-01 3.258056e-01 3.857906e-01 8.525428e-01 1.730108e-01 3.799164e-01 1.232237e+00 5.137689e-01 6.482727e-01 5.066490e-01 5.305191e-01 4.600186e-01 3.653786e-01 2.008705e-01 
-3.137489e-13 -6.631467e-02 -1.243209e-01 -1.393783e-01 -1.929753e-01 -1.675656e-01 -3.568899e-01 -2.762166e-01 -1.144905e+00 -9.154346e-01 1.174493e-01 -6.447486e-01 -6.234526e-01 -4.254780e-01 -3.106942e-01 -2.215534e-01 -1.839348e-13 2.215534e-01 3.106942e-01 4.254780e-01 6.234526e-01 6.447486e-01 -1.174493e-01 9.154346e-01 1.144905e+00 2.762166e-01 3.568899e-01 1.675656e-01 1.929753e-01 1.393783e-01 1.243209e-01 6.631467e-02 
-2.646843e-13 3.894846e-02 6.518828e-02 1.080314e-01 9.024170e-02 1.180295e-01 1.292172e-02 3.016728e-02 -3.524224e-01 -9.112281e-01 -4.105424e-01 -3.872234e-01 -3.861339e-01 1.481335e-02 1.390393e-01 4.018964e-02 5.868896e-13 -4.018964e-02 -1.390393e-01 -1.481335e-02 3.861339e-01 3.872234e-01 4.105424e-01 9.112281e-01 3.524224e-01 -3.016728e-02 -1.292172e-02 -1.180295e-01 -9.024170e-02 -1.080314e-01 -6.518828e-02 -3.894846e-02 
-2.134764e-13 1.234585e-01 2.223836e-01 3.210235e-01 3.603711e-01 4.386586e-01 4.694321e-01 6.042718e-01 7.001410e-01 1.985165e-01 6.736002e-03 -3.926442e-01 -7.478962e-01 -5.181912e-01 -3.429153e-02 2.223466e-01 1.565335e-12 -2.223466e-01 3.429153e-02 5.181912e-01 7.478962e-01 3.926442e-01 -6.736002e-03 -1.985165e-01 -7.001410e-01 -6.042718e-01 -4.694321e-01 -4.386586e-01 -3.603711e-01 -3.210235e-01 -2.223836e-01 -1.234585e-01 
-1.476149e-13 1.754951e-01 3.223387e-01 4.488581e-01 5.231215e-01 5.975782e-01 6.612485e-01 7.424576e-01 9.717882e-01 1.021562e+00 1.126253e+00 8.949130e-01 4.017658e-02 -7.567902e-01 -1.100173e+00 -4.951350e-01 8.479910e-13 4.951350e-01 1.100173e+00 7.567902e-01 -4.017658e-02 -8.949130e-01 -1.126253e+00 -1.021562e+00 -9.717882e-01 -7.424576e-01 -6.612485e-01 -5.975782e-01 -5.231215e-01 -4.488581e-01 -3.223387e-01 -1.754951e-01 
-1.014107e-13 2.087548e-01 3.872659e-01 5.392630e-01 6.380640e-01 7.306651e-01 7.990136e-01 8.912654e-01 1.011700e+00 1.107374e+00 1.239397e+00 1.856604e+00 1.951184e+00 2.019075e+00 1.171595e+00 2.600168e-01 -1.238323e-12 -2.600168e-01 -1.171595e+00 -2.019075e+00 -1.951184e+00 -1.856604e+00 -1.239397e+00 -1.107374e+00 -1.011700e+00 -8.912654e-01 -7.990136e-01 -7.306651e-01 -6.380640e-01 -5.392630e-01 -3.872659e-01 -2.087548e-01 
-6.160891e-14 2.124207e-01 3.975557e-01 5.473639e-01 6.520626e-01 7.310512e-01 7.954812e-01 8.597505e-01 9.369729e-01 1.035017e+00 1.002152e+00 1.217843e+00 1.563782e+00 1.983156e+00 2.133676e+00 1.249401e+00 -2.564181e-12 -1.249401e+00 -2.133676e+00 -1.983156e+00 -1.563782e+00 -1.217843e+00 -1.002152e+00 -1.035017e+00 -9.369729e-01 -8.597505e-01 -7.954812e-01 -7.310512e-01 -6.520626e-01 -5.473639e-01 -3.975557e-01 -2.124207e-01 
-4.275659e-14 2.014876e-01 3.778190e-01 5.184717e-01 6.168212e-01 6.861042e-01 7.395098e-01 7.819261e-01 8.382277e-01 8.734670e-01 9.167717e-01 9.519525e-01 1.062441e+00 6.673716e-01 7.108051e-01 6.644414e-01 -1.919381e-12 -6.644414e-01 -7.108051e-01 -6.673716e-01 -1.062441e+00 -9.519525e-01 -9.167717e-01 -8.734670e-01 -8.382277e-01 -7.819261e-01 -7.395098e-01 -6.861042e-01 -6.168212e-01 -5.184717e-01 -3.778190e-01 -2.014876e-01 
-3.006317e-14 1.720895e-01 3.228252e-01 4.369525e-01 5.159654e-01 5.602509e-01 5.918482e-01 6.036543e-01 6.245125e-01 6.261320e-01 6.443011e-01 6.183140e-01 7.381119e-01 5.512866e-01 3.382790e-01 1.499582e-01 -4.793726e-13 -1.499582e-01 -3.382790e-01 -5.512866e-01 -7.381119e-01 -6.183140e-01 -6.443011e-01 -6.261320e-01 -6.245125e-01 -6.036543e-01 -5.918482e-01 -5.602509e-01 -5.159654e-01 -4.369525e-01 -3.228252e-01 -1.720895e-01 
-3.091043e-14 1.372954e-01 2.560659e-01 3.395733e-01 3.919622e-01 4.051808e-01 4.054839e-01 3.717256e-01 3.506677e-01 2.894746e-01 2.678319e-01 1.809407e-01 1.716339e-01 -1.767830e-02 -1.036138e-01 -7.145385e-02 3.386866e-14 7.145385e-02 1.036138e-01 1.767830e-02 -1.716339e-01 -1.809407e-01 -2.678319e-01 -2.894746e-01 -3.506677e-01 -3.717256e-01 -4.054839e-01 -4.051808e-01 -3.919622e-01 -3.395733e-01 -2.560659e-01 -1.372954e-01 
-3.270936e-14 9.987802e-02 1.838419e-01 2.335364e-01 2.545725e-01 2.325902e-01 1.941091e-01 1.168933e-01 4.849433e-02 -5.128103e-02 -1.067433e-01 -1.988349e-01 -2.070152e-01 -2.967425e-01 -2.986696e-01 -2.100503e-01 3.937236e-13 2.100503e-01 2.986696e-01 2.967425e-01 2.070152e-01 1.988349e-01 1.067433e-01 5.128103e-02 -4.849433e-02 -1.168933e-01 -1.941091e-01 -2.325902e-01 -2.545725e-01 -2.335364e-01 -1.838419e-01 -9.987802e-02 
-4.029392e-14 6.773745e-02 1.209596e-01 1.389198e-01 1.281698e-01 6.663915e-02 -1.474268e-02 -1.467046e-01 -2.684907e-01 -4.284385e-01 -5.327112e-01 -6.608199e-01 -6.875756e-01 -7.193116e-01 -6.035735e-01 -3.604916e-01 5.183009e-13 3.604916e-01 6.035735e-01 7.193116e-01 6.875756e-01 6.608199e-01 5.327112e-01 4.284385e-01 2.684907e-01 1.467046e-01 1.474268e-02 -6.663915e-02 -1.281698e-01 -1.389198e-01 -1.209596e-01 -6.773745e-02 
-4.595566e-14 4.661834e-02 7.922040e-02 7.648136e-02 4.343888e-02 -4.304396e-02 -1.542950e-01 -3.170993e-01 -4.739038e-01 -6.622136e-01 -7.954320e-01 -9.336991e-01 -9.608504e-01 -9.505154e-01 -7.704105e-01 -4.551318e-01 4.352251e-13 4.551318e-01 7.704105e-01 9.505154e-01 9.608504e-01 9.336991e-01 7.954320e-01 6.622136e-01 4.739038e-01 3.170993e-01 1.542950e-01 4.304396e-02 -4.343888e-02 -7.648136e-02 -7.922040e-02 -4.661834e-02 
