# vtk DataFile Version 2.0
Comment goes here
ASCII

DATASET STRUCTURED_POINTS
FIELD FieldData 1
TIME 1 1 double
0.66000000
DIMENSIONS    32   32   1

ORIGIN    0.000   0.000   0.000
SPACING   0.03125 0.03125   1.000

POINT_DATA   1024
SCALARS uX double
LOOKUP_TABLE default

-1.092817e-15 4.612942e-02 8.300733e-02 1.059820e-01 1.032607e-01 7.228343e-02 3.191971e-04 -1.140484e-01 -2.740697e-01 -4.692156e-01 -6.800497e-01 -8.799759e-01 -1.011226e+00 -1.037024e+00 -8.646183e-01 -5.016873e-01 4.078510e-14 5.016873e-01 8.646183e-01 1.037024e+00 1.011226e+00 8.799759e-01 6.800497e-01 4.692156e-01 2.740697e-01 1.140484e-01 -3.191971e-04 -7.228343e-02 -1.032607e-01 -1.059820e-01 -8.300733e-02 -4.612942e-02 
-4.202723e-15 4.757040e-02 8.614447e-02 1.117230e-01 1.136051e-01 9.088099e-02 3.254892e-02 -6.088710e-02 -1.929774e-01 -3.512249e-01 -5.229991e-01 -6.771915e-01 -7.797520e-01 -7.830538e-01 -6.405882e-01 -3.819930e-01 3.736746e-14 3.819930e-01 6.405882e-01 7.830538e-01 7.797520e-01 6.771915e-01 5.229991e-01 3.512249e-01 1.929774e-01 6.088710e-02 -3.254892e-02 -9.088099e-02 -1.136051e-01 -1.117230e-01 -8.614447e-02 -4.757040e-02 
-9.233462e-16 6.107140e-02 1.125227e-01 1.521010e-01 1.694749e-01 1.684390e-01 1.391512e-01 8.560055e-02 1.929086e-03 -1.034645e-01 -2.270671e-01 -3.556758e-01 -4.600585e-01 -5.388988e-01 -4.796245e-01 -2.805115e-01 3.286113e-14 2.805115e-01 4.796245e-01 5.388988e-01 4.600585e-01 3.556758e-01 2.270671e-01 1.034645e-01 -1.929086e-03 -8.560055e-02 -1.391512e-01 -1.684390e-01 -1.694749e-01 -1.521010e-01 -1.125227e-01 -6.107140e-02 
-5.110179e-15 7.536318e-02 1.399233e-01 1.934001e-01 2.269606e-01 2.503585e-01 2.577599e-01 2.575937e-01 2.453115e-01 2.259088e-01 1.904530e-01 1.450277e-01 9.997684e-02 1.032607e-01 1.022010e-01 1.333160e-02 3.323681e-14 -1.333160e-02 -1.022010e-01 -1.032607e-01 -9.997684e-02 -1.450277e-01 -1.904530e-01 -2.259088e-01 -2.453115e-01 -2.575937e-01 -2.577599e-01 -2.503585e-01 -2.269606e-01 -1.934001e-01 -1.399233e-01 -7.536318e-02 
-3.900833e-15 1.010732e-01 1.879195e-01 2.628831e-01 3.161391e-01 3.665154e-01 4.092057e-01 4.605163e-01 5.142944e-01 5.764997e-01 6.090677e-01 6.135299e-01 5.672419e-01 3.649584e-01 2.063177e-01 1.474925e-01 -4.723354e-16 -1.474925e-01 -2.063177e-01 -3.649584e-01 -5.672419e-01 -6.135299e-01 -6.090677e-01 -5.764997e-01 -5.142944e-01 -4.605163e-01 -4.092057e-01 -3.665154e-01 -3.161391e-01 -2.628831e-01 -1.879195e-01 -1.010732e-01 
-8.843596e-15 1.234910e-01 2.272158e-01 3.151076e-01 3.761521e-01 4.380249e-01 4.999533e-01 5.818638e-01 6.901493e-01 8.213670e-01 9.355326e-01 1.013437e+00 1.206353e+00 1.753599e+00 1.886076e+00 1.209074e+00 -2.849222e-14 -1.209074e+00 -1.886076e+00 -1.753599e+00 -1.206353e+00 -1.013437e+00 -9.355326e-01 -8.213670e-01 -6.901493e-01 -5.818638e-01 -4.999533e-01 -4.380249e-01 -3.761521e-01 -3.151076e-01 -2.272158e-01 -1.234910e-01 
-8.160212e-15 1.555396e-01 2.834115e-01 3.903555e-01 4.596676e-01 5.333730e-01 6.104878e-01 7.209508e-01 8.908678e-01 1.131540e+00 1.382381e+00 1.884819e+00 2.753755e+00 3.065739e+00 1.920502e+00 9.087471e-01 -1.745716e-14 -9.087471e-01 -1.920502e+00 -3.065739e+00 -2.753755e+00 -1.884819e+00 -1.382381e+00 -1.131540e+00 -8.908678e-01 -7.209508e-01 -6.104878e-01 -5.333730e-01 -4.596676e-01 -3.903555e-01 -2.834115e-01 -1.555396e-01 
-1.157939e-14 1.763635e-01 3.161852e-01 4.273961e-01 4.844179e-01 5.453662e-01 6.069550e-01 7.073387e-01 9.247812e-01 1.228585e+00 1.596376e+00 1.773640e+00 1.350011e+00 -3.448094e-01 -1.620457e+00 -9.421529e-01 5.846727e-14 9.421529e-01 1.620457e+00 3.448094e-01 -1.350011e+00 -1.773640e+00 -1.596376e+00 -1.228585e+00 -9.247812e-01 -7.073387e-01 -6.069550e-01 -5.453662e-01 -4.844179e-01 -4.273961e-01 -3.161852e-01 -1.763635e-01 
-7.663461e-15 1.966611e-01 3.498965e-01 4.715830e-01 5.177661e-01 5.702583e-01 6.064823e-01 6.704080e-01 9.527408e-01 9.384465e-01 9.011119e-01 2.672976e-01 -9.136544e-01 -1.319052e+00 -6.019632e-01 -5.381128e-02 4.489540e-14 5.381128e-02 6.019632e-01 1.319052e+00 9.136544e-01 -2.672976e-01 -9.011119e-01 -9.384465e-01 -9.527408e-01 -6.704080e-01 -6.064823e-01 -5.702583e-01 -5.177661e-01 -4.715830e-01 -3.498965e-01 -1.966611e-01 
-1.841365e-15 1.903944e-01 3.352545e-01 4.472894e-01 4.569965e-01 4.731243e-01 4.133544e-01 4.095024e-01 5.594305e-01 -4.732557e-02 -3.449906e-01 -6.976724e-01 -9.395568e-01 -4.380627e-02 7.386679e-01 4.554487e-01 -1.485534e-14 -4.554487e-01 -7.386679e-01 4.380627e-02 9.395568e-01 6.976724e-01 3.449906e-01 4.732557e-02 -5.594305e-01 -4.095024e-01 -4.133544e-01 -4.731243e-01 -4.569965e-01 -4.472894e-01 -3.352545e-01 -1.903944e-01 
1.023594e-14 1.656393e-01 2.929797e-01 4.025692e-01 3.901324e-01 4.353494e-01 2.850230e-01 4.569701e-01 7.341631e-02 -5.723121e-01 -3.180641e-01 -5.666833e-01 -5.181208e-01 -1.236266e-01 9.718338e-02 6.072569e-03 -1.054278e-14 -6.072569e-03 -9.718338e-02 1.236266e-01 5.181208e-01 5.666833e-01 3.180641e-01 5.723121e-01 -7.341631e-02 -4.569701e-01 -2.850230e-01 -4.353494e-01 -3.901324e-01 -4.025692e-01 -2.929797e-01 -1.656393e-01 
2.696361e-14 1.040995e-01 1.880313e-01 2.687323e-01 2.305802e-01 2.557050e-01 -2.065408e-02 1.833064e-01 -9.069548e-01 -6.756957e-01 -2.990147e-01 -9.515359e-01 -3.702307e-01 -2.559003e-01 -7.114763e-02 -1.042744e-01 6.096829e-15 1.042744e-01 7.114763e-02 2.559003e-01 3.702307e-01 9.515359e-01 2.990147e-01 6.756957e-01 9.069548e-01 -1.833064e-01 2.065408e-02 -2.557050e-01 -2.305802e-01 -2.687323e-01 -1.880313e-01 -1.040995e-01 
3.767969e-14 3.825765e-03 1.937665e-02 3.733546e-02 3.341001e-03 -4.386098e-02 -2.899041e-01 -3.762993e-01 -1.353863e+00 -4.626880e-01 -5.967921e-01 -1.076245e+00 -4.168666e-01 -6.116663e-01 -3.701510e-01 -2.842077e-01 -1.707714e-15 2.842077e-01 3.701510e-01 6.116663e-01 4.168666e-01 1.076245e+00 5.967921e-01 4.626880e-01 1.353863e+00 3.762993e-01 2.899041e-01 4.386098e-02 -3.341001e-03 -3.733546e-02 -1.937665e-02 -3.825765e-03 
5.028463e-14 -1.342045e-01 -2.178611e-01 -2.768016e-01 -2.815657e-01 -3.796574e-01 -5.035871e-01 -8.732683e-01 -8.510252e-01 -3.281459e-01 -7.480096e-01 -6.609955e-01 -3.732780e-01 -3.991023e-01 -2.683652e-01 -1.913950e-01 3.021638e-15 1.913950e-01 2.683652e-01 3.991023e-01 3.732780e-01 6.609955e-01 7.480096e-01 3.281459e-01 8.510252e-01 8.732683e-01 5.035871e-01 3.796574e-01 2.815657e-01 2.768016e-01 2.178611e-01 1.342045e-01 
3.924977e-14 -3.351772e-01 -5.955578e-01 -8.212793e-01 -8.994874e-01 -1.086325e+00 -1.076074e+00 -1.414269e+00 -6.456646e-01 -7.547933e-01 -9.964230e-01 -3.553515e-01 -4.146747e-01 -3.076428e-01 -2.733882e-01 -1.626199e-01 -7.382244e-15 1.626199e-01 2.733882e-01 3.076428e-01 4.146747e-01 3.553515e-01 9.964230e-01 7.547933e-01 6.456646e-01 1.414269e+00 1.076074e+00 1.086325e+00 8.994874e-01 8.212793e-01 5.955578e-01 3.351772e-01 
3.315866e-14 -5.830776e-01 -1.074894e+00 -1.486847e+00 -1.607147e+00 -1.673802e+00 -1.286330e+00 -1.205450e+00 -4.687151e-01 -8.734688e-01 -8.073479e-01 5.529014e-02 -1.935231e-01 -3.018732e-02 -1.263875e-01 -5.803872e-02 -7.139697e-15 5.803872e-02 1.263875e-01 3.018732e-02 1.935231e-01 -5.529014e-02 8.073479e-01 8.734688e-01 4.687151e-01 1.205450e+00 1.286330e+00 1.673802e+00 1.607147e+00 1.486847e+00 1.074894e+00 5.830776e-01 
-3.344900e-14 -7.433957e-01 -1.384105e+00 -1.897078e+00 -2.017328e+00 -1.959782e+00 -1.369063e+00 -1.093706e+00 -5.933715e-01 -1.037241e+00 -8.283784e-01 5.659306e-02 -1.840179e-01 -2.259805e-02 -1.331343e-01 -6.063609e-02 -1.020113e-14 6.063609e-02 1.331343e-01 2.259805e-02 1.840179e-01 -5.659306e-02 8.283784e-01 1.037241e+00 5.933715e-01 1.093706e+00 1.369063e+00 1.959782e+00 2.017328e+00 1.897078e+00 1.384105e+00 7.433957e-01 
-4.925062e-14 -5.830776e-01 -1.074894e+00 -1.486847e+00 -1.607147e+00 -1.673802e+00 -1.286330e+00 -1.205450e+00 -4.687151e-01 -8.734688e-01 -8.073479e-01 5.529014e-02 -1.935231e-01 -3.018732e-02 -1.263875e-01 -5.803872e-02 -1.825904e-14 5.803872e-02 1.263875e-01 3.018732e-02 1.935231e-01 -5.529014e-02 8.073479e-01 8.734688e-01 4.687151e-01 1.205450e+00 1.286330e+00 1.673802e+00 1.607147e+00 1.486847e+00 1.074894e+00 5.830776e-01 
-5.281517e-14 -3.351772e-01 -5.955578e-01 -8.212793e-01 -8.994874e-01 -1.086325e+00 -1.076074e+00 -1.414269e+00 -6.456646e-01 -7.547933e-01 -9.964230e-01 -3.553515e-01 -4.146747e-01 -3.076428e-01 -2.733882e-01 -1.626199e-01 -1.319340e-14 1.626199e-01 2.733882e-01 3.076428e-01 4.146747e-01 3.553515e-01 9.964230e-01 7.547933e-01 6.456646e-01 1.414269e+00 1.076074e+00 1.086325e+00 8.994874e-01 8.212793e-01 5.955578e-01 3.351772e-01 
-4.429021e-14 -1.342045e-01 -2.178611e-01 -2.768016e-01 -2.815657e-01 -3.796574e-01 -5.035871e-01 -8.732683e-01 -8.510252e-01 -3.281459e-01 -7.480096e-01 -6.609955e-01 -3.732780e-01 -3.991023e-01 -2.683652e-01 -1.913950e-01 -2.427851e-14 1.913950e-01 2.683652e-01 3.991023e-01 3.732780e-01 6.609955e-01 7.480096e-01 3.281459e-01 8.510252e-01 8.732683e-01 5.035871e-01 3.796574e-01 2.815657e-01 2.768016e-01 2.178611e-01 1.342045e-01 
-3.148611e-14 3.825765e-03 1.937665e-02 3.733546e-02 3.341001e-03 -4.386098e-02 -2.899041e-01 -3.762993e-01 -1.353863e+00 -4.626880e-01 -5.967921e-01 -1.076245e+00 -4.168666e-01 -6.116663e-01 -3.701510e-01 -2.842077e-01 -3.394457e-14 2.842077e-01 3.701510e-01 6.116663e-01 4.168666e-01 1.076245e+00 5.967921e-01 4.626880e-01 1.353863e+00 3.762993e-01 2.899041e-01 4.386098e-02 -3.341001e-03 -3.733546e-02 -1.937665e-02 -3.825765e-03 
-1.685005e-14 1.040995e-01 1.880313e-01 2.687323e-01 2.305802e-01 2.557050e-01 -2.065408e-02 1.833064e-01 -9.069548e-01 -6.756957e-01 -2.990147e-01 -9.515359e-01 -3.702307e-01 -2.559003e-01 -7.114763e-02 -1.042744e-01 -6.212867e-14 1.042744e-01 7.114763e-02 2.559003e-01 3.702307e-01 9.515359e-01 2.990147e-01 6.756957e-01 9.069548e-01 -1.833064e-01 2.065408e-02 -2.557050e-01 -2.305802e-01 -2.687323e-01 -1.880313e-01 -1.040995e-01 
1.344453e-15 1.656393e-01 2.929797e-01 4.025692e-01 3.901324e-01 4.353494e-01 2.850230e-01 4.569701e-01 7.341631e-02 -5.723121e-01 -3.180641e-01 -5.666833e-01 -5.181208e-01 -1.236266e-01 9.718338e-02 6.072569e-03 -4.704426e-14 -6.072569e-03 -9.718338e-02 1.236266e-01 5.181208e-01 5.666833e-01 3.180641e-01 5.723121e-01 -7.341631e-02 -4.569701e-01 -2.850230e-01 -4.353494e-01 -3.901324e-01 -4.025692e-01 -2.929797e-01 -1.656393e-01 
7.665428e-15 1.903944e-01 3.352545e-01 4.472894e-01 4.569965e-01 4.731243e-01 4.133544e-01 4.095024e-01 5.594305e-01 -4.732557e-02 -3.449906e-01 -6.976724e-01 -9.395568e-01 -4.380627e-02 7.386679e-01 4.554487e-01 -1.875596e-14 -4.554487e-01 -7.386679e-01 4.380627e-02 9.395568e-01 6.976724e-01 3.449906e-01 4.732557e-02 -5.594305e-01 -4.095024e-01 -4.133544e-01 -4.731243e-01 -4.569965e-01 -4.472894e-01 -3.352545e-01 -1.903944e-01 
1.632711e-14 1.966611e-01 3.498965e-01 4.715830e-01 5.177661e-01 5.702583e-01 6.064823e-01 6.704080e-01 9.527408e-01 9.384465e-01 9.011119e-01 2.672976e-01 -9.136544e-01 -1.319052e+00 -6.019632e-01 -5.381128e-02 1.028354e-14 5.381128e-02 6.019632e-01 1.319052e+00 9.136544e-01 -2.672976e-01 -9.011119e-01 -9.384465e-01 -9.527408e-01 -6.704080e-01 -6.064823e-01 -5.702583e-01 -5.177661e-01 -4.715830e-01 -3.498965e-01 -1.966611e-01 
1.047796e-14 1.763635e-01 3.161852e-01 4.273961e-01 4.844179e-01 5.453662e-01 6.069550e-01 7.073387e-01 9.247812e-01 1.228585e+00 1.596376e+00 1.773640e+00 1.350011e+00 -3.448094e-01 -1.620457e+00 -9.421529e-01 9.735638e-14 9.421529e-01 1.620457e+00 3.448094e-01 -1.350011e+00 -1.773640e+00 -1.596376e+00 -1.228585e+00 -9.247812e-01 -7.073387e-01 -6.069550e-01 -5.453662e-01 -4.844179e-01 -4.273961e-01 -3.161852e-01 -1.763635e-01 
1.144012e-14 1.555396e-01 2.834115e-01 3.903555e-01 4.596676e-01 5.333730e-01 6.104878e-01 7.209508e-01 8.908678e-01 1.131540e+00 1.382381e+00 1.884819e+00 2.753755e+00 3.065739e+00 1.920502e+00 9.087471e-01 2.476758e-14 -9.087471e-01 -1.920502e+00 -3.065739e+00 -2.753755e+00 -1.884819e+00 -1.382381e+00 -1.131540e+00 -8.908678e-01 -7.209508e-01 -6.104878e-01 -5.333730e-01 -4.596676e-01 -3.903555e-01 -2.834115e-01 -1.555396e-01 
2.000119e-15 1.234910e-01 2.272158e-01 3.151076e-01 3.761521e-01 4.380249e-01 4.999533e-01 5.818638e-01 6.901493e-01 8.213670e-01 9.355326e-01 1.013437e+00 1.206353e+00 1.753599e+00 1.886076e+00 1.209074e+00 -1.533031e-13 -1.209074e+00 -1.886076e+00 -1.753599e+00 -1.206353e+00 -1.013437e+00 -9.355326e-01 -8.213670e-01 -6.901493e-01 -5.818638e-01 -4.999533e-01 -4.380249e-01 -3.761521e-01 -3.151076e-01 -2.272158e-01 -1.234910e-01 
3.521137e-15 1.010732e-01 1.879195e-01 2.628831e-01 3.161391e-01 3.665154e-01 4.092057e-01 4.605163e-01 5.142944e-01 5.764997e-01 6.090677e-01 6.135299e-01 5.672419e-01 3.649584e-01 2.063177e-01 1.474925e-01 -7.482508e-14 -1.474925e-01 -2.063177e-01 -3.649584e-01 -5.672419e-01 -6.135299e-01 -6.090677e-01 -5.764997e-01 -5.142944e-01 -4.605163e-01 -4.092057e-01 -3.665154e-01 -3.161391e-01 -2.628831e-01 -1.879195e-01 -1.010732e-01 
-3.372529e-15 7.536318e-02 1.399233e-01 1.934001e-01 2.269606e-01 2.503585e-01 2.577599e-01 2.575937e-01 2.453115e-01 2.259088e-01 1.904530e-01 1.450277e-01 9.997684e-02 1.032607e-01 1.022010e-01 1.333160e-02 1.199766e-14 -1.333160e-02 -1.022010e-01 -1.032607e-01 -9.997684e-02 -1.450277e-01 -1.904530e-01 -2.259088e-01 -2.453115e-01 -2.575937e-01 -2.577599e-01 -2.503585e-01 -2.269606e-01 -1.934001e-01 -1.399233e-01 -7.536318e-02 
-9.734232e-16 6.107140e-02 1.125227e-01 1.521010e-01 1.694749e-01 1.684390e-01 1.391512e-01 8.560055e-02 1.929086e-03 -1.034645e-01 -2.270671e-01 -3.556758e-01 -4.600585e-01 -5.388988e-01 -4.796245e-01 -2.805115e-01 4.251176e-14 2.805115e-01 4.796245e-01 5.388988e-01 4.600585e-01 3.556758e-01 2.270671e-01 1.034645e-01 -1.929086e-03 -8.560055e-02 -1.391512e-01 -1.684390e-01 -1.694749e-01 -1.521010e-01 -1.125227e-01 -6.107140e-02 
-5.156636e-15 4.757040e-02 8.614447e-02 1.117230e-01 1.136051e-01 9.088099e-02 3.254892e-02 -6.088710e-02 -1.929774e-01 -3.512249e-01 -5.229991e-01 -6.771915e-01 -7.797520e-01 -7.830538e-01 -6.405882e-01 -3.819930e-01 5.972156e-14 3.819930e-01 6.405882e-01 7.830538e-01 7.797520e-01 6.771915e-01 5.229991e-01 3.512249e-01 1.929774e-01 6.088710e-02 -3.254892e-02 -9.088099e-02 -1.136051e-01 -1.117230e-01 -8.614447e-02 -4.757040e-02 
