# vtk DataFile Version 2.0
Comment goes here
ASCII

DATASET STRUCTURED_POINTS
FIELD FieldData 1
TIME 1 1 double
1.10000000
DIMENSIONS    32   32   1

ORIGIN    0.000   0.000   0.000
SPACING   0.03125 0.03125   1.000

POINT_DATA   1024
SCALARS uX double
LOOKUP_TABLE default

-3.106781e-14 3.904386e-03 -7.431634e-03 -5.148392e-02 -1.313494e-01 -2.579092e-01 -4.217078e-01 -6.174593e-01 -8.276122e-01 -1.023458e+00 -1.194184e+00 -1.292672e+00 -1.323089e+00 -1.224751e+00 -9.918822e-01 -5.655548e-01 1.672213e-13 5.655548e-01 9.918822e-01 1.224751e+00 1.323089e+00 1.292672e+00 1.194184e+00 1.023458e+00 8.276122e-01 6.174593e-01 4.217078e-01 2.579092e-01 1.313494e-01 5.148392e-02 7.431634e-03 -3.904386e-03 
-3.220181e-14 1.183506e-02 8.625455e-03 -2.672099e-02 -9.624884e-02 -2.105039e-01 -3.591212e-01 -5.383976e-01 -7.305176e-01 -9.114046e-01 -1.069461e+00 -1.165073e+00 -1.200927e+00 -1.119473e+00 -9.249375e-01 -5.231834e-01 6.249948e-14 5.231834e-01 9.249375e-01 1.119473e+00 1.200927e+00 1.165073e+00 1.069461e+00 9.114046e-01 7.305176e-01 5.383976e-01 3.591212e-01 2.105039e-01 9.624884e-02 2.672099e-02 -8.625455e-03 -1.183506e-02 
-3.076771e-14 3.300207e-02 5.076018e-02 3.553494e-02 -1.123331e-02 -1.010916e-01 -2.194388e-01 -3.666259e-01 -5.238683e-01 -6.698996e-01 -7.999170e-01 -8.693689e-01 -8.993036e-01 -8.338392e-01 -6.775536e-01 -3.774944e-01 -1.068806e-14 3.774944e-01 6.775536e-01 8.338392e-01 8.993036e-01 8.693689e-01 7.999170e-01 6.698996e-01 5.238683e-01 3.666259e-01 2.194388e-01 1.010916e-01 1.123331e-02 -3.553494e-02 -5.076018e-02 -3.300207e-02 
-2.674806e-14 6.474443e-02 1.136218e-01 1.281577e-01 1.143039e-01 6.034783e-02 -1.306690e-02 -1.113281e-01 -2.137053e-01 -3.077893e-01 -3.914270e-01 -4.344483e-01 -4.573495e-01 -4.429280e-01 -4.095651e-01 -2.129608e-01 -3.087464e-14 2.129608e-01 4.095651e-01 4.429280e-01 4.573495e-01 4.344483e-01 3.914270e-01 3.077893e-01 2.137053e-01 1.113281e-01 1.306690e-02 -6.034783e-02 -1.143039e-01 -1.281577e-01 -1.136218e-01 -6.474443e-02 
-2.064282e-14 1.031606e-01 1.887792e-01 2.352896e-01 2.543957e-01 2.305392e-01 1.960338e-01 1.338327e-01 7.401827e-02 1.655534e-02 -4.337055e-02 -5.321783e-02 -8.256875e-02 -5.773639e-02 -1.013341e-02 3.868868e-02 5.256283e-14 -3.868868e-02 1.013341e-02 5.773639e-02 8.256875e-02 5.321783e-02 4.337055e-02 -1.655534e-02 -7.401827e-02 -1.338327e-01 -1.960338e-01 -2.305392e-01 -2.543957e-01 -2.352896e-01 -1.887792e-01 -1.031606e-01 
-9.971792e-15 1.399201e-01 2.604677e-01 3.364893e-01 3.848833e-01 3.867591e-01 3.864870e-01 3.596887e-01 3.442345e-01 3.337147e-01 3.105354e-01 3.291886e-01 3.687840e-01 3.221703e-01 1.610877e-01 1.739954e-01 1.507390e-13 -1.739954e-01 -1.610877e-01 -3.221703e-01 -3.687840e-01 -3.291886e-01 -3.105354e-01 -3.337147e-01 -3.442345e-01 -3.596887e-01 -3.864870e-01 -3.867591e-01 -3.848833e-01 -3.364893e-01 -2.604677e-01 -1.399201e-01 
4.572123e-15 1.739919e-01 3.269489e-01 4.292223e-01 5.029213e-01 5.197741e-01 5.430839e-01 5.215383e-01 5.298899e-01 5.121856e-01 4.812155e-01 5.483240e-01 5.082479e-01 7.472848e-01 1.039526e+00 7.742862e-01 3.701396e-13 -7.742862e-01 -1.039526e+00 -7.472848e-01 -5.082479e-01 -5.483240e-01 -4.812155e-01 -5.121856e-01 -5.298899e-01 -5.215383e-01 -5.430839e-01 -5.197741e-01 -5.029213e-01 -4.292223e-01 -3.269489e-01 -1.739919e-01 
2.104830e-14 1.909498e-01 3.604065e-01 4.746149e-01 5.613035e-01 5.827968e-01 6.208042e-01 6.048600e-01 6.430425e-01 6.753179e-01 6.442812e-01 1.042008e+00 1.407209e+00 2.047725e+00 1.744068e+00 6.679303e-01 2.138506e-13 -6.679303e-01 -1.744068e+00 -2.047725e+00 -1.407209e+00 -1.042008e+00 -6.442812e-01 -6.753179e-01 -6.430425e-01 -6.048600e-01 -6.208042e-01 -5.827968e-01 -5.613035e-01 -4.746149e-01 -3.604065e-01 -1.909498e-01 
4.789853e-14 1.975483e-01 3.737709e-01 4.965710e-01 5.940574e-01 6.236375e-01 6.813989e-01 6.509019e-01 7.283092e-01 6.722102e-01 8.234283e-01 1.413048e+00 1.430433e+00 7.603878e-01 -5.243305e-01 -6.626937e-01 -3.595841e-13 6.626937e-01 5.243305e-01 -7.603878e-01 -1.430433e+00 -1.413048e+00 -8.234283e-01 -6.722102e-01 -7.283092e-01 -6.509019e-01 -6.813989e-01 -6.236375e-01 -5.940574e-01 -4.965710e-01 -3.737709e-01 -1.975483e-01 
6.422234e-14 1.752070e-01 3.311564e-01 4.372191e-01 5.225736e-01 5.349767e-01 5.891141e-01 5.118176e-01 6.714847e-01 5.768815e-01 5.484061e-01 4.150186e-01 -3.096154e-01 -1.080707e+00 -8.135021e-01 -8.331891e-02 -1.844225e-13 8.331891e-02 8.135021e-01 1.080707e+00 3.096154e-01 -4.150186e-01 -5.484061e-01 -5.768815e-01 -6.714847e-01 -5.118176e-01 -5.891141e-01 -5.349767e-01 -5.225736e-01 -4.372191e-01 -3.311564e-01 -1.752070e-01 
1.083772e-13 1.382165e-01 2.608834e-01 3.568366e-01 4.324251e-01 4.712007e-01 5.416576e-01 5.017683e-01 7.470781e-01 1.204611e-01 -2.975929e-02 -1.508533e-01 -1.938238e-01 2.842031e-01 7.518212e-01 6.865835e-01 4.808733e-14 -6.865835e-01 -7.518212e-01 -2.842031e-01 1.938238e-01 1.508533e-01 2.975929e-02 -1.204611e-01 -7.470781e-01 -5.017683e-01 -5.416576e-01 -4.712007e-01 -4.324251e-01 -3.568366e-01 -2.608834e-01 -1.382165e-01 
1.145612e-13 6.543860e-02 1.248620e-01 1.846230e-01 2.263569e-01 2.475996e-01 2.269817e-01 6.612884e-02 8.819988e-02 -7.951473e-01 3.492430e-02 1.757848e-01 5.837118e-02 3.651817e-01 2.870245e-01 1.035340e-01 2.290966e-13 -1.035340e-01 -2.870245e-01 -3.651817e-01 -5.837118e-02 -1.757848e-01 -3.492430e-02 7.951473e-01 -8.819988e-02 -6.612884e-02 -2.269817e-01 -2.475996e-01 -2.263569e-01 -1.846230e-01 -1.248620e-01 -6.543860e-02 
1.607313e-13 -3.191205e-02 -5.460774e-02 -2.573829e-02 -1.331589e-02 7.553895e-02 -5.118063e-02 7.221074e-02 -5.547638e-01 -4.761646e-01 5.290980e-01 -1.733723e-01 -2.149378e-01 -2.176068e-01 -6.325666e-02 -9.577433e-02 2.702259e-13 9.577433e-02 6.325666e-02 2.176068e-01 2.149378e-01 1.733723e-01 -5.290980e-01 4.761646e-01 5.547638e-01 -7.221074e-02 5.118063e-02 -7.553895e-02 1.331589e-02 2.573829e-02 5.460774e-02 3.191205e-02 
1.314577e-13 -1.621553e-01 -2.923305e-01 -3.108995e-01 -3.123603e-01 -1.254989e-01 -2.165789e-01 1.838099e-01 -8.741266e-01 1.249699e-01 2.252310e-01 -4.676651e-01 4.506333e-02 -1.409293e-01 -6.308797e-02 -1.034783e-01 1.468714e-13 1.034783e-01 6.308797e-02 1.409293e-01 -4.506333e-02 4.676651e-01 -2.252310e-01 -1.249699e-01 8.741266e-01 -1.838099e-01 2.165789e-01 1.254989e-01 3.123603e-01 3.108995e-01 2.923305e-01 1.621553e-01 
1.365420e-13 -3.256109e-01 -5.936523e-01 -7.405448e-01 -7.985071e-01 -7.306169e-01 -6.856016e-01 -5.651152e-01 -6.932325e-01 3.576727e-01 -1.608963e-01 -2.525886e-01 9.932942e-03 -1.417512e-01 -5.125855e-02 -8.067284e-02 8.853396e-14 8.067284e-02 5.125855e-02 1.417512e-01 -9.932942e-03 2.525886e-01 1.608963e-01 -3.576727e-01 6.932325e-01 5.651152e-01 6.856016e-01 7.306169e-01 7.985071e-01 7.405448e-01 5.936523e-01 3.256109e-01 
6.859894e-14 -4.859397e-01 -9.068094e-01 -1.223484e+00 -1.400812e+00 -1.476477e+00 -1.234620e+00 -1.076579e+00 7.138791e-02 3.034573e-01 -3.024905e-01 1.051859e-01 8.846400e-02 4.896049e-02 1.891199e-02 -2.251831e-02 -2.073024e-14 2.251831e-02 -1.891199e-02 -4.896049e-02 -8.846400e-02 -1.051859e-01 3.024905e-01 -3.034573e-01 -7.138791e-02 1.076579e+00 1.234620e+00 1.476477e+00 1.400812e+00 1.223484e+00 9.068094e-01 4.859397e-01 
-2.708228e-14 -5.806972e-01 -1.098334e+00 -1.522859e+00 -1.790137e+00 -1.920055e+00 -1.590198e+00 -1.279562e+00 2.127506e-01 -4.258278e-02 -4.054136e-01 3.687299e-01 2.071303e-01 1.428672e-01 6.225252e-02 -2.913798e-04 -1.124141e-13 2.913798e-04 -6.225252e-02 -1.428672e-01 -2.071303e-01 -3.687299e-01 4.054136e-01 4.258278e-02 -2.127506e-01 1.279562e+00 1.590198e+00 1.920055e+00 1.790137e+00 1.522859e+00 1.098334e+00 5.806972e-01 
-1.206009e-13 -4.859397e-01 -9.068094e-01 -1.223484e+00 -1.400812e+00 -1.476477e+00 -1.234620e+00 -1.076579e+00 7.138791e-02 3.034573e-01 -3.024905e-01 1.051859e-01 8.846400e-02 4.896049e-02 1.891199e-02 -2.251831e-02 -1.994804e-13 2.251831e-02 -1.891199e-02 -4.896049e-02 -8.846400e-02 -1.051859e-01 3.024905e-01 -3.034573e-01 -7.138791e-02 1.076579e+00 1.234620e+00 1.476477e+00 1.400812e+00 1.223484e+00 9.068094e-01 4.859397e-01 
-1.952465e-13 -3.256109e-01 -5.936523e-01 -7.405448e-01 -7.985071e-01 -7.306169e-01 -6.856016e-01 -5.651152e-01 -6.932325e-01 3.576727e-01 -1.608963e-01 -2.525886e-01 9.932942e-03 -1.417512e-01 -5.125855e-02 -8.067284e-02 -3.707418e-13 8.067284e-02 5.125855e-02 1.417512e-01 -9.932942e-03 2.525886e-01 1.608963e-01 -3.576727e-01 6.932325e-01 5.651152e-01 6.856016e-01 7.306169e-01 7.985071e-01 7.405448e-01 5.936523e-01 3.256109e-01 
-1.895547e-13 -1.621553e-01 -2.923305e-01 -3.108995e-01 -3.123603e-01 -1.254989e-01 -2.165789e-01 1.838099e-01 -8.741266e-01 1.249699e-01 2.252310e-01 -4.676651e-01 4.506333e-02 -1.409293e-01 -6.308797e-02 -1.034783e-01 -4.345338e-13 1.034783e-01 6.308797e-02 1.409293e-01 -4.506333e-02 4.676651e-01 -2.252310e-01 -1.249699e-01 8.741266e-01 -1.838099e-01 2.165789e-01 1.254989e-01 3.123603e-01 3.108995e-01 2.923305e-01 1.621553e-01 
-2.210955e-13 -3.191205e-02 -5.460774e-02 -2.573829e-02 -1.331589e-02 7.553895e-02 -5.118063e-02 7.221074e-02 -5.547638e-01 -4.761646e-01 5.290980e-01 -1.733723e-01 -2.149378e-01 -2.176068e-01 -6.325666e-02 -9.577433e-02 -6.283636e-13 9.577433e-02 6.325666e-02 2.176068e-01 2.149378e-01 1.733723e-01 -5.290980e-01 4.761646e-01 5.547638e-01 -7.221074e-02 5.118063e-02 -7.553895e-02 1.331589e-02 2.573829e-02 5.460774e-02 3.191205e-02 
-1.659973e-13 6.543860e-02 1.248620e-01 1.846230e-01 2.263569e-01 2.475996e-01 2.269817e-01 6.612884e-02 8.819988e-02 -7.951473e-01 3.492430e-02 1.757848e-01 5.837118e-02 3.651817e-01 2.870245e-01 1.035340e-01 -2.360187e-13 -1.035340e-01 -2.870245e-01 -3.651817e-01 -5.837118e-02 -1.757848e-01 -3.492430e-02 7.951473e-01 -8.819988e-02 -6.612884e-02 -2.269817e-01 -2.475996e-01 -2.263569e-01 -1.846230e-01 -1.248620e-01 -6.543860e-02 
-1.572418e-13 1.382165e-01 2.608834e-01 3.568366e-01 4.324251e-01 4.712007e-01 5.416576e-01 5.017683e-01 7.470781e-01 1.204611e-01 -2.975929e-02 -1.508533e-01 -1.938238e-01 2.842031e-01 7.518212e-01 6.865835e-01 7.694680e-13 -6.865835e-01 -7.518212e-01 -2.842031e-01 1.938238e-01 1.508533e-01 2.975929e-02 -1.204611e-01 -7.470781e-01 -5.017683e-01 -5.416576e-01 -4.712007e-01 -4.324251e-01 -3.568366e-01 -2.608834e-01 -1.382165e-01 
-1.059872e-13 1.752070e-01 3.311564e-01 4.372191e-01 5.225736e-01 5.349767e-01 5.891141e-01 5.118176e-01 6.714847e-01 5.768815e-01 5.484061e-01 4.150186e-01 -3.096154e-01 -1.080707e+00 -8.135021e-01 -8.331891e-02 1.144563e-12 8.331891e-02 8.135021e-01 1.080707e+00 3.096154e-01 -4.150186e-01 -5.484061e-01 -5.768815e-01 -6.714847e-01 -5.118176e-01 -5.891141e-01 -5.349767e-01 -5.225736e-01 -4.372191e-01 -3.311564e-01 -1.752070e-01 
-8.762339e-14 1.975483e-01 3.737709e-01 4.965710e-01 5.940574e-01 6.236375e-01 6.813989e-01 6.509019e-01 7.283092e-01 6.722102e-01 8.234283e-01 1.413048e+00 1.430433e+00 7.603878e-01 -5.243305e-01 -6.626937e-01 7.124037e-13 6.626937e-01 5.243305e-01 -7.603878e-01 -1.430433e+00 -1.413048e+00 -8.234283e-01 -6.722102e-01 -7.283092e-01 -6.509019e-01 -6.813989e-01 -6.236375e-01 -5.940574e-01 -4.965710e-01 -3.737709e-01 -1.975483e-01 
-6.036712e-14 1.909498e-01 3.604065e-01 4.746149e-01 5.613035e-01 5.827968e-01 6.208042e-01 6.048600e-01 6.430425e-01 6.753179e-01 6.442812e-01 1.042008e+00 1.407209e+00 2.047725e+00 1.744068e+00 6.679303e-01 -1.031646e-12 -6.679303e-01 -1.744068e+00 -2.047725e+00 -1.407209e+00 -1.042008e+00 -6.442812e-01 -6.753179e-01 -6.430425e-01 -6.048600e-01 -6.208042e-01 -5.827968e-01 -5.613035e-01 -4.746149e-01 -3.604065e-01 -1.909498e-01 
-4.421932e-14 1.739919e-01 3.269489e-01 4.292223e-01 5.029213e-01 5.197741e-01 5.430839e-01 5.215383e-01 5.298899e-01 5.121856e-01 4.812155e-01 5.483240e-01 5.082479e-01 7.472848e-01 1.039526e+00 7.742862e-01 -1.450045e-12 -7.742862e-01 -1.039526e+00 -7.472848e-01 -5.082479e-01 -5.483240e-01 -4.812155e-01 -5.121856e-01 -5.298899e-01 -5.215383e-01 -5.430839e-01 -5.197741e-01 -5.029213e-01 -4.292223e-01 -3.269489e-01 -1.739919e-01 
-3.636134e-14 1.399201e-01 2.604677e-01 3.364893e-01 3.848833e-01 3.867591e-01 3.864870e-01 3.596887e-01 3.442345e-01 3.337147e-01 3.105354e-01 3.291886e-01 3.687840e-01 3.221703e-01 1.610877e-01 1.739954e-01 -6.905927e-13 -1.739954e-01 -1.610877e-01 -3.221703e-01 -3.687840e-01 -3.291886e-01 -3.105354e-01 -3.337147e-01 -3.442345e-01 -3.596887e-01 -3.864870e-01 -3.867591e-01 -3.848833e-01 -3.364893e-01 -2.604677e-01 -1.399201e-01 
-2.749440e-14 1.031606e-01 1.887792e-01 2.352896e-01 2.543957e-01 2.305392e-01 1.960338e-01 1.338327e-01 7.401827e-02 1.655534e-02 -4.337055e-02 -5.321783e-02 -8.256875e-02 -5.773639e-02 -1.013341e-02 3.868868e-02 -2.690324e-13 -3.868868e-02 1.013341e-02 5.773639e-02 8.256875e-02 5.321783e-02 4.337055e-02 -1.655534e-02 -7.401827e-02 -1.338327e-01 -1.960338e-01 -2.305392e-01 -2.543957e-01 -2.352896e-01 -1.887792e-01 -1.031606e-01 
-3.050200e-14 6.474443e-02 1.136218e-01 1.281577e-01 1.143039e-01 6.034783e-02 -1.306690e-02 -1.113281e-01 -2.137053e-01 -3.077893e-01 -3.914270e-01 -4.344483e-01 -4.573495e-01 -4.429280e-01 -4.095651e-01 -2.129608e-01 1.805087e-13 2.129608e-01 4.095651e-01 4.429280e-01 4.573495e-01 4.344483e-01 3.914270e-01 3.077893e-01 2.137053e-01 1.113281e-01 1.306690e-02 -6.034783e-02 -1.143039e-01 -1.281577e-01 -1.136218e-01 -6.474443e-02 
-2.737255e-14 3.300207e-02 5.076018e-02 3.553494e-02 -1.123331e-02 -1.010916e-01 -2.194388e-01 -3.666259e-01 -5.238683e-01 -6.698996e-01 -7.999170e-01 -8.693689e-01 -8.993036e-01 -8.338392e-01 -6.775536e-01 -3.774944e-01 3.104935e-13 3.774944e-01 6.775536e-01 8.338392e-01 8.993036e-01 8.693689e-01 7.999170e-01 6.698996e-01 5.238683e-01 3.666259e-01 2.194388e-01 1.010916e-01 1.123331e-02 -3.553494e-02 -5.076018e-02 -3.300207e-02 
-3.255753e-14 1.183506e-02 8.625455e-03 -2.672099e-02 -9.624884e-02 -2.105039e-01 -3.591212e-01 -5.383976e-01 -7.305176e-01 -9.114046e-01 -1.069461e+00 -1.165073e+00 -1.200927e+00 -1.119473e+00 -9.249375e-01 -5.231834e-01 2.892090e-13 5.231834e-01 9.249375e-01 1.119473e+00 1.200927e+00 1.165073e+00 1.069461e+00 9.114046e-01 7.305176e-01 5.383976e-01 3.591212e-01 2.105039e-01 9.624884e-02 2.672099e-02 -8.625455e-03 -1.183506e-02 
