# vtk DataFile Version 2.0
Comment goes here
ASCII

DATASET STRUCTURED_POINTS
FIELD FieldData 1
TIME 1 1 double
0.68000000
DIMENSIONS    32   32   1

ORIGIN    0.000   0.000   0.000
SPACING   0.03125 0.03125   1.000

POINT_DATA   1024
SCALARS uX double
LOOKUP_TABLE default

1.449483e-15 7.739027e-02 1.432595e-01 1.975711e-01 2.195245e-01 2.193104e-01 1.661432e-01 8.116808e-02 -7.136433e-02 -2.443645e-01 -4.701274e-01 -6.603547e-01 -8.356683e-01 -8.714160e-01 -7.775846e-01 -4.729170e-01 3.885393e-14 4.729170e-01 7.775846e-01 8.714160e-01 8.356683e-01 6.603547e-01 4.701274e-01 2.443645e-01 7.136433e-02 -8.116808e-02 -1.661432e-01 -2.193104e-01 -2.195245e-01 -1.975711e-01 -1.432595e-01 -7.739027e-02 
-3.931331e-15 7.916515e-02 1.465891e-01 2.033442e-01 2.280368e-01 2.342036e-01 1.889015e-01 1.189310e-01 -1.909208e-02 -1.702068e-01 -3.829607e-01 -5.600368e-01 -7.376456e-01 -7.898192e-01 -6.953363e-01 -4.254619e-01 3.748986e-14 4.254619e-01 6.953363e-01 7.898192e-01 7.376456e-01 5.600368e-01 3.829607e-01 1.702068e-01 1.909208e-02 -1.189310e-01 -1.889015e-01 -2.342036e-01 -2.280368e-01 -2.033442e-01 -1.465891e-01 -7.916515e-02 
-1.265835e-16 9.327990e-02 1.747127e-01 2.458245e-01 2.884630e-01 3.173502e-01 3.071175e-01 2.810568e-01 2.049212e-01 1.183293e-01 -2.414741e-02 -1.505250e-01 -3.164723e-01 -4.099545e-01 -4.658167e-01 -3.336477e-01 3.029741e-14 3.336477e-01 4.658167e-01 4.099545e-01 3.164723e-01 1.505250e-01 2.414741e-02 -1.183293e-01 -2.049212e-01 -2.810568e-01 -3.071175e-01 -3.173502e-01 -2.884630e-01 -2.458245e-01 -1.747127e-01 -9.327990e-02 
-6.425291e-15 1.096859e-01 2.062510e-01 2.926160e-01 3.525402e-01 4.061021e-01 4.313621e-01 4.566269e-01 4.429956e-01 4.323916e-01 3.431651e-01 2.609465e-01 5.715961e-02 -9.030321e-02 -1.650017e-01 -1.503393e-01 2.852198e-14 1.503393e-01 1.650017e-01 9.030321e-02 -5.715961e-02 -2.609465e-01 -3.431651e-01 -4.323916e-01 -4.429956e-01 -4.566269e-01 -4.313621e-01 -4.061021e-01 -3.525402e-01 -2.926160e-01 -2.062510e-01 -1.096859e-01 
-4.255621e-15 1.359290e-01 2.556053e-01 3.628893e-01 4.433471e-01 5.221885e-01 5.853625e-01 6.595098e-01 7.225731e-01 7.945447e-01 8.137631e-01 8.258123e-01 7.326319e-01 5.654763e-01 1.246916e-01 -4.643787e-02 1.809947e-14 4.643787e-02 -1.246916e-01 -5.654763e-01 -7.326319e-01 -8.258123e-01 -8.137631e-01 -7.945447e-01 -7.225731e-01 -6.595098e-01 -5.853625e-01 -5.221885e-01 -4.433471e-01 -3.628893e-01 -2.556053e-01 -1.359290e-01 
-1.147560e-14 1.612852e-01 3.017210e-01 4.248937e-01 5.190464e-01 6.145915e-01 7.077270e-01 8.236696e-01 9.574025e-01 1.117093e+00 1.208488e+00 1.291433e+00 9.991010e-01 9.198982e-01 1.100191e+00 1.010626e+00 2.035471e-14 -1.010626e+00 -1.100191e+00 -9.198982e-01 -9.991010e-01 -1.291433e+00 -1.208488e+00 -1.117093e+00 -9.574025e-01 -8.236696e-01 -7.077270e-01 -6.145915e-01 -5.190464e-01 -4.248937e-01 -3.017210e-01 -1.612852e-01 
-8.713553e-15 1.912041e-01 3.543674e-01 4.943521e-01 5.951561e-01 7.004269e-01 8.060187e-01 9.433228e-01 1.133158e+00 1.337046e+00 1.539976e+00 1.713499e+00 2.119755e+00 2.944283e+00 2.863476e+00 1.733898e+00 -3.965059e-15 -1.733898e+00 -2.863476e+00 -2.944283e+00 -2.119755e+00 -1.713499e+00 -1.539976e+00 -1.337046e+00 -1.133158e+00 -9.433228e-01 -8.060187e-01 -7.004269e-01 -5.951561e-01 -4.943521e-01 -3.543674e-01 -1.912041e-01 
-1.437467e-14 2.096396e-01 3.854822e-01 5.299797e-01 6.269018e-01 7.281705e-01 8.445693e-01 9.996221e-01 1.314981e+00 1.565420e+00 2.046524e+00 2.515319e+00 2.809727e+00 2.252233e+00 9.715433e-01 1.274721e-01 4.147434e-14 -1.274721e-01 -9.715433e-01 -2.252233e+00 -2.809727e+00 -2.515319e+00 -2.046524e+00 -1.565420e+00 -1.314981e+00 -9.996221e-01 -8.445693e-01 -7.281705e-01 -6.269018e-01 -5.299797e-01 -3.854822e-01 -2.096396e-01 
-4.716399e-15 2.197282e-01 4.012486e-01 5.481994e-01 6.300935e-01 7.262569e-01 8.171181e-01 9.825961e-01 1.323082e+00 1.276492e+00 1.357499e+00 1.049775e+00 8.605801e-02 -1.096703e+00 -1.065703e+00 -4.319216e-01 3.292236e-14 4.319216e-01 1.065703e+00 1.096703e+00 -8.605801e-02 -1.049775e+00 -1.357499e+00 -1.276492e+00 -1.323082e+00 -9.825961e-01 -8.171181e-01 -7.262569e-01 -6.300935e-01 -5.481994e-01 -4.012486e-01 -2.197282e-01 
-1.690570e-15 1.992311e-01 3.613821e-01 4.849601e-01 5.289044e-01 5.935184e-01 6.146008e-01 7.985079e-01 8.958602e-01 3.146552e-01 -7.611926e-02 -7.979610e-01 -1.173140e+00 -5.932336e-01 -4.575410e-02 1.448464e-01 -3.390836e-14 -1.448464e-01 4.575410e-02 5.932336e-01 1.173140e+00 7.979610e-01 7.611926e-02 -3.146552e-01 -8.958602e-01 -7.985079e-01 -6.146008e-01 -5.935184e-01 -5.289044e-01 -4.849601e-01 -3.613821e-01 -1.992311e-01 
1.803422e-14 1.582307e-01 2.881129e-01 3.833861e-01 3.945783e-01 4.563128e-01 3.945442e-01 6.822301e-01 -2.775351e-02 -5.218166e-01 -4.989958e-01 -9.182022e-01 -6.558947e-01 -2.269083e-01 -7.877771e-02 -7.843930e-02 -3.176593e-14 7.843930e-02 7.877771e-02 2.269083e-01 6.558947e-01 9.182022e-01 4.989958e-01 5.218166e-01 2.775351e-02 -6.822301e-01 -3.945442e-01 -4.563128e-01 -3.945783e-01 -3.833861e-01 -2.881129e-01 -1.582307e-01 
2.837389e-14 7.740853e-02 1.403576e-01 1.649792e-01 1.180051e-01 7.138088e-02 -1.285903e-01 -1.795089e-01 -1.355268e+00 -8.900310e-01 -7.692792e-01 -1.424959e+00 -7.194898e-01 -6.787140e-01 -3.565801e-01 -2.347461e-01 -3.000232e-14 2.347461e-01 3.565801e-01 6.787140e-01 7.194898e-01 1.424959e+00 7.692792e-01 8.900310e-01 1.355268e+00 1.795089e-01 1.285903e-01 -7.138088e-02 -1.180051e-01 -1.649792e-01 -1.403576e-01 -7.740853e-02 
4.314470e-14 -3.417797e-02 -5.586747e-02 -1.232444e-01 -1.817774e-01 -3.737698e-01 -5.089153e-01 -1.102897e+00 -1.506469e+00 -5.433407e-01 -1.090272e+00 -1.372941e+00 -6.426654e-01 -6.943108e-01 -4.364061e-01 -3.013960e-01 -1.514351e-14 3.013960e-01 4.364061e-01 6.943108e-01 6.426654e-01 1.372941e+00 1.090272e+00 5.433407e-01 1.506469e+00 1.102897e+00 5.089153e-01 3.737698e-01 1.817774e-01 1.232444e-01 5.586747e-02 3.417797e-02 
4.533830e-14 -1.873656e-01 -3.384779e-01 -5.023033e-01 -6.017254e-01 -8.626218e-01 -9.650186e-01 -1.587549e+00 -1.185776e+00 -7.877574e-01 -1.361235e+00 -9.834921e-01 -7.495689e-01 -7.002316e-01 -4.921973e-01 -3.057031e-01 -4.459269e-15 3.057031e-01 4.921973e-01 7.002316e-01 7.495689e-01 9.834921e-01 1.361235e+00 7.877574e-01 1.185776e+00 1.587549e+00 9.650186e-01 8.626218e-01 6.017254e-01 5.023033e-01 3.384779e-01 1.873656e-01 
3.849184e-14 -4.039749e-01 -7.565321e-01 -1.062188e+00 -1.260685e+00 -1.483431e+00 -1.570904e+00 -1.713885e+00 -1.117101e+00 -1.421497e+00 -1.379536e+00 -6.768799e-01 -6.947068e-01 -5.174198e-01 -4.140021e-01 -2.352618e-01 -9.665427e-15 2.352618e-01 4.140021e-01 5.174198e-01 6.947068e-01 6.768799e-01 1.379536e+00 1.421497e+00 1.117101e+00 1.713885e+00 1.570904e+00 1.483431e+00 1.260685e+00 1.062188e+00 7.565321e-01 4.039749e-01 
2.432475e-14 -6.490499e-01 -1.203305e+00 -1.598470e+00 -1.771709e+00 -1.785345e+00 -1.693552e+00 -1.430300e+00 -1.051103e+00 -1.581565e+00 -1.008583e+00 -3.012498e-01 -4.861437e-01 -3.198297e-01 -3.168653e-01 -1.666939e-01 2.296565e-15 1.666939e-01 3.168653e-01 3.198297e-01 4.861437e-01 3.012498e-01 1.008583e+00 1.581565e+00 1.051103e+00 1.430300e+00 1.693552e+00 1.785345e+00 1.771709e+00 1.598470e+00 1.203305e+00 6.490499e-01 
-4.017520e-14 -7.978282e-01 -1.466554e+00 -1.896008e+00 -2.037875e+00 -1.949979e+00 -1.826826e+00 -1.545034e+00 -1.393457e+00 -1.835152e+00 -9.664482e-01 -2.807222e-01 -4.217422e-01 -2.575106e-01 -2.773397e-01 -1.406710e-01 -8.059092e-15 1.406710e-01 2.773397e-01 2.575106e-01 4.217422e-01 2.807222e-01 9.664482e-01 1.835152e+00 1.393457e+00 1.545034e+00 1.826826e+00 1.949979e+00 2.037875e+00 1.896008e+00 1.466554e+00 7.978282e-01 
-4.820351e-14 -6.490499e-01 -1.203305e+00 -1.598470e+00 -1.771709e+00 -1.785345e+00 -1.693552e+00 -1.430300e+00 -1.051103e+00 -1.581565e+00 -1.008583e+00 -3.012498e-01 -4.861437e-01 -3.198297e-01 -3.168653e-01 -1.666939e-01 -3.946494e-15 1.666939e-01 3.168653e-01 3.198297e-01 4.861437e-01 3.012498e-01 1.008583e+00 1.581565e+00 1.051103e+00 1.430300e+00 1.693552e+00 1.785345e+00 1.771709e+00 1.598470e+00 1.203305e+00 6.490499e-01 
-6.098449e-14 -4.039749e-01 -7.565321e-01 -1.062188e+00 -1.260685e+00 -1.483431e+00 -1.570904e+00 -1.713885e+00 -1.117101e+00 -1.421497e+00 -1.379536e+00 -6.768799e-01 -6.947068e-01 -5.174198e-01 -4.140021e-01 -2.352618e-01 -1.223910e-14 2.352618e-01 4.140021e-01 5.174198e-01 6.947068e-01 6.768799e-01 1.379536e+00 1.421497e+00 1.117101e+00 1.713885e+00 1.570904e+00 1.483431e+00 1.260685e+00 1.062188e+00 7.565321e-01 4.039749e-01 
-4.218678e-14 -1.873656e-01 -3.384779e-01 -5.023033e-01 -6.017254e-01 -8.626218e-01 -9.650186e-01 -1.587549e+00 -1.185776e+00 -7.877574e-01 -1.361235e+00 -9.834921e-01 -7.495689e-01 -7.002316e-01 -4.921973e-01 -3.057031e-01 -2.099111e-14 3.057031e-01 4.921973e-01 7.002316e-01 7.495689e-01 9.834921e-01 1.361235e+00 7.877574e-01 1.185776e+00 1.587549e+00 9.650186e-01 8.626218e-01 6.017254e-01 5.023033e-01 3.384779e-01 1.873656e-01 
-3.627930e-14 -3.417797e-02 -5.586747e-02 -1.232444e-01 -1.817774e-01 -3.737698e-01 -5.089153e-01 -1.102897e+00 -1.506469e+00 -5.433407e-01 -1.090272e+00 -1.372941e+00 -6.426654e-01 -6.943108e-01 -4.364061e-01 -3.013960e-01 -4.582114e-14 3.013960e-01 4.364061e-01 6.943108e-01 6.426654e-01 1.372941e+00 1.090272e+00 5.433407e-01 1.506469e+00 1.102897e+00 5.089153e-01 3.737698e-01 1.817774e-01 1.232444e-01 5.586747e-02 3.417797e-02 
-1.539381e-14 7.740853e-02 1.403576e-01 1.649792e-01 1.180051e-01 7.138088e-02 -1.285903e-01 -1.795089e-01 -1.355268e+00 -8.900310e-01 -7.692792e-01 -1.424959e+00 -7.194898e-01 -6.787140e-01 -3.565801e-01 -2.347461e-01 -5.190525e-14 2.347461e-01 3.565801e-01 6.787140e-01 7.194898e-01 1.424959e+00 7.692792e-01 8.900310e-01 1.355268e+00 1.795089e-01 1.285903e-01 -7.138088e-02 -1.180051e-01 -1.649792e-01 -1.403576e-01 -7.740853e-02 
-2.480622e-15 1.582307e-01 2.881129e-01 3.833861e-01 3.945783e-01 4.563128e-01 3.945442e-01 6.822301e-01 -2.775351e-02 -5.218166e-01 -4.989958e-01 -9.182022e-01 -6.558947e-01 -2.269083e-01 -7.877771e-02 -7.843930e-02 -4.635395e-14 7.843930e-02 7.877771e-02 2.269083e-01 6.558947e-01 9.182022e-01 4.989958e-01 5.218166e-01 2.775351e-02 -6.822301e-01 -3.945442e-01 -4.563128e-01 -3.945783e-01 -3.833861e-01 -2.881129e-01 -1.582307e-01 
1.250704e-14 1.992311e-01 3.613821e-01 4.849601e-01 5.289044e-01 5.935184e-01 6.146008e-01 7.985079e-01 8.958602e-01 3.146552e-01 -7.611926e-02 -7.979610e-01 -1.173140e+00 -5.932336e-01 -4.575410e-02 1.448464e-01 -2.299880e-15 -1.448464e-01 4.575410e-02 5.932336e-01 1.173140e+00 7.979610e-01 7.611926e-02 -3.146552e-01 -8.958602e-01 -7.985079e-01 -6.146008e-01 -5.935184e-01 -5.289044e-01 -4.849601e-01 -3.613821e-01 -1.992311e-01 
1.979708e-14 2.197282e-01 4.012486e-01 5.481994e-01 6.300935e-01 7.262569e-01 8.171181e-01 9.825961e-01 1.323082e+00 1.276492e+00 1.357499e+00 1.049775e+00 8.605801e-02 -1.096703e+00 -1.065703e+00 -4.319216e-01 1.454817e-13 4.319216e-01 1.065703e+00 1.096703e+00 -8.605801e-02 -1.049775e+00 -1.357499e+00 -1.276492e+00 -1.323082e+00 -9.825961e-01 -8.171181e-01 -7.262569e-01 -6.300935e-01 -5.481994e-01 -4.012486e-01 -2.197282e-01 
1.886357e-14 2.096396e-01 3.854822e-01 5.299797e-01 6.269018e-01 7.281705e-01 8.445693e-01 9.996221e-01 1.314981e+00 1.565420e+00 2.046524e+00 2.515319e+00 2.809727e+00 2.252233e+00 9.715433e-01 1.274721e-01 1.018459e-13 -1.274721e-01 -9.715433e-01 -2.252233e+00 -2.809727e+00 -2.515319e+00 -2.046524e+00 -1.565420e+00 -1.314981e+00 -9.996221e-01 -8.445693e-01 -7.281705e-01 -6.269018e-01 -5.299797e-01 -3.854822e-01 -2.096396e-01 
1.826501e-14 1.912041e-01 3.543674e-01 4.943521e-01 5.951561e-01 7.004269e-01 8.060187e-01 9.433228e-01 1.133158e+00 1.337046e+00 1.539976e+00 1.713499e+00 2.119755e+00 2.944283e+00 2.863476e+00 1.733898e+00 -3.040311e-14 -1.733898e+00 -2.863476e+00 -2.944283e+00 -2.119755e+00 -1.713499e+00 -1.539976e+00 -1.337046e+00 -1.133158e+00 -9.433228e-01 -8.060187e-01 -7.004269e-01 -5.951561e-01 -4.943521e-01 -3.543674e-01 -1.912041e-01 
9.703391e-15 1.612852e-01 3.017210e-01 4.248937e-01 5.190464e-01 6.145915e-01 7.077270e-01 8.236696e-01 9.574025e-01 1.117093e+00 1.208488e+00 1.291433e+00 9.991010e-01 9.198982e-01 1.100191e+00 1.010626e+00 -1.316059e-13 -1.010626e+00 -1.100191e+00 -9.198982e-01 -9.991010e-01 -1.291433e+00 -1.208488e+00 -1.117093e+00 -9.574025e-01 -8.236696e-01 -7.077270e-01 -6.145915e-01 -5.190464e-01 -4.248937e-01 -3.017210e-01 -1.612852e-01 
9.273759e-15 1.359290e-01 2.556053e-01 3.628893e-01 4.433471e-01 5.221885e-01 5.853625e-01 6.595098e-01 7.225731e-01 7.945447e-01 8.137631e-01 8.258123e-01 7.326319e-01 5.654763e-01 1.246916e-01 -4.643787e-02 -9.415877e-14 4.643787e-02 -1.246916e-01 -5.654763e-01 -7.326319e-01 -8.258123e-01 -8.137631e-01 -7.945447e-01 -7.225731e-01 -6.595098e-01 -5.853625e-01 -5.221885e-01 -4.433471e-01 -3.628893e-01 -2.556053e-01 -1.359290e-01 
1.259607e-15 1.096859e-01 2.062510e-01 2.926160e-01 3.525402e-01 4.061021e-01 4.313621e-01 4.566269e-01 4.429956e-01 4.323916e-01 3.431651e-01 2.609465e-01 5.715961e-02 -9.030321e-02 -1.650017e-01 -1.503393e-01 -1.018104e-14 1.503393e-01 1.650017e-01 9.030321e-02 -5.715961e-02 -2.609465e-01 -3.431651e-01 -4.323916e-01 -4.429956e-01 -4.566269e-01 -4.313621e-01 -4.061021e-01 -3.525402e-01 -2.926160e-01 -2.062510e-01 -1.096859e-01 
3.240680e-15 9.327990e-02 1.747127e-01 2.458245e-01 2.884630e-01 3.173502e-01 3.071175e-01 2.810568e-01 2.049212e-01 1.183293e-01 -2.414741e-02 -1.505250e-01 -3.164723e-01 -4.099545e-01 -4.658167e-01 -3.336477e-01 2.588517e-14 3.336477e-01 4.658167e-01 4.099545e-01 3.164723e-01 1.505250e-01 2.414741e-02 -1.183293e-01 -2.049212e-01 -2.810568e-01 -3.071175e-01 -3.173502e-01 -2.884630e-01 -2.458245e-01 -1.747127e-01 -9.327990e-02 
-2.588809e-15 7.916515e-02 1.465891e-01 2.033442e-01 2.280368e-01 2.342036e-01 1.889015e-01 1.189310e-01 -1.909208e-02 -1.702068e-01 -3.829607e-01 -5.600368e-01 -7.376456e-01 -7.898192e-01 -6.953363e-01 -4.254619e-01 5.141639e-14 4.254619e-01 6.953363e-01 7.898192e-01 7.376456e-01 5.600368e-01 3.829607e-01 1.702068e-01 1.909208e-02 -1.189310e-01 -1.889015e-01 -2.342036e-01 -2.280368e-01 -2.033442e-01 -1.465891e-01 -7.916515e-02 
