# vtk DataFile Version 2.0
Comment goes here
ASCII

DATASET STRUCTURED_POINTS
FIELD FieldData 1
TIME 1 1 double
0.30000000
DIMENSIONS    32   32   1

ORIGIN    0.000   0.000   0.000
SPACING   0.03125 0.03125   1.000

POINT_DATA   1024
SCALARS uX double
LOOKUP_TABLE default

1.124698e-16 -1.087414e-01 -2.213013e-01 -3.394632e-01 -4.677026e-01 -6.048010e-01 -7.547307e-01 -9.133021e-01 -1.081639e+00 -1.253563e+00 -1.422066e+00 -1.572868e+00 -1.667282e+00 -1.643288e+00 -1.402233e+00 -8.568680e-01 -9.221364e-15 8.568680e-01 1.402233e+00 1.643288e+00 1.667282e+00 1.572868e+00 1.422066e+00 1.253563e+00 1.081639e+00 9.133021e-01 7.547307e-01 6.048010e-01 4.677026e-01 3.394632e-01 2.213013e-01 1.087414e-01 
-2.118314e-15 -1.081801e-01 -2.202721e-01 -3.379151e-01 -4.657129e-01 -6.023941e-01 -7.513363e-01 -9.090850e-01 -1.073471e+00 -1.240116e+00 -1.393969e+00 -1.524179e+00 -1.581506e+00 -1.519891e+00 -1.268303e+00 -7.431938e-01 -3.945496e-15 7.431938e-01 1.268303e+00 1.519891e+00 1.581506e+00 1.524179e+00 1.393969e+00 1.240116e+00 1.073471e+00 9.090850e-01 7.513363e-01 6.023941e-01 4.657129e-01 3.379151e-01 2.202721e-01 1.081801e-01 
1.216882e-15 -1.021341e-01 -2.088684e-01 -3.225895e-01 -4.484597e-01 -5.852175e-01 -7.375908e-01 -8.992318e-01 -1.070069e+00 -1.237632e+00 -1.387349e+00 -1.497061e+00 -1.517749e+00 -1.393436e+00 -1.069400e+00 -5.504247e-01 -7.890918e-16 5.504247e-01 1.069400e+00 1.393436e+00 1.517749e+00 1.497061e+00 1.387349e+00 1.237632e+00 1.070069e+00 8.992318e-01 7.375908e-01 5.852175e-01 4.484597e-01 3.225895e-01 2.088684e-01 1.021341e-01 
7.637662e-18 -9.494394e-02 -1.956608e-01 -3.047229e-01 -4.289327e-01 -5.661425e-01 -7.230563e-01 -8.916247e-01 -1.070357e+00 -1.244626e+00 -1.385773e+00 -1.465403e+00 -1.386348e+00 -1.158408e+00 -7.979625e-01 -3.555117e-01 1.311587e-14 3.555117e-01 7.979625e-01 1.158408e+00 1.386348e+00 1.465403e+00 1.385773e+00 1.244626e+00 1.070357e+00 8.916247e-01 7.230563e-01 5.661425e-01 4.289327e-01 3.047229e-01 1.956608e-01 9.494394e-02 
2.032811e-15 -7.982939e-02 -1.671572e-01 -2.669849e-01 -3.864253e-01 -5.254722e-01 -6.924460e-01 -8.771192e-01 -1.085949e+00 -1.298431e+00 -1.490730e+00 -1.631626e+00 -1.594944e+00 -1.299397e+00 -7.741006e-01 -3.049995e-01 9.724391e-15 3.049995e-01 7.741006e-01 1.299397e+00 1.594944e+00 1.631626e+00 1.490730e+00 1.298431e+00 1.085949e+00 8.771192e-01 6.924460e-01 5.254722e-01 3.864253e-01 2.669849e-01 1.671572e-01 7.982939e-02 
1.197457e-15 -6.316010e-02 -1.370035e-01 -2.274543e-01 -3.448654e-01 -4.867159e-01 -6.692592e-01 -8.809543e-01 -1.147599e+00 -1.465438e+00 -1.812067e+00 -1.964521e+00 -1.490817e+00 -7.275990e-01 -2.077419e-01 1.463950e-02 -1.107059e-14 -1.463950e-02 2.077419e-01 7.275990e-01 1.490817e+00 1.964521e+00 1.812067e+00 1.465438e+00 1.147599e+00 8.809543e-01 6.692592e-01 4.867159e-01 3.448654e-01 2.274543e-01 1.370035e-01 6.316010e-02 
1.748695e-15 -3.316432e-02 -8.063118e-02 -1.537781e-01 -2.596388e-01 -4.038669e-01 -5.997463e-01 -8.452370e-01 -1.214183e+00 -1.622753e+00 -1.738899e+00 -1.135451e+00 -1.022055e-01 6.152367e-01 5.705242e-01 3.169285e-01 -7.460330e-14 -3.169285e-01 -5.705242e-01 -6.152367e-01 1.022055e-01 1.135451e+00 1.738899e+00 1.622753e+00 1.214183e+00 8.452370e-01 5.997463e-01 4.038669e-01 2.596388e-01 1.537781e-01 8.063118e-02 3.316432e-02 
1.111300e-15 1.894662e-04 -2.064790e-02 -7.630835e-02 -1.736519e-01 -3.121279e-01 -5.283976e-01 -8.235142e-01 -1.192247e+00 -1.214342e+00 -5.098696e-01 6.575674e-01 1.077820e+00 9.719040e-01 6.690928e-01 3.003372e-01 -5.929231e-14 -3.003372e-01 -6.690928e-01 -9.719040e-01 -1.077820e+00 -6.575674e-01 5.098696e-01 1.214342e+00 1.192247e+00 8.235142e-01 5.283976e-01 3.121279e-01 1.736519e-01 7.630835e-02 2.064790e-02 -1.894662e-04 
-2.005608e-15 5.436594e-02 8.124330e-02 5.891916e-02 -6.541791e-03 -1.437407e-01 -3.607522e-01 -6.378280e-01 -7.287079e-01 -2.518723e-01 7.964110e-01 1.476915e+00 1.510281e+00 1.451842e+00 1.235562e+00 6.801749e-01 -2.629270e-14 -6.801749e-01 -1.235562e+00 -1.451842e+00 -1.510281e+00 -1.476915e+00 -7.964110e-01 2.518723e-01 7.287079e-01 6.378280e-01 3.607522e-01 1.437407e-01 6.541791e-03 -5.891916e-02 -8.124330e-02 -5.436594e-02 
-3.402623e-16 1.124400e-01 1.881490e-01 1.937447e-01 1.405273e-01 1.027646e-03 -1.998381e-01 -1.672852e-01 -1.437687e-01 7.219507e-01 1.468249e+00 1.474939e+00 1.594698e+00 1.524732e+00 1.270996e+00 7.376109e-01 1.087148e-14 -7.376109e-01 -1.270996e+00 -1.524732e+00 -1.594698e+00 -1.474939e+00 -1.468249e+00 -7.219507e-01 1.437687e-01 1.672852e-01 1.998381e-01 -1.027646e-03 -1.405273e-01 -1.937447e-01 -1.881490e-01 -1.124400e-01 
-6.318913e-15 1.833945e-01 3.289957e-01 4.008260e-01 4.213615e-01 3.500595e-01 4.201612e-01 5.007049e-01 3.749758e-01 1.493160e+00 1.762391e+00 1.329901e+00 1.117693e+00 7.038085e-01 5.254043e-01 2.986239e-01 -1.137147e-14 -2.986239e-01 -5.254043e-01 -7.038085e-01 -1.117693e+00 -1.329901e+00 -1.762391e+00 -1.493160e+00 -3.749758e-01 -5.007049e-01 -4.201612e-01 -3.500595e-01 -4.213615e-01 -4.008260e-01 -3.289957e-01 -1.833945e-01 
4.625222e-16 2.378712e-01 4.563079e-01 6.127035e-01 7.221205e-01 6.351919e-01 1.009367e+00 5.077998e-01 9.609545e-01 1.754104e+00 1.226198e+00 7.342531e-01 2.763369e-01 -4.600346e-02 -1.205132e-01 -9.329491e-02 2.541681e-14 9.329491e-02 1.205132e-01 4.600346e-02 -2.763369e-01 -7.342531e-01 -1.226198e+00 -1.754104e+00 -9.609545e-01 -5.077998e-01 -1.009367e+00 -6.351919e-01 -7.221205e-01 -6.127035e-01 -4.563079e-01 -2.378712e-01 
-7.460117e-15 2.453906e-01 4.938049e-01 7.416491e-01 9.056232e-01 1.089744e+00 1.047016e+00 4.504625e-01 1.662077e+00 1.674270e+00 7.478348e-01 4.331092e-01 1.542523e-02 -1.401549e-01 -2.315630e-01 -1.643841e-01 1.587169e-14 1.643841e-01 2.315630e-01 1.401549e-01 -1.542523e-02 -4.331092e-01 -7.478348e-01 -1.674270e+00 -1.662077e+00 -4.504625e-01 -1.047016e+00 -1.089744e+00 -9.056232e-01 -7.416491e-01 -4.938049e-01 -2.453906e-01 
8.049151e-15 1.879454e-01 4.248257e-01 7.951968e-01 1.163318e+00 1.420777e+00 7.159802e-01 1.076064e+00 1.982398e+00 1.371962e+00 8.186532e-01 6.910351e-01 3.741322e-01 1.970619e-01 2.429635e-02 -3.279655e-02 1.365289e-14 3.279655e-02 -2.429635e-02 -1.970619e-01 -3.741322e-01 -6.910351e-01 -8.186532e-01 -1.371962e+00 -1.982398e+00 -1.076064e+00 -7.159802e-01 -1.420777e+00 -1.163318e+00 -7.951968e-01 -4.248257e-01 -1.879454e-01 
1.972527e-15 4.504061e-02 1.856817e-01 4.343894e-01 6.929124e-01 6.137417e-01 5.294119e-01 1.736207e+00 1.829042e+00 1.151012e+00 1.131285e+00 1.024947e+00 7.449474e-01 4.398488e-01 1.884607e-01 4.821979e-02 1.156419e-14 -4.821979e-02 -1.884607e-01 -4.398488e-01 -7.449474e-01 -1.024947e+00 -1.131285e+00 -1.151012e+00 -1.829042e+00 -1.736207e+00 -5.294119e-01 -6.137417e-01 -6.929124e-01 -4.343894e-01 -1.856817e-01 -4.504061e-02 
2.203760e-14 -2.721619e-01 -4.956983e-01 -6.552442e-01 -6.128033e-01 -8.961587e-02 1.146540e+00 2.088600e+00 1.684091e+00 1.316506e+00 1.588579e+00 1.396309e+00 1.135683e+00 7.582030e-01 4.301359e-01 1.722093e-01 2.854615e-15 -1.722093e-01 -4.301359e-01 -7.582030e-01 -1.135683e+00 -1.396309e+00 -1.588579e+00 -1.316506e+00 -1.684091e+00 -2.088600e+00 -1.146540e+00 8.961587e-02 6.128033e-01 6.552442e-01 4.956983e-01 2.721619e-01 
-5.024017e-15 -5.173861e-01 -1.044836e+00 -1.445399e+00 -1.369960e+00 -1.856948e-01 1.542622e+00 2.057385e+00 1.547269e+00 1.438053e+00 1.780179e+00 1.571402e+00 1.320386e+00 8.877923e-01 5.124569e-01 2.085902e-01 1.298023e-14 -2.085902e-01 -5.124569e-01 -8.877923e-01 -1.320386e+00 -1.571402e+00 -1.780179e+00 -1.438053e+00 -1.547269e+00 -2.057385e+00 -1.542622e+00 1.856948e-01 1.369960e+00 1.445399e+00 1.044836e+00 5.173861e-01 
-7.205843e-15 -2.721619e-01 -4.956983e-01 -6.552442e-01 -6.128033e-01 -8.961587e-02 1.146540e+00 2.088600e+00 1.684091e+00 1.316506e+00 1.588579e+00 1.396309e+00 1.135683e+00 7.582030e-01 4.301359e-01 1.722093e-01 3.463297e-15 -1.722093e-01 -4.301359e-01 -7.582030e-01 -1.135683e+00 -1.396309e+00 -1.588579e+00 -1.316506e+00 -1.684091e+00 -2.088600e+00 -1.146540e+00 8.961587e-02 6.128033e-01 6.552442e-01 4.956983e-01 2.721619e-01 
1.933397e-15 4.504061e-02 1.856817e-01 4.343894e-01 6.929124e-01 6.137417e-01 5.294119e-01 1.736207e+00 1.829042e+00 1.151012e+00 1.131285e+00 1.024947e+00 7.449474e-01 4.398488e-01 1.884607e-01 4.821979e-02 2.075199e-14 -4.821979e-02 -1.884607e-01 -4.398488e-01 -7.449474e-01 -1.024947e+00 -1.131285e+00 -1.151012e+00 -1.829042e+00 -1.736207e+00 -5.294119e-01 -6.137417e-01 -6.929124e-01 -4.343894e-01 -1.856817e-01 -4.504061e-02 
-2.730060e-15 1.879454e-01 4.248257e-01 7.951968e-01 1.163318e+00 1.420777e+00 7.159802e-01 1.076064e+00 1.982398e+00 1.371962e+00 8.186532e-01 6.910351e-01 3.741322e-01 1.970619e-01 2.429635e-02 -3.279655e-02 9.529291e-15 3.279655e-02 -2.429635e-02 -1.970619e-01 -3.741322e-01 -6.910351e-01 -8.186532e-01 -1.371962e+00 -1.982398e+00 -1.076064e+00 -7.159802e-01 -1.420777e+00 -1.163318e+00 -7.951968e-01 -4.248257e-01 -1.879454e-01 
5.592426e-15 2.453906e-01 4.938049e-01 7.416491e-01 9.056232e-01 1.089744e+00 1.047016e+00 4.504625e-01 1.662077e+00 1.674270e+00 7.478348e-01 4.331092e-01 1.542523e-02 -1.401549e-01 -2.315630e-01 -1.643841e-01 3.228333e-14 1.643841e-01 2.315630e-01 1.401549e-01 -1.542523e-02 -4.331092e-01 -7.478348e-01 -1.674270e+00 -1.662077e+00 -4.504625e-01 -1.047016e+00 -1.089744e+00 -9.056232e-01 -7.416491e-01 -4.938049e-01 -2.453906e-01 
-6.678373e-17 2.378712e-01 4.563079e-01 6.127035e-01 7.221205e-01 6.351919e-01 1.009367e+00 5.077998e-01 9.609545e-01 1.754104e+00 1.226198e+00 7.342531e-01 2.763369e-01 -4.600346e-02 -1.205132e-01 -9.329491e-02 2.189823e-14 9.329491e-02 1.205132e-01 4.600346e-02 -2.763369e-01 -7.342531e-01 -1.226198e+00 -1.754104e+00 -9.609545e-01 -5.077998e-01 -1.009367e+00 -6.351919e-01 -7.221205e-01 -6.127035e-01 -4.563079e-01 -2.378712e-01 
2.608014e-15 1.833945e-01 3.289957e-01 4.008260e-01 4.213615e-01 3.500595e-01 4.201612e-01 5.007049e-01 3.749758e-01 1.493160e+00 1.762391e+00 1.329901e+00 1.117693e+00 7.038085e-01 5.254043e-01 2.986239e-01 8.180050e-14 -2.986239e-01 -5.254043e-01 -7.038085e-01 -1.117693e+00 -1.329901e+00 -1.762391e+00 -1.493160e+00 -3.749758e-01 -5.007049e-01 -4.201612e-01 -3.500595e-01 -4.213615e-01 -4.008260e-01 -3.289957e-01 -1.833945e-01 
-1.954125e-15 1.124400e-01 1.881490e-01 1.937447e-01 1.405273e-01 1.027646e-03 -1.998381e-01 -1.672852e-01 -1.437687e-01 7.219507e-01 1.468249e+00 1.474939e+00 1.594698e+00 1.524732e+00 1.270996e+00 7.376109e-01 4.780803e-14 -7.376109e-01 -1.270996e+00 -1.524732e+00 -1.594698e+00 -1.474939e+00 -1.468249e+00 -7.219507e-01 1.437687e-01 1.672852e-01 1.998381e-01 -1.027646e-03 -1.405273e-01 -1.937447e-01 -1.881490e-01 -1.124400e-01 
1.728313e-15 5.436594e-02 8.124330e-02 5.891916e-02 -6.541791e-03 -1.437407e-01 -3.607522e-01 -6.378280e-01 -7.287079e-01 -2.518723e-01 7.964110e-01 1.476915e+00 1.510281e+00 1.451842e+00 1.235562e+00 6.801749e-01 -1.549026e-13 -6.801749e-01 -1.235562e+00 -1.451842e+00 -1.510281e+00 -1.476915e+00 -7.964110e-01 2.518723e-01 7.287079e-01 6.378280e-01 3.607522e-01 1.437407e-01 6.541791e-03 -5.891916e-02 -8.124330e-02 -5.436594e-02 
-5.547757e-15 1.894662e-04 -2.064790e-02 -7.630835e-02 -1.736519e-01 -3.121279e-01 -5.283976e-01 -8.235142e-01 -1.192247e+00 -1.214342e+00 -5.098696e-01 6.575674e-01 1.077820e+00 9.719040e-01 6.690928e-01 3.003372e-01 -2.329008e-13 -3.003372e-01 -6.690928e-01 -9.719040e-01 -1.077820e+00 -6.575674e-01 5.098696e-01 1.214342e+00 1.192247e+00 8.235142e-01 5.283976e-01 3.121279e-01 1.736519e-01 7.630835e-02 2.064790e-02 -1.894662e-04 
-1.352952e-16 -3.316432e-02 -8.063118e-02 -1.537781e-01 -2.596388e-01 -4.038669e-01 -5.997463e-01 -8.452370e-01 -1.214183e+00 -1.622753e+00 -1.738899e+00 -1.135451e+00 -1.022055e-01 6.152367e-01 5.705242e-01 3.169285e-01 1.547741e-14 -3.169285e-01 -5.705242e-01 -6.152367e-01 1.022055e-01 1.135451e+00 1.738899e+00 1.622753e+00 1.214183e+00 8.452370e-01 5.997463e-01 4.038669e-01 2.596388e-01 1.537781e-01 8.063118e-02 3.316432e-02 
-6.724246e-15 -6.316010e-02 -1.370035e-01 -2.274543e-01 -3.448654e-01 -4.867159e-01 -6.692592e-01 -8.809543e-01 -1.147599e+00 -1.465438e+00 -1.812067e+00 -1.964521e+00 -1.490817e+00 -7.275990e-01 -2.077419e-01 1.463950e-02 1.404500e-13 -1.463950e-02 2.077419e-01 7.275990e-01 1.490817e+00 1.964521e+00 1.812067e+00 1.465438e+00 1.147599e+00 8.809543e-01 6.692592e-01 4.867159e-01 3.448654e-01 2.274543e-01 1.370035e-01 6.316010e-02 
-1.172756e-15 -7.982939e-02 -1.671572e-01 -2.669849e-01 -3.864253e-01 -5.254722e-01 -6.924460e-01 -8.771192e-01 -1.085949e+00 -1.298431e+00 -1.490730e+00 -1.631626e+00 -1.594944e+00 -1.299397e+00 -7.741006e-01 -3.049995e-01 6.846821e-14 3.049995e-01 7.741006e-01 1.299397e+00 1.594944e+00 1.631626e+00 1.490730e+00 1.298431e+00 1.085949e+00 8.771192e-01 6.924460e-01 5.254722e-01 3.864253e-01 2.669849e-01 1.671572e-01 7.982939e-02 
-5.765059e-15 -9.494394e-02 -1.956608e-01 -3.047229e-01 -4.289327e-01 -5.661425e-01 -7.230563e-01 -8.916247e-01 -1.070357e+00 -1.244626e+00 -1.385773e+00 -1.465403e+00 -1.386348e+00 -1.158408e+00 -7.979625e-01 -3.555117e-01 1.989442e-14 3.555117e-01 7.979625e-01 1.158408e+00 1.386348e+00 1.465403e+00 1.385773e+00 1.244626e+00 1.070357e+00 8.916247e-01 7.230563e-01 5.661425e-01 4.289327e-01 3.047229e-01 1.956608e-01 9.494394e-02 
-1.043810e-15 -1.021341e-01 -2.088684e-01 -3.225895e-01 -4.484597e-01 -5.852175e-01 -7.375908e-01 -8.992318e-01 -1.070069e+00 -1.237632e+00 -1.387349e+00 -1.497061e+00 -1.517749e+00 -1.393436e+00 -1.069400e+00 -5.504247e-01 4.043571e-15 5.504247e-01 1.069400e+00 1.393436e+00 1.517749e+00 1.497061e+00 1.387349e+00 1.237632e+00 1.070069e+00 8.992318e-01 7.375908e-01 5.852175e-01 4.484597e-01 3.225895e-01 2.088684e-01 1.021341e-01 
-3.322217e-15 -1.081801e-01 -2.202721e-01 -3.379151e-01 -4.657129e-01 -6.023941e-01 -7.513363e-01 -9.090850e-01 -1.073471e+00 -1.240116e+00 -1.393969e+00 -1.524179e+00 -1.581506e+00 -1.519891e+00 -1.268303e+00 -7.431938e-01 -4.654701e-15 7.431938e-01 1.268303e+00 1.519891e+00 1.581506e+00 1.524179e+00 1.393969e+00 1.240116e+00 1.073471e+00 9.090850e-01 7.513363e-01 6.023941e-01 4.657129e-01 3.379151e-01 2.202721e-01 1.081801e-01 
