# vtk DataFile Version 2.0
Comment goes here
ASCII

DATASET STRUCTURED_POINTS
FIELD FieldData 1
TIME 1 1 double
0.08000000
DIMENSIONS    32   32   1

ORIGIN    0.000   0.000   0.000
SPACING   0.03125 0.03125   1.000

POINT_DATA   1024
SCALARS uX double
LOOKUP_TABLE default

3.192326e-16 4.022471e-02 7.902400e-02 1.149329e-01 1.481468e-01 1.754302e-01 2.009479e-01 2.181784e-01 2.329697e-01 2.322787e-01 2.239636e-01 1.941108e-01 1.585842e-01 1.058368e-01 6.387683e-02 -3.255606e-02 -3.641760e-15 3.255606e-02 -6.387683e-02 -1.058368e-01 -1.585842e-01 -1.941108e-01 -2.239636e-01 -2.322787e-01 -2.329697e-01 -2.181784e-01 -2.009479e-01 -1.754302e-01 -1.481468e-01 -1.149329e-01 -7.902400e-02 -4.022471e-02 
3.542235e-15 4.059511e-02 7.881855e-02 1.152399e-01 1.461249e-01 1.734689e-01 1.947003e-01 2.119399e-01 2.230772e-01 2.228414e-01 2.176909e-01 1.946401e-01 1.582863e-01 1.052205e-01 2.268463e-02 -1.036849e-01 -2.980540e-15 1.036849e-01 -2.268463e-02 -1.052205e-01 -1.582863e-01 -1.946401e-01 -2.176909e-01 -2.228414e-01 -2.230772e-01 -2.119399e-01 -1.947003e-01 -1.734689e-01 -1.461249e-01 -1.152399e-01 -7.881855e-02 -4.059511e-02 
4.108760e-15 4.321664e-02 8.413763e-02 1.224380e-01 1.565945e-01 1.848332e-01 2.121110e-01 2.330766e-01 2.540633e-01 2.587079e-01 2.549608e-01 2.232077e-01 1.826996e-01 1.073196e-01 -8.561180e-02 -1.842478e-01 -4.871632e-15 1.842478e-01 8.561180e-02 -1.073196e-01 -1.826996e-01 -2.232077e-01 -2.549608e-01 -2.587079e-01 -2.540633e-01 -2.330766e-01 -2.121110e-01 -1.848332e-01 -1.565945e-01 -1.224380e-01 -8.413763e-02 -4.321664e-02 
6.381662e-15 4.736693e-02 9.064961e-02 1.324756e-01 1.653343e-01 1.944866e-01 2.170987e-01 2.403745e-01 2.567667e-01 2.636315e-01 2.763625e-01 2.744442e-01 2.520974e-01 1.613804e-01 -1.428603e-02 2.793937e-03 -9.778529e-15 -2.793937e-03 1.428603e-02 -1.613804e-01 -2.520974e-01 -2.744442e-01 -2.763625e-01 -2.636315e-01 -2.567667e-01 -2.403745e-01 -2.170987e-01 -1.944866e-01 -1.653343e-01 -1.324756e-01 -9.064961e-02 -4.736693e-02 
6.613194e-15 5.363843e-02 1.013756e-01 1.477330e-01 1.823257e-01 2.101995e-01 2.410422e-01 2.666410e-01 3.106059e-01 3.499680e-01 3.724153e-01 3.716557e-01 3.354681e-01 2.183481e-01 1.949018e-01 2.569294e-01 -1.407261e-14 -2.569294e-01 -1.949018e-01 -2.183481e-01 -3.354681e-01 -3.716557e-01 -3.724153e-01 -3.499680e-01 -3.106059e-01 -2.666410e-01 -2.410422e-01 -2.101995e-01 -1.823257e-01 -1.477330e-01 -1.013756e-01 -5.363843e-02 
8.564653e-15 6.392094e-02 1.189903e-01 1.736680e-01 2.075457e-01 2.340551e-01 2.581893e-01 2.732317e-01 2.976376e-01 3.253683e-01 3.878358e-01 4.121129e-01 3.359860e-01 2.063209e-01 3.060597e-01 3.193131e-01 -1.373914e-14 -3.193131e-01 -3.060597e-01 -2.063209e-01 -3.359860e-01 -4.121129e-01 -3.878358e-01 -3.253683e-01 -2.976376e-01 -2.732317e-01 -2.581893e-01 -2.340551e-01 -2.075457e-01 -1.736680e-01 -1.189903e-01 -6.392094e-02 
4.736998e-15 7.738081e-02 1.400362e-01 2.053293e-01 2.315716e-01 2.443773e-01 2.547680e-01 2.318923e-01 3.294383e-01 4.310750e-01 3.752329e-01 1.486082e-01 -1.333143e-01 -1.451658e-01 1.009934e-01 1.485603e-01 -1.228568e-14 -1.485603e-01 -1.009934e-01 1.451658e-01 1.333143e-01 -1.486082e-01 -3.752329e-01 -4.310750e-01 -3.294383e-01 -2.318923e-01 -2.547680e-01 -2.443773e-01 -2.315716e-01 -2.053293e-01 -1.400362e-01 -7.738081e-02 
6.242290e-15 9.870440e-02 1.790056e-01 2.638767e-01 2.892062e-01 2.874506e-01 2.484056e-01 2.226082e-01 6.819382e-02 -2.037347e-01 -4.528060e-01 -6.651079e-01 -6.113314e-01 -3.216935e-01 -7.143825e-02 8.492354e-03 -2.685575e-14 -8.492354e-03 7.143825e-02 3.216935e-01 6.113314e-01 6.651079e-01 4.528060e-01 2.037347e-01 -6.819382e-02 -2.226082e-01 -2.484056e-01 -2.874506e-01 -2.892062e-01 -2.638767e-01 -1.790056e-01 -9.870440e-02 
5.665121e-16 1.279738e-01 2.282876e-01 3.498881e-01 3.411513e-01 2.664327e-01 4.299636e-03 -3.191929e-01 -3.908387e-01 -4.417142e-01 -7.175838e-01 -8.309083e-01 -7.426162e-01 -7.001403e-01 -5.338521e-01 -2.825307e-01 -4.256622e-14 2.825307e-01 5.338521e-01 7.001403e-01 7.426162e-01 8.309083e-01 7.175838e-01 4.417142e-01 3.908387e-01 3.191929e-01 -4.299636e-03 -2.664327e-01 -3.411513e-01 -3.498881e-01 -2.282876e-01 -1.279738e-01 
2.295529e-15 1.656364e-01 3.071447e-01 4.850848e-01 4.392680e-01 1.492240e-01 -1.787518e-01 -2.660530e-01 -6.324769e-01 -1.195776e+00 -1.797793e+00 -2.101021e+00 -2.240332e+00 -2.072753e+00 -1.656517e+00 -1.036294e+00 1.543918e-14 1.036294e+00 1.656517e+00 2.072753e+00 2.240332e+00 2.101021e+00 1.797793e+00 1.195776e+00 6.324769e-01 2.660530e-01 1.787518e-01 -1.492240e-01 -4.392680e-01 -4.850848e-01 -3.071447e-01 -1.656364e-01 
-4.789019e-15 2.105351e-01 4.181274e-01 7.051675e-01 4.713814e-01 -3.762867e-03 -4.562263e-01 -1.037548e+00 -2.333307e+00 -3.136700e+00 -3.211328e+00 -2.735199e+00 -1.995597e+00 -1.283076e+00 -9.977358e-01 -6.859251e-01 5.472127e-14 6.859251e-01 9.977358e-01 1.283076e+00 1.995597e+00 2.735199e+00 3.211328e+00 3.136700e+00 2.333307e+00 1.037548e+00 4.562263e-01 3.762867e-03 -4.713814e-01 -7.051675e-01 -4.181274e-01 -2.105351e-01 
-1.858397e-15 2.361347e-01 5.316225e-01 8.330232e-01 2.550941e-02 -7.602180e-01 -1.129823e+00 -1.903181e+00 -2.106721e+00 -1.573160e+00 -1.004203e+00 -7.960695e-02 7.883294e-01 8.986789e-01 6.142220e-01 3.729209e-01 1.351491e-14 -3.729209e-01 -6.142220e-01 -8.986789e-01 -7.883294e-01 7.960695e-02 1.004203e+00 1.573160e+00 2.106721e+00 1.903181e+00 1.129823e+00 7.602180e-01 -2.550941e-02 -8.330232e-01 -5.316225e-01 -2.361347e-01 
-6.208994e-15 1.783250e-01 5.410128e-01 3.166073e-01 -9.116569e-01 -9.727866e-01 -6.524089e-01 -4.987574e-01 3.554001e-01 3.898403e-01 4.596173e-01 9.231810e-01 1.132641e+00 8.485943e-01 6.212597e-01 4.316101e-01 -6.676190e-15 -4.316101e-01 -6.212597e-01 -8.485943e-01 -1.132641e+00 -9.231810e-01 -4.596173e-01 -3.898403e-01 -3.554001e-01 4.987574e-01 6.524089e-01 9.727866e-01 9.116569e-01 -3.166073e-01 -5.410128e-01 -1.783250e-01 
-1.140227e-15 -4.827317e-02 1.292801e-01 -8.952906e-01 -1.207166e+00 -1.343326e-01 -3.748504e-03 2.786738e-01 6.574779e-01 3.519887e-01 3.990471e-01 5.552168e-01 4.603674e-01 4.054997e-01 3.699983e-01 2.317951e-01 -4.716220e-15 -2.317951e-01 -3.699983e-01 -4.054997e-01 -4.603674e-01 -5.552168e-01 -3.990471e-01 -3.519887e-01 -6.574779e-01 -2.786738e-01 3.748504e-03 1.343326e-01 1.207166e+00 8.952906e-01 -1.292801e-01 4.827317e-02 
-6.341231e-15 -3.899549e-01 -7.640539e-01 -1.563959e+00 -5.822939e-01 1.061819e-01 -1.454973e-01 5.024898e-01 7.161601e-01 9.873994e-01 1.169264e+00 9.243090e-01 5.895062e-01 5.210093e-01 4.192521e-01 2.146034e-01 -1.797208e-15 -2.146034e-01 -4.192521e-01 -5.210093e-01 -5.895062e-01 -9.243090e-01 -1.169264e+00 -9.873994e-01 -7.161601e-01 -5.024898e-01 1.454973e-01 -1.061819e-01 5.822939e-01 1.563959e+00 7.640539e-01 3.899549e-01 
3.004760e-14 -6.040852e-01 -1.435511e+00 -1.108078e+00 -6.582262e-02 -1.441347e-01 3.939299e-01 9.424063e-01 1.236045e+00 1.808840e+00 1.973865e+00 1.409322e+00 8.565974e-01 6.173463e-01 4.292765e-01 2.046632e-01 -2.448833e-15 -2.046632e-01 -4.292765e-01 -6.173463e-01 -8.565974e-01 -1.409322e+00 -1.973865e+00 -1.808840e+00 -1.236045e+00 -9.424063e-01 -3.939299e-01 1.441347e-01 6.582262e-02 1.108078e+00 1.435511e+00 6.040852e-01 
3.089141e-14 -6.424545e-01 -1.576871e+00 -6.813417e-01 7.370589e-02 -2.463804e-01 8.828755e-01 1.024620e+00 1.283986e+00 2.090569e+00 2.370878e+00 1.756181e+00 1.103843e+00 7.603843e-01 4.977087e-01 2.345568e-01 3.570469e-16 -2.345568e-01 -4.977087e-01 -7.603843e-01 -1.103843e+00 -1.756181e+00 -2.370878e+00 -2.090569e+00 -1.283986e+00 -1.024620e+00 -8.828755e-01 2.463804e-01 -7.370589e-02 6.813417e-01 1.576871e+00 6.424545e-01 
-3.211068e-14 -6.040852e-01 -1.435511e+00 -1.108078e+00 -6.582262e-02 -1.441347e-01 3.939299e-01 9.424063e-01 1.236045e+00 1.808840e+00 1.973865e+00 1.409322e+00 8.565974e-01 6.173463e-01 4.292765e-01 2.046632e-01 -4.379505e-16 -2.046632e-01 -4.292765e-01 -6.173463e-01 -8.565974e-01 -1.409322e+00 -1.973865e+00 -1.808840e+00 -1.236045e+00 -9.424063e-01 -3.939299e-01 1.441347e-01 6.582262e-02 1.108078e+00 1.435511e+00 6.040852e-01 
-5.905571e-15 -3.899549e-01 -7.640539e-01 -1.563959e+00 -5.822939e-01 1.061819e-01 -1.454973e-01 5.024898e-01 7.161601e-01 9.873994e-01 1.169264e+00 9.243090e-01 5.895062e-01 5.210093e-01 4.192521e-01 2.146034e-01 -1.357140e-15 -2.146034e-01 -4.192521e-01 -5.210093e-01 -5.895062e-01 -9.243090e-01 -1.169264e+00 -9.873994e-01 -7.161601e-01 -5.024898e-01 1.454973e-01 -1.061819e-01 5.822939e-01 1.563959e+00 7.640539e-01 3.899549e-01 
-2.364934e-15 -4.827317e-02 1.292801e-01 -8.952906e-01 -1.207166e+00 -1.343326e-01 -3.748504e-03 2.786738e-01 6.574779e-01 3.519887e-01 3.990471e-01 5.552168e-01 4.603674e-01 4.054997e-01 3.699983e-01 2.317951e-01 -5.584874e-15 -2.317951e-01 -3.699983e-01 -4.054997e-01 -4.603674e-01 -5.552168e-01 -3.990471e-01 -3.519887e-01 -6.574779e-01 -2.786738e-01 3.748504e-03 1.343326e-01 1.207166e+00 8.952906e-01 -1.292801e-01 4.827317e-02 
2.220920e-16 1.783250e-01 5.410128e-01 3.166073e-01 -9.116569e-01 -9.727866e-01 -6.524089e-01 -4.987574e-01 3.554001e-01 3.898403e-01 4.596173e-01 9.231810e-01 1.132641e+00 8.485943e-01 6.212597e-01 4.316101e-01 -1.133908e-14 -4.316101e-01 -6.212597e-01 -8.485943e-01 -1.132641e+00 -9.231810e-01 -4.596173e-01 -3.898403e-01 -3.554001e-01 4.987574e-01 6.524089e-01 9.727866e-01 9.116569e-01 -3.166073e-01 -5.410128e-01 -1.783250e-01 
1.373203e-15 2.361347e-01 5.316225e-01 8.330232e-01 2.550941e-02 -7.602180e-01 -1.129823e+00 -1.903181e+00 -2.106721e+00 -1.573160e+00 -1.004203e+00 -7.960695e-02 7.883294e-01 8.986789e-01 6.142220e-01 3.729209e-01 -1.643789e-14 -3.729209e-01 -6.142220e-01 -8.986789e-01 -7.883294e-01 7.960695e-02 1.004203e+00 1.573160e+00 2.106721e+00 1.903181e+00 1.129823e+00 7.602180e-01 -2.550941e-02 -8.330232e-01 -5.316225e-01 -2.361347e-01 
1.129057e-16 2.105351e-01 4.181274e-01 7.051675e-01 4.713814e-01 -3.762867e-03 -4.562263e-01 -1.037548e+00 -2.333307e+00 -3.136700e+00 -3.211328e+00 -2.735199e+00 -1.995597e+00 -1.283076e+00 -9.977358e-01 -6.859251e-01 3.953474e-14 6.859251e-01 9.977358e-01 1.283076e+00 1.995597e+00 2.735199e+00 3.211328e+00 3.136700e+00 2.333307e+00 1.037548e+00 4.562263e-01 3.762867e-03 -4.713814e-01 -7.051675e-01 -4.181274e-01 -2.105351e-01 
-1.801241e-15 1.656364e-01 3.071447e-01 4.850848e-01 4.392680e-01 1.492240e-01 -1.787518e-01 -2.660530e-01 -6.324769e-01 -1.195776e+00 -1.797793e+00 -2.101021e+00 -2.240332e+00 -2.072753e+00 -1.656517e+00 -1.036294e+00 6.099367e-14 1.036294e+00 1.656517e+00 2.072753e+00 2.240332e+00 2.101021e+00 1.797793e+00 1.195776e+00 6.324769e-01 2.660530e-01 1.787518e-01 -1.492240e-01 -4.392680e-01 -4.850848e-01 -3.071447e-01 -1.656364e-01 
-4.269218e-15 1.279738e-01 2.282876e-01 3.498881e-01 3.411513e-01 2.664327e-01 4.299636e-03 -3.191929e-01 -3.908387e-01 -4.417142e-01 -7.175838e-01 -8.309083e-01 -7.426162e-01 -7.001403e-01 -5.338521e-01 -2.825307e-01 7.918383e-15 2.825307e-01 5.338521e-01 7.001403e-01 7.426162e-01 8.309083e-01 7.175838e-01 4.417142e-01 3.908387e-01 3.191929e-01 -4.299636e-03 -2.664327e-01 -3.411513e-01 -3.498881e-01 -2.282876e-01 -1.279738e-01 
-5.531976e-15 9.870440e-02 1.790056e-01 2.638767e-01 2.892062e-01 2.874506e-01 2.484056e-01 2.226082e-01 6.819382e-02 -2.037347e-01 -4.528060e-01 -6.651079e-01 -6.113314e-01 -3.216935e-01 -7.143825e-02 8.492354e-03 3.468258e-15 -8.492354e-03 7.143825e-02 3.216935e-01 6.113314e-01 6.651079e-01 4.528060e-01 2.037347e-01 -6.819382e-02 -2.226082e-01 -2.484056e-01 -2.874506e-01 -2.892062e-01 -2.638767e-01 -1.790056e-01 -9.870440e-02 
-7.013567e-15 7.738081e-02 1.400362e-01 2.053293e-01 2.315716e-01 2.443773e-01 2.547680e-01 2.318923e-01 3.294383e-01 4.310750e-01 3.752329e-01 1.486082e-01 -1.333143e-01 -1.451658e-01 1.009934e-01 1.485603e-01 1.091880e-14 -1.485603e-01 -1.009934e-01 1.451658e-01 1.333143e-01 -1.486082e-01 -3.752329e-01 -4.310750e-01 -3.294383e-01 -2.318923e-01 -2.547680e-01 -2.443773e-01 -2.315716e-01 -2.053293e-01 -1.400362e-01 -7.738081e-02 
-6.713278e-15 6.392094e-02 1.189903e-01 1.736680e-01 2.075457e-01 2.340551e-01 2.581893e-01 2.732317e-01 2.976376e-01 3.253683e-01 3.878358e-01 4.121129e-01 3.359860e-01 2.063209e-01 3.060597e-01 3.193131e-01 5.457091e-15 -3.193131e-01 -3.060597e-01 -2.063209e-01 -3.359860e-01 -4.121129e-01 -3.878358e-01 -3.253683e-01 -2.976376e-01 -2.732317e-01 -2.581893e-01 -2.340551e-01 -2.075457e-01 -1.736680e-01 -1.189903e-01 -6.392094e-02 
-6.588484e-15 5.363843e-02 1.013756e-01 1.477330e-01 1.823257e-01 2.101995e-01 2.410422e-01 2.666410e-01 3.106059e-01 3.499680e-01 3.724153e-01 3.716557e-01 3.354681e-01 2.183481e-01 1.949018e-01 2.569294e-01 -7.701823e-15 -2.569294e-01 -1.949018e-01 -2.183481e-01 -3.354681e-01 -3.716557e-01 -3.724153e-01 -3.499680e-01 -3.106059e-01 -2.666410e-01 -2.410422e-01 -2.101995e-01 -1.823257e-01 -1.477330e-01 -1.013756e-01 -5.363843e-02 
-4.435476e-15 4.736693e-02 9.064961e-02 1.324756e-01 1.653343e-01 1.944866e-01 2.170987e-01 2.403745e-01 2.567667e-01 2.636315e-01 2.763625e-01 2.744442e-01 2.520974e-01 1.613804e-01 -1.428603e-02 2.793937e-03 -1.299628e-14 -2.793937e-03 1.428603e-02 -1.613804e-01 -2.520974e-01 -2.744442e-01 -2.763625e-01 -2.636315e-01 -2.567667e-01 -2.403745e-01 -2.170987e-01 -1.944866e-01 -1.653343e-01 -1.324756e-01 -9.064961e-02 -4.736693e-02 
-3.726215e-15 4.321664e-02 8.413763e-02 1.224380e-01 1.565945e-01 1.848332e-01 2.121110e-01 2.330766e-01 2.540633e-01 2.587079e-01 2.549608e-01 2.232077e-01 1.826996e-01 1.073196e-01 -8.561180e-02 -1.842478e-01 -4.412097e-15 1.842478e-01 8.561180e-02 -1.073196e-01 -1.826996e-01 -2.232077e-01 -2.549608e-01 -2.587079e-01 -2.540633e-01 -2.330766e-01 -2.121110e-01 -1.848332e-01 -1.565945e-01 -1.224380e-01 -8.413763e-02 -4.321664e-02 
-1.051682e-15 4.059511e-02 7.881855e-02 1.152399e-01 1.461249e-01 1.734689e-01 1.947003e-01 2.119399e-01 2.230772e-01 2.228414e-01 2.176909e-01 1.946401e-01 1.582863e-01 1.052205e-01 2.268463e-02 -1.036849e-01 -1.457825e-15 1.036849e-01 -2.268463e-02 -1.052205e-01 -1.582863e-01 -1.946401e-01 -2.176909e-01 -2.228414e-01 -2.230772e-01 -2.119399e-01 -1.947003e-01 -1.734689e-01 -1.461249e-01 -1.152399e-01 -7.881855e-02 -4.059511e-02 
