# vtk DataFile Version 2.0
Comment goes here
ASCII

DATASET STRUCTURED_POINTS
FIELD FieldData 1
TIME 1 1 double
0.02000000
DIMENSIONS    32   32   1

ORIGIN    0.000   0.000   0.000
SPACING   0.03125 0.03125   1.000

POINT_DATA   1024
SCALARS uX double
LOOKUP_TABLE default

-4.196980e-16 1.616490e-01 3.275853e-01 5.031436e-01 6.898240e-01 8.956205e-01 1.113263e+00 1.354492e+00 1.594444e+00 1.840539e+00 2.040654e+00 2.177927e+00 2.160741e+00 1.928356e+00 1.646150e+00 8.766285e-01 4.541540e-16 -8.766285e-01 -1.646150e+00 -1.928356e+00 -2.160741e+00 -2.177927e+00 -2.040654e+00 -1.840539e+00 -1.594444e+00 -1.354492e+00 -1.113263e+00 -8.956205e-01 -6.898240e-01 -5.031436e-01 -3.275853e-01 -1.616490e-01 
5.648751e-16 1.616297e-01 3.295128e-01 5.044672e-01 6.971833e-01 9.038888e-01 1.136172e+00 1.384600e+00 1.656905e+00 1.925062e+00 2.185352e+00 2.360211e+00 2.364826e+00 2.027819e+00 1.141882e+00 4.633936e-01 1.694124e-15 -4.633936e-01 -1.141882e+00 -2.027819e+00 -2.364826e+00 -2.360211e+00 -2.185352e+00 -1.925062e+00 -1.656905e+00 -1.384600e+00 -1.136172e+00 -9.038888e-01 -6.971833e-01 -5.044672e-01 -3.295128e-01 -1.616297e-01 
1.239954e-16 1.525446e-01 3.102370e-01 4.776387e-01 6.591960e-01 8.624270e-01 1.084453e+00 1.341096e+00 1.612358e+00 1.915914e+00 2.206537e+00 2.475347e+00 2.482913e+00 2.270739e+00 2.227674e+00 1.556736e+00 5.780170e-15 -1.556736e+00 -2.227674e+00 -2.270739e+00 -2.482913e+00 -2.475347e+00 -2.206537e+00 -1.915914e+00 -1.612358e+00 -1.341096e+00 -1.084453e+00 -8.624270e-01 -6.591960e-01 -4.776387e-01 -3.102370e-01 -1.525446e-01 
6.536816e-16 1.420818e-01 2.914096e-01 4.479910e-01 6.259983e-01 8.227954e-01 1.054664e+00 1.324880e+00 1.648560e+00 2.027992e+00 2.529315e+00 3.022146e+00 3.479981e+00 3.764057e+00 3.117051e+00 1.387452e+00 2.699357e-16 -1.387452e+00 -3.117051e+00 -3.764057e+00 -3.479981e+00 -3.022146e+00 -2.529315e+00 -2.027992e+00 -1.648560e+00 -1.324880e+00 -1.054664e+00 -8.227954e-01 -6.259983e-01 -4.479910e-01 -2.914096e-01 -1.420818e-01 
-2.765504e-16 1.234286e-01 2.541256e-01 3.924296e-01 5.521794e-01 7.353343e-01 9.530735e-01 1.231477e+00 1.564618e+00 2.020079e+00 2.674013e+00 3.041044e+00 2.567553e+00 1.031546e+00 -1.319486e+00 -1.497184e+00 -5.864149e-15 1.497184e+00 1.319486e+00 -1.031546e+00 -2.567553e+00 -3.041044e+00 -2.674013e+00 -2.020079e+00 -1.564618e+00 -1.231477e+00 -9.530735e-01 -7.353343e-01 -5.521794e-01 -3.924296e-01 -2.541256e-01 -1.234286e-01 
1.286693e-15 1.007941e-01 2.101180e-01 3.226641e-01 4.606913e-01 6.145587e-01 8.082099e-01 1.063358e+00 1.358394e+00 1.858933e+00 2.272386e+00 1.335831e+00 -8.800780e-01 -3.247007e+00 -3.216256e+00 -1.240737e+00 -1.448809e-15 1.240737e+00 3.216256e+00 3.247007e+00 8.800780e-01 -1.335831e+00 -2.272386e+00 -1.858933e+00 -1.358394e+00 -1.063358e+00 -8.082099e-01 -6.145587e-01 -4.606913e-01 -3.226641e-01 -2.101180e-01 -1.007941e-01 
7.324527e-17 7.218140e-02 1.540725e-01 2.334084e-01 3.421989e-01 4.553401e-01 6.108943e-01 8.267727e-01 1.029904e+00 1.550982e+00 9.345195e-01 -1.044264e+00 -3.115637e+00 -3.204071e+00 -1.076124e+00 -1.993386e-01 -9.981729e-16 1.993386e-01 1.076124e+00 3.204071e+00 3.115637e+00 1.044264e+00 -9.345195e-01 -1.550982e+00 -1.029904e+00 -8.267727e-01 -6.108943e-01 -4.553401e-01 -3.421989e-01 -2.334084e-01 -1.540725e-01 -7.218140e-02 
9.717885e-16 3.920074e-02 8.829779e-02 1.272751e-01 1.980370e-01 2.498969e-01 3.564541e-01 4.551912e-01 5.818843e-01 6.580869e-01 -9.278451e-01 -2.574085e+00 -3.605147e+00 -2.181248e+00 -6.196964e-01 -4.185210e-01 1.942993e-16 4.185210e-01 6.196964e-01 2.181248e+00 3.605147e+00 2.574085e+00 9.278451e-01 -6.580869e-01 -5.818843e-01 -4.551912e-01 -3.564541e-01 -2.498969e-01 -1.980370e-01 -1.272751e-01 -8.829779e-02 -3.920074e-02 
-3.828680e-16 4.088365e-03 2.001982e-02 1.380036e-02 5.161698e-02 2.694203e-02 1.140125e-01 3.259097e-02 2.090667e-01 -5.157240e-01 -1.890677e+00 -3.065036e+00 -2.796157e+00 -9.395690e-01 -5.408687e-01 -2.217850e-01 -3.879288e-15 2.217850e-01 5.408687e-01 9.395690e-01 2.796157e+00 3.065036e+00 1.890677e+00 5.157240e-01 -2.090667e-01 -3.259097e-02 -1.140125e-01 -2.694203e-02 -5.161698e-02 -1.380036e-02 -2.001982e-02 -4.088365e-03 
7.731381e-16 -3.209124e-02 -5.494647e-02 -1.029036e-01 -1.130742e-01 -1.999208e-01 -1.752214e-01 -3.816729e-01 -3.090022e-01 -1.426065e+00 -2.249011e+00 -2.909769e+00 -1.669006e+00 -3.161746e-01 -4.762064e-01 -1.516103e-01 -9.783686e-16 1.516103e-01 4.762064e-01 3.161746e-01 1.669006e+00 2.909769e+00 2.249011e+00 1.426065e+00 3.090022e-01 3.816729e-01 1.752214e-01 1.999208e-01 1.130742e-01 1.029036e-01 5.494647e-02 3.209124e-02 
-1.229216e-16 -6.550218e-02 -1.254984e-01 -2.093029e-01 -2.691004e-01 -3.988298e-01 -4.559951e-01 -7.089206e-01 -8.318048e-01 -1.811042e+00 -2.272562e+00 -2.134898e+00 -7.747769e-01 -2.100201e-01 -2.884366e-01 -8.867974e-02 -5.128916e-15 8.867974e-02 2.884366e-01 2.100201e-01 7.747769e-01 2.134898e+00 2.272562e+00 1.811042e+00 8.318048e-01 7.089206e-01 4.559951e-01 3.988298e-01 2.691004e-01 2.093029e-01 1.254984e-01 6.550218e-02 
7.653324e-17 -9.666711e-02 -1.950911e-01 -3.064352e-01 -4.204155e-01 -5.690540e-01 -7.137753e-01 -9.404105e-01 -1.219752e+00 -1.799782e+00 -2.065963e+00 -1.294396e+00 -2.530889e-01 -2.049549e-01 -1.459610e-01 -7.112690e-02 -1.978221e-15 7.112690e-02 1.459610e-01 2.049549e-01 2.530889e-01 1.294396e+00 2.065963e+00 1.799782e+00 1.219752e+00 9.404105e-01 7.137753e-01 5.690540e-01 4.204155e-01 3.064352e-01 1.950911e-01 9.666711e-02 
1.100915e-15 -1.221670e-01 -2.531871e-01 -3.860219e-01 -5.482969e-01 -7.104294e-01 -9.383117e-01 -1.145670e+00 -1.553468e+00 -1.750678e+00 -1.701568e+00 -6.089473e-01 8.033977e-02 -1.024791e-01 -1.397218e-02 -3.304067e-02 -2.242265e-15 3.304067e-02 1.397218e-02 1.024791e-01 -8.033977e-02 6.089473e-01 1.701568e+00 1.750678e+00 1.553468e+00 1.145670e+00 9.383117e-01 7.104294e-01 5.482969e-01 3.860219e-01 2.531871e-01 1.221670e-01 
-5.352075e-16 -1.447365e-01 -3.053616e-01 -4.568492e-01 -6.623502e-01 -8.403006e-01 -1.137478e+00 -1.355351e+00 -1.813557e+00 -1.724090e+00 -1.231963e+00 -1.555654e-01 2.485715e-01 1.245806e-02 6.654782e-02 -4.287943e-03 -1.911508e-15 4.287943e-03 -6.654782e-02 -1.245806e-02 -2.485715e-01 1.555654e-01 1.231963e+00 1.724090e+00 1.813557e+00 1.355351e+00 1.137478e+00 8.403006e-01 6.623502e-01 4.568492e-01 3.053616e-01 1.447365e-01 
2.088517e-15 -1.593059e-01 -3.391781e-01 -5.022957e-01 -7.345298e-01 -9.218637e-01 -1.252518e+00 -1.471458e+00 -1.877348e+00 -1.586620e+00 -7.608593e-01 1.167659e-01 3.139164e-01 1.061425e-01 1.167450e-01 2.349823e-02 3.128847e-15 -2.349823e-02 -1.167450e-01 -1.061425e-01 -3.139164e-01 -1.167659e-01 7.608593e-01 1.586620e+00 1.877348e+00 1.471458e+00 1.252518e+00 9.218637e-01 7.345298e-01 5.022957e-01 3.391781e-01 1.593059e-01 
-8.508512e-16 -1.702116e-01 -3.639391e-01 -5.362093e-01 -7.860699e-01 -9.818644e-01 -1.329025e+00 -1.550594e+00 -1.903432e+00 -1.520136e+00 -5.122711e-01 2.156280e-01 3.139412e-01 1.450507e-01 1.326383e-01 3.543744e-02 -2.036723e-15 -3.543744e-02 -1.326383e-01 -1.450507e-01 -3.139412e-01 -2.156280e-01 5.122711e-01 1.520136e+00 1.903432e+00 1.550594e+00 1.329025e+00 9.818644e-01 7.860699e-01 5.362093e-01 3.639391e-01 1.702116e-01 
2.300920e-15 -1.721848e-01 -3.687681e-01 -5.424567e-01 -7.963523e-01 -9.934618e-01 -1.344480e+00 -1.566268e+00 -1.901095e+00 -1.486362e+00 -4.194607e-01 2.620524e-01 3.229587e-01 1.670687e-01 1.427864e-01 4.295817e-02 4.574375e-15 -4.295817e-02 -1.427864e-01 -1.670687e-01 -3.229587e-01 -2.620524e-01 4.194607e-01 1.486362e+00 1.901095e+00 1.566268e+00 1.344480e+00 9.934618e-01 7.963523e-01 5.424567e-01 3.687681e-01 1.721848e-01 
-1.819202e-15 -1.702116e-01 -3.639391e-01 -5.362093e-01 -7.860699e-01 -9.818644e-01 -1.329025e+00 -1.550594e+00 -1.903432e+00 -1.520136e+00 -5.122711e-01 2.156280e-01 3.139412e-01 1.450507e-01 1.326383e-01 3.543744e-02 -8.377346e-16 -3.543744e-02 -1.326383e-01 -1.450507e-01 -3.139412e-01 -2.156280e-01 5.122711e-01 1.520136e+00 1.903432e+00 1.550594e+00 1.329025e+00 9.818644e-01 7.860699e-01 5.362093e-01 3.639391e-01 1.702116e-01 
1.750578e-15 -1.593059e-01 -3.391781e-01 -5.022957e-01 -7.345298e-01 -9.218637e-01 -1.252518e+00 -1.471458e+00 -1.877348e+00 -1.586620e+00 -7.608593e-01 1.167659e-01 3.139164e-01 1.061425e-01 1.167450e-01 2.349823e-02 3.281831e-15 -2.349823e-02 -1.167450e-01 -1.061425e-01 -3.139164e-01 -1.167659e-01 7.608593e-01 1.586620e+00 1.877348e+00 1.471458e+00 1.252518e+00 9.218637e-01 7.345298e-01 5.022957e-01 3.391781e-01 1.593059e-01 
-1.718751e-15 -1.447365e-01 -3.053616e-01 -4.568492e-01 -6.623502e-01 -8.403006e-01 -1.137478e+00 -1.355351e+00 -1.813557e+00 -1.724090e+00 -1.231963e+00 -1.555654e-01 2.485715e-01 1.245806e-02 6.654782e-02 -4.287943e-03 -1.913903e-15 4.287943e-03 -6.654782e-02 -1.245806e-02 -2.485715e-01 1.555654e-01 1.231963e+00 1.724090e+00 1.813557e+00 1.355351e+00 1.137478e+00 8.403006e-01 6.623502e-01 4.568492e-01 3.053616e-01 1.447365e-01 
8.525718e-16 -1.221670e-01 -2.531871e-01 -3.860219e-01 -5.482969e-01 -7.104294e-01 -9.383117e-01 -1.145670e+00 -1.553468e+00 -1.750678e+00 -1.701568e+00 -6.089473e-01 8.033977e-02 -1.024791e-01 -1.397218e-02 -3.304067e-02 4.514172e-17 3.304067e-02 1.397218e-02 1.024791e-01 -8.033977e-02 6.089473e-01 1.701568e+00 1.750678e+00 1.553468e+00 1.145670e+00 9.383117e-01 7.104294e-01 5.482969e-01 3.860219e-01 2.531871e-01 1.221670e-01 
-1.395026e-15 -9.666711e-02 -1.950911e-01 -3.064352e-01 -4.204155e-01 -5.690540e-01 -7.137753e-01 -9.404105e-01 -1.219752e+00 -1.799782e+00 -2.065963e+00 -1.294396e+00 -2.530889e-01 -2.049549e-01 -1.459610e-01 -7.112690e-02 -1.867515e-15 7.112690e-02 1.459610e-01 2.049549e-01 2.530889e-01 1.294396e+00 2.065963e+00 1.799782e+00 1.219752e+00 9.404105e-01 7.137753e-01 5.690540e-01 4.204155e-01 3.064352e-01 1.950911e-01 9.666711e-02 
-9.699154e-16 -6.550218e-02 -1.254984e-01 -2.093029e-01 -2.691004e-01 -3.988298e-01 -4.559951e-01 -7.089206e-01 -8.318048e-01 -1.811042e+00 -2.272562e+00 -2.134898e+00 -7.747769e-01 -2.100201e-01 -2.884366e-01 -8.867974e-02 -6.607217e-16 8.867974e-02 2.884366e-01 2.100201e-01 7.747769e-01 2.134898e+00 2.272562e+00 1.811042e+00 8.318048e-01 7.089206e-01 4.559951e-01 3.988298e-01 2.691004e-01 2.093029e-01 1.254984e-01 6.550218e-02 
-5.296856e-16 -3.209124e-02 -5.494647e-02 -1.029036e-01 -1.130742e-01 -1.999208e-01 -1.752214e-01 -3.816729e-01 -3.090022e-01 -1.426065e+00 -2.249011e+00 -2.909769e+00 -1.669006e+00 -3.161746e-01 -4.762064e-01 -1.516103e-01 5.369136e-15 1.516103e-01 4.762064e-01 3.161746e-01 1.669006e+00 2.909769e+00 2.249011e+00 1.426065e+00 3.090022e-01 3.816729e-01 1.752214e-01 1.999208e-01 1.130742e-01 1.029036e-01 5.494647e-02 3.209124e-02 
-2.134847e-15 4.088365e-03 2.001982e-02 1.380036e-02 5.161698e-02 2.694203e-02 1.140125e-01 3.259097e-02 2.090667e-01 -5.157240e-01 -1.890677e+00 -3.065036e+00 -2.796157e+00 -9.395690e-01 -5.408687e-01 -2.217850e-01 6.310852e-16 2.217850e-01 5.408687e-01 9.395690e-01 2.796157e+00 3.065036e+00 1.890677e+00 5.157240e-01 -2.090667e-01 -3.259097e-02 -1.140125e-01 -2.694203e-02 -5.161698e-02 -1.380036e-02 -2.001982e-02 -4.088365e-03 
-3.503547e-16 3.920074e-02 8.829779e-02 1.272751e-01 1.980370e-01 2.498969e-01 3.564541e-01 4.551912e-01 5.818843e-01 6.580869e-01 -9.278451e-01 -2.574085e+00 -3.605147e+00 -2.181248e+00 -6.196964e-01 -4.185210e-01 7.443227e-15 4.185210e-01 6.196964e-01 2.181248e+00 3.605147e+00 2.574085e+00 9.278451e-01 -6.580869e-01 -5.818843e-01 -4.551912e-01 -3.564541e-01 -2.498969e-01 -1.980370e-01 -1.272751e-01 -8.829779e-02 -3.920074e-02 
-2.250024e-15 7.218140e-02 1.540725e-01 2.334084e-01 3.421989e-01 4.553401e-01 6.108943e-01 8.267727e-01 1.029904e+00 1.550982e+00 9.345195e-01 -1.044264e+00 -3.115637e+00 -3.204071e+00 -1.076124e+00 -1.993386e-01 9.563907e-16 1.993386e-01 1.076124e+00 3.204071e+00 3.115637e+00 1.044264e+00 -9.345195e-01 -1.550982e+00 -1.029904e+00 -8.267727e-01 -6.108943e-01 -4.553401e-01 -3.421989e-01 -2.334084e-01 -1.540725e-01 -7.218140e-02 
1.992304e-16 1.007941e-01 2.101180e-01 3.226641e-01 4.606913e-01 6.145587e-01 8.082099e-01 1.063358e+00 1.358394e+00 1.858933e+00 2.272386e+00 1.335831e+00 -8.800780e-01 -3.247007e+00 -3.216256e+00 -1.240737e+00 9.721087e-15 1.240737e+00 3.216256e+00 3.247007e+00 8.800780e-01 -1.335831e+00 -2.272386e+00 -1.858933e+00 -1.358394e+00 -1.063358e+00 -8.082099e-01 -6.145587e-01 -4.606913e-01 -3.226641e-01 -2.101180e-01 -1.007941e-01 
-1.587834e-15 1.234286e-01 2.541256e-01 3.924296e-01 5.521794e-01 7.353343e-01 9.530735e-01 1.231477e+00 1.564618e+00 2.020079e+00 2.674013e+00 3.041044e+00 2.567553e+00 1.031546e+00 -1.319486e+00 -1.497184e+00 4.894357e-15 1.497184e+00 1.319486e+00 -1.031546e+00 -2.567553e+00 -3.041044e+00 -2.674013e+00 -2.020079e+00 -1.564618e+00 -1.231477e+00 -9.530735e-01 -7.353343e-01 -5.521794e-01 -3.924296e-01 -2.541256e-01 -1.234286e-01 
4.633879e-16 1.420818e-01 2.914096e-01 4.479910e-01 6.259983e-01 8.227954e-01 1.054664e+00 1.324880e+00 1.648560e+00 2.027992e+00 2.529315e+00 3.022146e+00 3.479981e+00 3.764057e+00 3.117051e+00 1.387452e+00 -9.990230e-15 -1.387452e+00 -3.117051e+00 -3.764057e+00 -3.479981e+00 -3.022146e+00 -2.529315e+00 -2.027992e+00 -1.648560e+00 -1.324880e+00 -1.054664e+00 -8.227954e-01 -6.259983e-01 -4.479910e-01 -2.914096e-01 -1.420818e-01 
-1.312406e-15 1.525446e-01 3.102370e-01 4.776387e-01 6.591960e-01 8.624270e-01 1.084453e+00 1.341096e+00 1.612358e+00 1.915914e+00 2.206537e+00 2.475347e+00 2.482913e+00 2.270739e+00 2.227674e+00 1.556736e+00 -6.139161e-15 -1.556736e+00 -2.227674e+00 -2.270739e+00 -2.482913e+00 -2.475347e+00 -2.206537e+00 -1.915914e+00 -1.612358e+00 -1.341096e+00 -1.084453e+00 -8.624270e-01 -6.591960e-01 -4.776387e-01 -3.102370e-01 -1.525446e-01 
9.756926e-16 1.616297e-01 3.295128e-01 5.044672e-01 6.971833e-01 9.038888e-01 1.136172e+00 1.384600e+00 1.656905e+00 1.925062e+00 2.185352e+00 2.360211e+00 2.364826e+00 2.027819e+00 1.141882e+00 4.633936e-01 -2.962855e-15 -4.633936e-01 -1.141882e+00 -2.027819e+00 -2.364826e+00 -2.360211e+00 -2.185352e+00 -1.925062e+00 -1.656905e+00 -1.384600e+00 -1.136172e+00 -9.038888e-01 -6.971833e-01 -5.044672e-01 -3.295128e-01 -1.616297e-01 
