# vtk DataFile Version 2.0
Comment goes here
ASCII

DATASET STRUCTURED_POINTS
FIELD FieldData 1
TIME 1 1 double
0.74000000
DIMENSIONS    32   32   1

ORIGIN    0.000   0.000   0.000
SPACING   0.03125 0.03125   1.000

POINT_DATA   1024
SCALARS uY double
LOOKUP_TABLE default

-3.266207e-15 -5.495503e-15 -8.011816e-15 -5.494405e-15 -9.717505e-15 -2.969092e-15 -9.741588e-15 -1.282746e-15 -1.119705e-14 -4.219225e-15 -9.837793e-15 2.199346e-15 8.262089e-15 1.414734e-14 1.731164e-14 7.084297e-15 -1.325908e-14 -2.145757e-14 -1.942307e-14 -1.261646e-14 -5.493929e-15 5.728057e-15 1.382025e-14 1.110552e-14 1.511612e-14 4.105481e-15 1.078733e-14 4.390389e-16 7.318745e-15 -1.594622e-15 2.568778e-15 -3.790270e-15 
2.288830e-02 2.742618e-02 4.263206e-02 6.515599e-02 9.298464e-02 1.268881e-01 1.587890e-01 1.924130e-01 2.078452e-01 2.095135e-01 1.733263e-01 1.092326e-01 2.561293e-03 -1.451579e-01 -3.367737e-01 -5.854714e-01 -7.056179e-01 -5.854714e-01 -3.367737e-01 -1.451579e-01 2.561293e-03 1.092326e-01 1.733263e-01 2.095135e-01 2.078452e-01 1.924130e-01 1.587890e-01 1.268881e-01 9.298464e-02 6.515599e-02 4.263206e-02 2.742618e-02 
3.602462e-02 4.489550e-02 7.586021e-02 1.197040e-01 1.729283e-01 2.351444e-01 2.916119e-01 3.504220e-01 3.747891e-01 3.764466e-01 3.104854e-01 1.988795e-01 1.420602e-02 -2.417489e-01 -5.996621e-01 -1.083743e+00 -1.316462e+00 -1.083743e+00 -5.996621e-01 -2.417489e-01 1.420602e-02 1.988795e-01 3.104854e-01 3.764466e-01 3.747891e-01 3.504220e-01 2.916119e-01 2.351444e-01 1.729283e-01 1.197040e-01 7.586021e-02 4.489550e-02 
3.277748e-02 4.705283e-02 9.654999e-02 1.638704e-01 2.425822e-01 3.298914e-01 4.040647e-01 4.812585e-01 5.071016e-01 5.123624e-01 4.244623e-01 2.900332e-01 4.617200e-02 -3.084587e-01 -8.248362e-01 -1.516010e+00 -1.824971e+00 -1.516010e+00 -8.248362e-01 -3.084587e-01 4.617200e-02 2.900332e-01 4.244623e-01 5.123624e-01 5.071016e-01 4.812585e-01 4.040647e-01 3.298914e-01 2.425822e-01 1.638704e-01 9.654999e-02 4.705283e-02 
2.845937e-03 2.283482e-02 9.533705e-02 1.873756e-01 2.918356e-01 3.977865e-01 4.796712e-01 5.599325e-01 5.685140e-01 5.575264e-01 4.303494e-01 2.695163e-01 1.713413e-02 -3.234498e-01 -9.052850e-01 -1.671522e+00 -1.957959e+00 -1.671522e+00 -9.052850e-01 -3.234498e-01 1.713413e-02 2.695163e-01 4.303494e-01 5.575264e-01 5.685140e-01 5.599325e-01 4.796712e-01 3.977865e-01 2.918356e-01 1.873756e-01 9.533705e-02 2.283482e-02 
-5.896714e-02 -2.993468e-02 7.448966e-02 2.013309e-01 3.408701e-01 4.704280e-01 5.613502e-01 6.439342e-01 6.275439e-01 6.064701e-01 4.462086e-01 3.021842e-01 2.524459e-02 -4.034613e-01 -1.076853e+00 -1.790951e+00 -1.938740e+00 -1.790951e+00 -1.076853e+00 -4.034613e-01 2.524459e-02 3.021842e-01 4.462086e-01 6.064701e-01 6.275439e-01 6.439342e-01 5.613502e-01 4.704280e-01 3.408701e-01 2.013309e-01 7.448966e-02 -2.993468e-02 
-1.563598e-01 -1.171513e-01 2.868843e-02 1.969038e-01 3.810087e-01 5.368644e-01 6.401243e-01 7.242013e-01 6.717688e-01 6.099626e-01 3.162340e-01 3.380168e-02 -2.442923e-01 -5.323140e-01 -1.034998e+00 -1.452268e+00 -1.360707e+00 -1.452268e+00 -1.034998e+00 -5.323140e-01 -2.442923e-01 3.380168e-02 3.162340e-01 6.099626e-01 6.717688e-01 7.242013e-01 6.401243e-01 5.368644e-01 3.810087e-01 1.969038e-01 2.868843e-02 -1.171513e-01 
-2.937191e-01 -2.394255e-01 -4.002106e-02 1.856678e-01 4.340240e-01 6.301055e-01 7.626529e-01 8.540474e-01 7.527788e-01 6.584519e-01 3.213633e-01 1.981669e-01 -1.707163e-01 -8.540434e-01 -1.351157e+00 -1.432970e+00 -1.124129e+00 -1.432970e+00 -1.351157e+00 -8.540434e-01 -1.707163e-01 1.981669e-01 3.213633e-01 6.584519e-01 7.527788e-01 8.540474e-01 7.626529e-01 6.301055e-01 4.340240e-01 1.856678e-01 -4.002106e-02 -2.394255e-01 
-4.532025e-01 -3.838119e-01 -1.243326e-01 1.605852e-01 4.848902e-01 7.267609e-01 9.131244e-01 1.061559e+00 1.007803e+00 9.100984e-01 1.255978e-01 -8.239057e-01 -1.347670e+00 -1.091301e+00 -6.180735e-01 -5.599843e-01 -4.294773e-01 -5.599843e-01 -6.180735e-01 -1.091301e+00 -1.347670e+00 -8.239057e-01 1.255978e-01 9.100984e-01 1.007803e+00 1.061559e+00 9.131244e-01 7.267609e-01 4.848902e-01 1.605852e-01 -1.243326e-01 -3.838119e-01 
-6.438565e-01 -5.537593e-01 -2.285692e-01 1.279001e-01 5.501250e-01 8.568618e-01 1.158960e+00 1.361603e+00 1.134381e+00 3.369820e-01 -6.243562e-01 -7.451930e-01 -4.664552e-01 -4.183510e-01 -7.136184e-01 -9.660439e-01 -9.770780e-01 -9.660439e-01 -7.136184e-01 -4.183510e-01 -4.664552e-01 -7.451930e-01 -6.243562e-01 3.369820e-01 1.134381e+00 1.361603e+00 1.158960e+00 8.568618e-01 5.501250e-01 1.279001e-01 -2.285692e-01 -5.537593e-01 
-8.143324e-01 -7.045169e-01 -3.221850e-01 8.450481e-02 5.933457e-01 9.203415e-01 1.326387e+00 1.665892e+00 1.122626e+00 -4.973394e-02 -3.807564e-01 -1.696966e-01 -4.860479e-01 -7.829730e-01 -1.033444e+00 -9.638180e-01 -8.255182e-01 -9.638180e-01 -1.033444e+00 -7.829730e-01 -4.860479e-01 -1.696966e-01 -3.807564e-01 -4.973394e-02 1.122626e+00 1.665892e+00 1.326387e+00 9.203415e-01 5.933457e-01 8.450481e-02 -3.221850e-01 -7.045169e-01 
-9.940279e-01 -8.612210e-01 -4.403259e-01 1.471520e-02 6.053367e-01 9.935778e-01 1.773303e+00 2.274878e+00 7.288354e-01 -5.381454e-01 -5.284507e-01 -9.663268e-01 -1.228431e+00 -8.220975e-01 -4.545629e-01 -9.538040e-02 8.262006e-02 -9.538040e-02 -4.545629e-01 -8.220975e-01 -1.228431e+00 -9.663268e-01 -5.284507e-01 -5.381454e-01 7.288354e-01 2.274878e+00 1.773303e+00 9.935778e-01 6.053367e-01 1.471520e-02 -4.403259e-01 -8.612210e-01 
-1.067971e+00 -9.147909e-01 -4.945487e-01 -2.518353e-02 6.304235e-01 1.008030e+00 2.437269e+00 2.148769e+00 -6.520728e-01 -9.903825e-01 -4.889547e-01 -5.519812e-01 -3.580423e-01 -3.890336e-01 -4.425625e-01 -2.854267e-01 -1.950520e-01 -2.854267e-01 -4.425625e-01 -3.890336e-01 -3.580423e-01 -5.519812e-01 -4.889547e-01 -9.903825e-01 -6.520728e-01 2.148769e+00 2.437269e+00 1.008030e+00 6.304235e-01 -2.518353e-02 -4.945487e-01 -9.147909e-01 
-1.091505e+00 -9.346011e-01 -5.876169e-01 -1.286603e-01 3.747313e-01 1.126881e+00 3.121813e+00 1.156744e+00 -1.527486e+00 -3.601565e-01 5.608478e-02 -2.821116e-01 -5.474401e-01 -4.577574e-01 -3.274481e-01 -1.203391e-01 -3.377106e-02 -1.203391e-01 -3.274481e-01 -4.577574e-01 -5.474401e-01 -2.821116e-01 5.608478e-02 -3.601565e-01 -1.527486e+00 1.156744e+00 3.121813e+00 1.126881e+00 3.747313e-01 -1.286603e-01 -5.876169e-01 -9.346011e-01 
-8.778703e-01 -7.147020e-01 -4.974094e-01 -2.190491e-02 1.616702e-01 1.476478e+00 2.529492e+00 -6.153787e-01 -1.185796e+00 4.477276e-01 1.076569e-01 -1.139492e-01 -3.340963e-01 -2.898407e-01 -2.733373e-01 -1.684299e-01 -1.384887e-01 -1.684299e-01 -2.733373e-01 -2.898407e-01 -3.340963e-01 -1.139492e-01 1.076569e-01 4.477276e-01 -1.185796e+00 -6.153787e-01 2.529492e+00 1.476478e+00 1.616702e-01 -2.190491e-02 -4.974094e-01 -7.147020e-01 
-5.291298e-01 -4.341596e-01 -3.318646e-01 -5.711531e-02 -3.471502e-02 1.082897e+00 1.352923e+00 -6.741106e-01 -3.067921e-01 4.477370e-01 3.604141e-02 -7.999083e-02 -2.574728e-01 -2.012283e-01 -1.618074e-01 -8.402963e-02 -6.349577e-02 -8.402963e-02 -1.618074e-01 -2.012283e-01 -2.574728e-01 -7.999083e-02 3.604141e-02 4.477370e-01 -3.067921e-01 -6.741106e-01 1.352923e+00 1.082897e+00 -3.471502e-02 -5.711531e-02 -3.318646e-01 -4.341596e-01 
2.612856e-14 3.851278e-14 3.316234e-14 3.016571e-14 1.020780e-14 -3.211773e-14 -9.845417e-15 8.093242e-14 -3.306441e-14 -5.353870e-14 -8.296295e-14 -3.799378e-14 -3.886340e-14 -4.457435e-15 -2.040349e-14 -3.583092e-15 -9.677284e-15 -1.763040e-14 -3.200436e-15 -2.606551e-14 -1.027573e-14 7.350884e-15 7.479263e-14 1.031252e-13 1.184229e-13 5.097346e-15 8.662267e-15 -7.164181e-14 -6.588723e-14 -4.839714e-14 -1.195927e-14 1.613051e-14 
5.291298e-01 4.341596e-01 3.318646e-01 5.711531e-02 3.471502e-02 -1.082897e+00 -1.352923e+00 6.741106e-01 3.067921e-01 -4.477370e-01 -3.604141e-02 7.999083e-02 2.574728e-01 2.012283e-01 1.618074e-01 8.402963e-02 6.349577e-02 8.402963e-02 1.618074e-01 2.012283e-01 2.574728e-01 7.999083e-02 -3.604141e-02 -4.477370e-01 3.067921e-01 6.741106e-01 -1.352923e+00 -1.082897e+00 3.471502e-02 5.711531e-02 3.318646e-01 4.341596e-01 
8.778703e-01 7.147020e-01 4.974094e-01 2.190491e-02 -1.616702e-01 -1.476478e+00 -2.529492e+00 6.153787e-01 1.185796e+00 -4.477276e-01 -1.076569e-01 1.139492e-01 3.340963e-01 2.898407e-01 2.733373e-01 1.684299e-01 1.384887e-01 1.684299e-01 2.733373e-01 2.898407e-01 3.340963e-01 1.139492e-01 -1.076569e-01 -4.477276e-01 1.185796e+00 6.153787e-01 -2.529492e+00 -1.476478e+00 -1.616702e-01 2.190491e-02 4.974094e-01 7.147020e-01 
1.091505e+00 9.346011e-01 5.876169e-01 1.286603e-01 -3.747313e-01 -1.126881e+00 -3.121813e+00 -1.156744e+00 1.527486e+00 3.601565e-01 -5.608478e-02 2.821116e-01 5.474401e-01 4.577574e-01 3.274481e-01 1.203391e-01 3.377106e-02 1.203391e-01 3.274481e-01 4.577574e-01 5.474401e-01 2.821116e-01 -5.608478e-02 3.601565e-01 1.527486e+00 -1.156744e+00 -3.121813e+00 -1.126881e+00 -3.747313e-01 1.286603e-01 5.876169e-01 9.346011e-01 
1.067971e+00 9.147909e-01 4.945487e-01 2.518353e-02 -6.304235e-01 -1.008030e+00 -2.437269e+00 -2.148769e+00 6.520728e-01 9.903825e-01 4.889547e-01 5.519812e-01 3.580423e-01 3.890336e-01 4.425625e-01 2.854267e-01 1.950520e-01 2.854267e-01 4.425625e-01 3.890336e-01 3.580423e-01 5.519812e-01 4.889547e-01 9.903825e-01 6.520728e-01 -2.148769e+00 -2.437269e+00 -1.008030e+00 -6.304235e-01 2.518353e-02 4.945487e-01 9.147909e-01 
9.940279e-01 8.612210e-01 4.403259e-01 -1.471520e-02 -6.053367e-01 -9.935778e-01 -1.773303e+00 -2.274878e+00 -7.288354e-01 5.381454e-01 5.284507e-01 9.663268e-01 1.228431e+00 8.220975e-01 4.545629e-01 9.538040e-02 -8.262006e-02 9.538040e-02 4.545629e-01 8.220975e-01 1.228431e+00 9.663268e-01 5.284507e-01 5.381454e-01 -7.288354e-01 -2.274878e+00 -1.773303e+00 -9.935778e-01 -6.053367e-01 -1.471520e-02 4.403259e-01 8.612210e-01 
8.143324e-01 7.045169e-01 3.221850e-01 -8.450481e-02 -5.933457e-01 -9.203415e-01 -1.326387e+00 -1.665892e+00 -1.122626e+00 4.973394e-02 3.807564e-01 1.696966e-01 4.860479e-01 7.829730e-01 1.033444e+00 9.638180e-01 8.255182e-01 9.638180e-01 1.033444e+00 7.829730e-01 4.860479e-01 1.696966e-01 3.807564e-01 4.973394e-02 -1.122626e+00 -1.665892e+00 -1.326387e+00 -9.203415e-01 -5.933457e-01 -8.450481e-02 3.221850e-01 7.045169e-01 
6.438565e-01 5.537593e-01 2.285692e-01 -1.279001e-01 -5.501250e-01 -8.568618e-01 -1.158960e+00 -1.361603e+00 -1.134381e+00 -3.369820e-01 6.243562e-01 7.451930e-01 4.664552e-01 4.183510e-01 7.136184e-01 9.660439e-01 9.770780e-01 9.660439e-01 7.136184e-01 4.183510e-01 4.664552e-01 7.451930e-01 6.243562e-01 -3.369820e-01 -1.134381e+00 -1.361603e+00 -1.158960e+00 -8.568618e-01 -5.501250e-01 -1.279001e-01 2.285692e-01 5.537593e-01 
4.532025e-01 3.838119e-01 1.243326e-01 -1.605852e-01 -4.848902e-01 -7.267609e-01 -9.131244e-01 -1.061559e+00 -1.007803e+00 -9.100984e-01 -1.255978e-01 8.239057e-01 1.347670e+00 1.091301e+00 6.180735e-01 5.599843e-01 4.294773e-01 5.599843e-01 6.180735e-01 1.091301e+00 1.347670e+00 8.239057e-01 -1.255978e-01 -9.100984e-01 -1.007803e+00 -1.061559e+00 -9.131244e-01 -7.267609e-01 -4.848902e-01 -1.605852e-01 1.243326e-01 3.838119e-01 
2.937191e-01 2.394255e-01 4.002106e-02 -1.856678e-01 -4.340240e-01 -6.301055e-01 -7.626529e-01 -8.540474e-01 -7.527788e-01 -6.584519e-01 -3.213633e-01 -1.981669e-01 1.707163e-01 8.540434e-01 1.351157e+00 1.432970e+00 1.124129e+00 1.432970e+00 1.351157e+00 8.540434e-01 1.707163e-01 -1.981669e-01 -3.213633e-01 -6.584519e-01 -7.527788e-01 -8.540474e-01 -7.626529e-01 -6.301055e-01 -4.340240e-01 -1.856678e-01 4.002106e-02 2.394255e-01 
1.563598e-01 1.171513e-01 -2.868843e-02 -1.969038e-01 -3.810087e-01 -5.368644e-01 -6.401243e-01 -7.242013e-01 -6.717688e-01 -6.099626e-01 -3.162340e-01 -3.380168e-02 2.442923e-01 5.323140e-01 1.034998e+00 1.452268e+00 1.360707e+00 1.452268e+00 1.034998e+00 5.323140e-01 2.442923e-01 -3.380168e-02 -3.162340e-01 -6.099626e-01 -6.717688e-01 -7.242013e-01 -6.401243e-01 -5.368644e-01 -3.810087e-01 -1.969038e-01 -2.868843e-02 1.171513e-01 
5.896714e-02 2.993468e-02 -7.448966e-02 -2.013309e-01 -3.408701e-01 -4.704280e-01 -5.613502e-01 -6.439342e-01 -6.275439e-01 -6.064701e-01 -4.462086e-01 -3.021842e-01 -2.524459e-02 4.034613e-01 1.076853e+00 1.790951e+00 1.938740e+00 1.790951e+00 1.076853e+00 4.034613e-01 -2.524459e-02 -3.021842e-01 -4.462086e-01 -6.064701e-01 -6.275439e-01 -6.439342e-01 -5.613502e-01 -4.704280e-01 -3.408701e-01 -2.013309e-01 -7.448966e-02 2.993468e-02 
-2.845937e-03 -2.283482e-02 -9.533705e-02 -1.873756e-01 -2.918356e-01 -3.977865e-01 -4.796712e-01 -5.599325e-01 -5.685140e-01 -5.575264e-01 -4.303494e-01 -2.695163e-01 -1.713413e-02 3.234498e-01 9.052850e-01 1.671522e+00 1.957959e+00 1.671522e+00 9.052850e-01 3.234498e-01 -1.713413e-02 -2.695163e-01 -4.303494e-01 -5.575264e-01 -5.685140e-01 -5.599325e-01 -4.796712e-01 -3.977865e-01 -2.918356e-01 -1.873756e-01 -9.533705e-02 -2.283482e-02 
-3.277748e-02 -4.705283e-02 -9.654999e-02 -1.638704e-01 -2.425822e-01 -3.298914e-01 -4.040647e-01 -4.812585e-01 -5.071016e-01 -5.123624e-01 -4.244623e-01 -2.900332e-01 -4.617200e-02 3.084587e-01 8.248362e-01 1.516010e+00 1.824971e+00 1.516010e+00 8.248362e-01 3.084587e-01 -4.617200e-02 -2.900332e-01 -4.244623e-01 -5.123624e-01 -5.071016e-01 -4.812585e-01 -4.040647e-01 -3.298914e-01 -2.425822e-01 -1.638704e-01 -9.654999e-02 -4.705283e-02 
-3.602462e-02 -4.489550e-02 -7.586021e-02 -1.197040e-01 -1.729283e-01 -2.351444e-01 -2.916119e-01 -3.504220e-01 -3.747891e-01 -3.764466e-01 -3.104854e-01 -1.988795e-01 -1.420602e-02 2.417489e-01 5.996621e-01 1.083743e+00 1.316462e+00 1.083743e+00 5.996621e-01 2.417489e-01 -1.420602e-02 -1.988795e-01 -3.104854e-01 -3.764466e-01 -3.747891e-01 -3.504220e-01 -2.916119e-01 -2.351444e-01 -1.729283e-01 -1.197040e-01 -7.586021e-02 -4.489550e-02 
-2.288830e-02 -2.742618e-02 -4.263206e-02 -6.515599e-02 -9.298464e-02 -1.268881e-01 -1.587890e-01 -1.924130e-01 -2.078452e-01 -2.095135e-01 -1.733263e-01 -1.092326e-01 -2.561293e-03 1.451579e-01 3.367737e-01 5.854714e-01 7.056179e-01 5.854714e-01 3.367737e-01 1.451579e-01 -2.561293e-03 -1.092326e-01 -1.733263e-01 -2.095135e-01 -2.078452e-01 -1.924130e-01 -1.587890e-01 -1.268881e-01 -9.298464e-02 -6.515599e-02 -4.263206e-02 -2.742618e-02 
