# vtk DataFile Version 2.0
Comment goes here
ASCII

DATASET STRUCTURED_POINTS
FIELD FieldData 1
TIME 1 1 double
0.90000000
DIMENSIONS    32   32   1

ORIGIN    0.000   0.000   0.000
SPACING   0.03125 0.03125   1.000

POINT_DATA   1024
SCALARS uY double
LOOKUP_TABLE default

-2.164250e-15 -6.475502e-15 -6.293200e-15 -5.087519e-15 -5.837779e-15 -5.615255e-16 -4.450676e-15 6.475092e-16 -3.851005e-15 2.553805e-15 -7.753676e-16 3.336579e-15 3.123420e-15 6.971628e-15 7.976866e-15 2.908532e-14 1.348114e-14 6.720078e-15 -1.124970e-14 -7.603846e-15 -8.551228e-15 -3.092866e-15 5.501107e-15 -1.313871e-17 9.279449e-15 -2.448453e-15 6.565764e-15 -4.502057e-15 5.442996e-15 -4.483425e-15 3.127726e-15 -4.805248e-15 
2.246613e-02 2.787503e-02 4.888198e-02 7.711541e-02 1.144821e-01 1.522724e-01 1.898687e-01 2.152831e-01 2.259586e-01 2.087136e-01 1.642828e-01 8.502844e-02 -2.912402e-02 -1.786413e-01 -3.728322e-01 -5.876466e-01 -7.055020e-01 -5.876466e-01 -3.728322e-01 -1.786413e-01 -2.912402e-02 8.502844e-02 1.642828e-01 2.087136e-01 2.259586e-01 2.152831e-01 1.898687e-01 1.522724e-01 1.144821e-01 7.711541e-02 4.888198e-02 2.787503e-02 
3.247858e-02 4.339891e-02 8.564080e-02 1.410342e-01 2.129922e-01 2.835465e-01 3.528827e-01 3.979052e-01 4.156680e-01 3.815949e-01 2.994867e-01 1.559101e-01 -4.821686e-02 -3.147935e-01 -6.777728e-01 -1.088596e+00 -1.313840e+00 -1.088596e+00 -6.777728e-01 -3.147935e-01 -4.821686e-02 1.559101e-01 2.994867e-01 3.815949e-01 4.156680e-01 3.979052e-01 3.528827e-01 2.835465e-01 2.129922e-01 1.410342e-01 8.564080e-02 4.339891e-02 
1.931394e-02 3.672366e-02 1.019081e-01 1.858175e-01 2.905226e-01 3.905319e-01 4.860469e-01 5.467412e-01 5.714310e-01 5.231188e-01 4.175103e-01 2.288437e-01 -4.337702e-02 -4.019329e-01 -9.274210e-01 -1.509844e+00 -1.812556e+00 -1.509844e+00 -9.274210e-01 -4.019329e-01 -4.337702e-02 2.288437e-01 4.175103e-01 5.231188e-01 5.714310e-01 5.467412e-01 4.860469e-01 3.905319e-01 2.905226e-01 1.858175e-01 1.019081e-01 3.672366e-02 
-2.589825e-02 -6.888172e-04 9.126072e-02 2.060408e-01 3.430386e-01 4.662846e-01 5.784365e-01 6.419727e-01 6.615000e-01 5.881692e-01 4.522416e-01 2.208738e-01 -8.517463e-02 -4.521539e-01 -1.036695e+00 -1.670498e+00 -1.983317e+00 -1.670498e+00 -1.036695e+00 -4.521539e-01 -8.517463e-02 2.208738e-01 4.522416e-01 5.881692e-01 6.615000e-01 6.419727e-01 5.784365e-01 4.662846e-01 3.430386e-01 2.060408e-01 9.126072e-02 -6.888172e-04 
-1.090288e-01 -7.368969e-02 5.131932e-02 2.051483e-01 3.791750e-01 5.308886e-01 6.585869e-01 7.271327e-01 7.452942e-01 6.470282e-01 5.090662e-01 2.556563e-01 -8.633761e-02 -4.930407e-01 -1.174399e+00 -1.799124e+00 -2.056382e+00 -1.799124e+00 -1.174399e+00 -4.930407e-01 -8.633761e-02 2.556563e-01 5.090662e-01 6.470282e-01 7.452942e-01 7.271327e-01 6.585869e-01 5.308886e-01 3.791750e-01 2.051483e-01 5.131932e-02 -7.368969e-02 
-2.301695e-01 -1.821687e-01 -1.612121e-02 1.857320e-01 4.060180e-01 5.901034e-01 7.348748e-01 8.025214e-01 8.089334e-01 6.644255e-01 4.721727e-01 9.719396e-02 -3.294276e-01 -6.538944e-01 -1.135168e+00 -1.503913e+00 -1.652394e+00 -1.503913e+00 -1.135168e+00 -6.538944e-01 -3.294276e-01 9.719396e-02 4.721727e-01 6.644255e-01 8.089334e-01 8.025214e-01 7.348748e-01 5.901034e-01 4.060180e-01 1.857320e-01 -1.612121e-02 -1.821687e-01 
-3.852409e-01 -3.238206e-01 -1.097426e-01 1.491768e-01 4.232574e-01 6.558846e-01 8.222117e-01 9.124407e-01 9.125893e-01 6.989226e-01 5.442333e-01 1.886322e-01 -2.952774e-01 -7.712996e-01 -1.321999e+00 -1.509937e+00 -1.565304e+00 -1.509937e+00 -1.321999e+00 -7.712996e-01 -2.952774e-01 1.886322e-01 5.442333e-01 6.989226e-01 9.125893e-01 9.124407e-01 8.222117e-01 6.558846e-01 4.232574e-01 1.491768e-01 -1.097426e-01 -3.238206e-01 
-5.628452e-01 -4.857306e-01 -2.173921e-01 1.066865e-01 4.477608e-01 7.407232e-01 9.488939e-01 1.076581e+00 1.110776e+00 8.854474e-01 4.936524e-01 -4.660214e-01 -1.352377e+00 -1.337113e+00 -8.703120e-01 -5.205731e-01 -5.591590e-01 -5.205731e-01 -8.703120e-01 -1.337113e+00 -1.352377e+00 -4.660214e-01 4.936524e-01 8.854474e-01 1.110776e+00 1.076581e+00 9.488939e-01 7.407232e-01 4.477608e-01 1.066865e-01 -2.173921e-01 -4.857306e-01 
-7.459875e-01 -6.578855e-01 -3.326234e-01 5.009625e-02 4.552109e-01 8.214647e-01 1.069364e+00 1.343985e+00 1.355254e+00 7.120836e-01 -4.271229e-01 -1.008576e+00 -6.489942e-01 -2.980399e-01 -5.214756e-01 -9.631284e-01 -1.153240e+00 -9.631284e-01 -5.214756e-01 -2.980399e-01 -6.489942e-01 -1.008576e+00 -4.271229e-01 7.120836e-01 1.355254e+00 1.343985e+00 1.069364e+00 8.214647e-01 4.552109e-01 5.009625e-02 -3.326234e-01 -6.578855e-01 
-9.232840e-01 -8.215061e-01 -4.423875e-01 -3.690830e-03 4.725477e-01 9.208242e-01 1.237627e+00 1.610438e+00 1.555696e+00 4.718494e-01 -4.695207e-01 -2.937481e-01 -3.054728e-01 -6.575690e-01 -9.934407e-01 -1.226597e+00 -1.186815e+00 -1.226597e+00 -9.934407e-01 -6.575690e-01 -3.054728e-01 -2.937481e-01 -4.695207e-01 4.718494e-01 1.555696e+00 1.610438e+00 1.237627e+00 9.208242e-01 4.725477e-01 -3.690830e-03 -4.423875e-01 -8.215061e-01 
-1.054672e+00 -9.534558e-01 -5.288219e-01 -8.397953e-02 4.414945e-01 8.843440e-01 1.222304e+00 2.119204e+00 1.623330e+00 -1.866519e-01 -6.737379e-01 -5.845467e-01 -1.029494e+00 -9.814364e-01 -5.310849e-01 -2.134778e-01 6.691762e-03 -2.134778e-01 -5.310849e-01 -9.814364e-01 -1.029494e+00 -5.845467e-01 -6.737379e-01 -1.866519e-01 1.623330e+00 2.119204e+00 1.222304e+00 8.843440e-01 4.414945e-01 -8.397953e-02 -5.288219e-01 -9.534558e-01 
-1.135478e+00 -1.034807e+00 -5.988321e-01 -1.726431e-01 3.947568e-01 8.382438e-01 1.459530e+00 2.782777e+00 1.034376e+00 -9.489650e-01 -7.336300e-01 -6.493796e-01 -4.557961e-01 -4.070096e-01 -3.887165e-01 -4.082160e-01 -2.878987e-01 -4.082160e-01 -3.887165e-01 -4.070096e-01 -4.557961e-01 -6.493796e-01 -7.336300e-01 -9.489650e-01 1.034376e+00 2.782777e+00 1.459530e+00 8.382438e-01 3.947568e-01 -1.726431e-01 -5.988321e-01 -1.034807e+00 
-1.072979e+00 -9.922315e-01 -5.727565e-01 -2.287954e-01 4.308536e-01 7.425502e-01 2.110417e+00 2.756735e+00 -6.444052e-01 -1.196959e+00 -3.994137e-02 -3.510345e-01 -3.955335e-01 -5.174919e-01 -3.162938e-01 -2.127722e-01 -7.170244e-02 -2.127722e-01 -3.162938e-01 -5.174919e-01 -3.955335e-01 -3.510345e-01 -3.994137e-02 -1.196959e+00 -6.444052e-01 2.756735e+00 2.110417e+00 7.425502e-01 4.308536e-01 -2.287954e-01 -5.727565e-01 -9.922315e-01 
-8.881634e-01 -8.326055e-01 -5.126300e-01 -2.875604e-01 2.537744e-01 5.251558e-01 2.234135e+00 1.732931e+00 -1.458570e+00 -4.176609e-01 4.238320e-01 -1.774580e-01 -1.933259e-01 -3.152854e-01 -2.284306e-01 -2.275169e-01 -1.494052e-01 -2.275169e-01 -2.284306e-01 -3.152854e-01 -1.933259e-01 -1.774580e-01 4.238320e-01 -4.176609e-01 -1.458570e+00 1.732931e+00 2.234135e+00 5.251558e-01 2.537744e-01 -2.875604e-01 -5.126300e-01 -8.326055e-01 
-4.960896e-01 -4.600430e-01 -2.980416e-01 -1.609787e-01 1.026199e-01 4.724478e-01 1.393367e+00 6.261979e-01 -8.961496e-01 -1.578206e-03 2.887817e-01 -1.301706e-01 -1.667016e-01 -2.292404e-01 -1.430245e-01 -1.166350e-01 -6.561261e-02 -1.166350e-01 -1.430245e-01 -2.292404e-01 -1.667016e-01 -1.301706e-01 2.887817e-01 -1.578206e-03 -8.961496e-01 6.261979e-01 1.393367e+00 4.724478e-01 1.026199e-01 -1.609787e-01 -2.980416e-01 -4.600430e-01 
-1.070083e-14 -1.177855e-14 -3.487833e-14 -5.092239e-14 -4.739587e-14 -1.491840e-14 2.885368e-14 3.211499e-14 -8.463525e-14 -7.239497e-15 -1.083431e-14 5.524608e-15 1.069215e-14 4.456238e-14 -5.557076e-15 4.362018e-14 1.116343e-14 2.071089e-14 2.600684e-14 6.208863e-15 4.708344e-15 5.439319e-14 7.028383e-14 -8.200499e-14 -1.525465e-14 -1.286766e-13 3.011520e-14 6.388685e-14 4.060920e-14 3.718985e-14 -1.851101e-15 -2.430014e-15 
4.960896e-01 4.600430e-01 2.980416e-01 1.609787e-01 -1.026199e-01 -4.724478e-01 -1.393367e+00 -6.261979e-01 8.961496e-01 1.578206e-03 -2.887817e-01 1.301706e-01 1.667016e-01 2.292404e-01 1.430245e-01 1.166350e-01 6.561261e-02 1.166350e-01 1.430245e-01 2.292404e-01 1.667016e-01 1.301706e-01 -2.887817e-01 1.578206e-03 8.961496e-01 -6.261979e-01 -1.393367e+00 -4.724478e-01 -1.026199e-01 1.609787e-01 2.980416e-01 4.600430e-01 
8.881634e-01 8.326055e-01 5.126300e-01 2.875604e-01 -2.537744e-01 -5.251558e-01 -2.234135e+00 -1.732931e+00 1.458570e+00 4.176609e-01 -4.238320e-01 1.774580e-01 1.933259e-01 3.152854e-01 2.284306e-01 2.275169e-01 1.494052e-01 2.275169e-01 2.284306e-01 3.152854e-01 1.933259e-01 1.774580e-01 -4.238320e-01 4.176609e-01 1.458570e+00 -1.732931e+00 -2.234135e+00 -5.251558e-01 -2.537744e-01 2.875604e-01 5.126300e-01 8.326055e-01 
1.072979e+00 9.922315e-01 5.727565e-01 2.287954e-01 -4.308536e-01 -7.425502e-01 -2.110417e+00 -2.756735e+00 6.444052e-01 1.196959e+00 3.994137e-02 3.510345e-01 3.955335e-01 5.174919e-01 3.162938e-01 2.127722e-01 7.170244e-02 2.127722e-01 3.162938e-01 5.174919e-01 3.955335e-01 3.510345e-01 3.994137e-02 1.196959e+00 6.444052e-01 -2.756735e+00 -2.110417e+00 -7.425502e-01 -4.308536e-01 2.287954e-01 5.727565e-01 9.922315e-01 
1.135478e+00 1.034807e+00 5.988321e-01 1.726431e-01 -3.947568e-01 -8.382438e-01 -1.459530e+00 -2.782777e+00 -1.034376e+00 9.489650e-01 7.336300e-01 6.493796e-01 4.557961e-01 4.070096e-01 3.887165e-01 4.082160e-01 2.878987e-01 4.082160e-01 3.887165e-01 4.070096e-01 4.557961e-01 6.493796e-01 7.336300e-01 9.489650e-01 -1.034376e+00 -2.782777e+00 -1.459530e+00 -8.382438e-01 -3.947568e-01 1.726431e-01 5.988321e-01 1.034807e+00 
1.054672e+00 9.534558e-01 5.288219e-01 8.397953e-02 -4.414945e-01 -8.843440e-01 -1.222304e+00 -2.119204e+00 -1.623330e+00 1.866519e-01 6.737379e-01 5.845467e-01 1.029494e+00 9.814364e-01 5.310849e-01 2.134778e-01 -6.691762e-03 2.134778e-01 5.310849e-01 9.814364e-01 1.029494e+00 5.845467e-01 6.737379e-01 1.866519e-01 -1.623330e+00 -2.119204e+00 -1.222304e+00 -8.843440e-01 -4.414945e-01 8.397953e-02 5.288219e-01 9.534558e-01 
9.232840e-01 8.215061e-01 4.423875e-01 3.690830e-03 -4.725477e-01 -9.208242e-01 -1.237627e+00 -1.610438e+00 -1.555696e+00 -4.718494e-01 4.695207e-01 2.937481e-01 3.054728e-01 6.575690e-01 9.934407e-01 1.226597e+00 1.186815e+00 1.226597e+00 9.934407e-01 6.575690e-01 3.054728e-01 2.937481e-01 4.695207e-01 -4.718494e-01 -1.555696e+00 -1.610438e+00 -1.237627e+00 -9.208242e-01 -4.725477e-01 3.690830e-03 4.423875e-01 8.215061e-01 
7.459875e-01 6.578855e-01 3.326234e-01 -5.009625e-02 -4.552109e-01 -8.214647e-01 -1.069364e+00 -1.343985e+00 -1.355254e+00 -7.120836e-01 4.271229e-01 1.008576e+00 6.489942e-01 2.980399e-01 5.214756e-01 9.631284e-01 1.153240e+00 9.631284e-01 5.214756e-01 2.980399e-01 6.489942e-01 1.008576e+00 4.271229e-01 -7.120836e-01 -1.355254e+00 -1.343985e+00 -1.069364e+00 -8.214647e-01 -4.552109e-01 -5.009625e-02 3.326234e-01 6.578855e-01 
5.628452e-01 4.857306e-01 2.173921e-01 -1.066865e-01 -4.477608e-01 -7.407232e-01 -9.488939e-01 -1.076581e+00 -1.110776e+00 -8.854474e-01 -4.936524e-01 4.660214e-01 1.352377e+00 1.337113e+00 8.703120e-01 5.205731e-01 5.591590e-01 5.205731e-01 8.703120e-01 1.337113e+00 1.352377e+00 4.660214e-01 -4.936524e-01 -8.854474e-01 -1.110776e+00 -1.076581e+00 -9.488939e-01 -7.407232e-01 -4.477608e-01 -1.066865e-01 2.173921e-01 4.857306e-01 
3.852409e-01 3.238206e-01 1.097426e-01 -1.491768e-01 -4.232574e-01 -6.558846e-01 -8.222117e-01 -9.124407e-01 -9.125893e-01 -6.989226e-01 -5.442333e-01 -1.886322e-01 2.952774e-01 7.712996e-01 1.321999e+00 1.509937e+00 1.565304e+00 1.509937e+00 1.321999e+00 7.712996e-01 2.952774e-01 -1.886322e-01 -5.442333e-01 -6.989226e-01 -9.125893e-01 -9.124407e-01 -8.222117e-01 -6.558846e-01 -4.232574e-01 -1.491768e-01 1.097426e-01 3.238206e-01 
2.301695e-01 1.821687e-01 1.612121e-02 -1.857320e-01 -4.060180e-01 -5.901034e-01 -7.348748e-01 -8.025214e-01 -8.089334e-01 -6.644255e-01 -4.721727e-01 -9.719396e-02 3.294276e-01 6.538944e-01 1.135168e+00 1.503913e+00 1.652394e+00 1.503913e+00 1.135168e+00 6.538944e-01 3.294276e-01 -9.719396e-02 -4.721727e-01 -6.644255e-01 -8.089334e-01 -8.025214e-01 -7.348748e-01 -5.901034e-01 -4.060180e-01 -1.857320e-01 1.612121e-02 1.821687e-01 
1.090288e-01 7.368969e-02 -5.131932e-02 -2.051483e-01 -3.791750e-01 -5.308886e-01 -6.585869e-01 -7.271327e-01 -7.452942e-01 -6.470282e-01 -5.090662e-01 -2.556563e-01 8.633761e-02 4.930407e-01 1.174399e+00 1.799124e+00 2.056382e+00 1.799124e+00 1.174399e+00 4.930407e-01 8.633761e-02 -2.556563e-01 -5.090662e-01 -6.470282e-01 -7.452942e-01 -7.271327e-01 -6.585869e-01 -5.308886e-01 -3.791750e-01 -2.051483e-01 -5.131932e-02 7.368969e-02 
2.589825e-02 6.888172e-04 -9.126072e-02 -2.060408e-01 -3.430386e-01 -4.662846e-01 -5.784365e-01 -6.419727e-01 -6.615000e-01 -5.881692e-01 -4.522416e-01 -2.208738e-01 8.517463e-02 4.521539e-01 1.036695e+00 1.670498e+00 1.983317e+00 1.670498e+00 1.036695e+00 4.521539e-01 8.517463e-02 -2.208738e-01 -4.522416e-01 -5.881692e-01 -6.615000e-01 -6.419727e-01 -5.784365e-01 -4.662846e-01 -3.430386e-01 -2.060408e-01 -9.126072e-02 6.888172e-04 
-1.931394e-02 -3.672366e-02 -1.019081e-01 -1.858175e-01 -2.905226e-01 -3.905319e-01 -4.860469e-01 -5.467412e-01 -5.714310e-01 -5.231188e-01 -4.175103e-01 -2.288437e-01 4.337702e-02 4.019329e-01 9.274210e-01 1.509844e+00 1.812556e+00 1.509844e+00 9.274210e-01 4.019329e-01 4.337702e-02 -2.288437e-01 -4.175103e-01 -5.231188e-01 -5.714310e-01 -5.467412e-01 -4.860469e-01 -3.905319e-01 -2.905226e-01 -1.858175e-01 -1.019081e-01 -3.672366e-02 
-3.247858e-02 -4.339891e-02 -8.564080e-02 -1.410342e-01 -2.129922e-01 -2.835465e-01 -3.528827e-01 -3.979052e-01 -4.156680e-01 -3.815949e-01 -2.994867e-01 -1.559101e-01 4.821686e-02 3.147935e-01 6.777728e-01 1.088596e+00 1.313840e+00 1.088596e+00 6.777728e-01 3.147935e-01 4.821686e-02 -1.559101e-01 -2.994867e-01 -3.815949e-01 -4.156680e-01 -3.979052e-01 -3.528827e-01 -2.835465e-01 -2.129922e-01 -1.410342e-01 -8.564080e-02 -4.339891e-02 
-2.246613e-02 -2.787503e-02 -4.888198e-02 -7.711541e-02 -1.144821e-01 -1.522724e-01 -1.898687e-01 -2.152831e-01 -2.259586e-01 -2.087136e-01 -1.642828e-01 -8.502844e-02 2.912402e-02 1.786413e-01 3.728322e-01 5.876466e-01 7.055020e-01 5.876466e-01 3.728322e-01 1.786413e-01 2.912402e-02 -8.502844e-02 -1.642828e-01 -2.087136e-01 -2.259586e-01 -2.152831e-01 -1.898687e-01 -1.522724e-01 -1.144821e-01 -7.711541e-02 -4.888198e-02 -2.787503e-02 
