# vtk DataFile Version 2.0
Comment goes here
ASCII

DATASET STRUCTURED_POINTS
FIELD FieldData 1
TIME 1 1 double
0.62000000
DIMENSIONS    32   32   1

ORIGIN    0.000   0.000   0.000
SPACING   0.03125 0.03125   1.000

POINT_DATA   1024
SCALARS uY double
LOOKUP_TABLE default

-2.627558e-15 -4.787558e-15 -1.625884e-15 -2.049988e-15 1.024154e-15 3.195511e-15 5.296867e-15 1.032489e-14 7.197518e-15 1.174570e-14 -2.748472e-15 6.986215e-15 -1.341957e-14 5.687173e-15 -1.880629e-14 -7.308516e-15 -3.204111e-15 -7.632818e-16 4.204460e-15 -5.407330e-15 8.762735e-15 -1.697431e-15 3.413741e-15 -9.347664e-15 -5.973315e-15 -1.374382e-14 -6.935842e-15 -1.094261e-14 -4.809450e-15 -8.130245e-15 -3.049103e-15 -6.127113e-15 
5.475238e-02 5.846250e-02 7.056345e-02 8.832634e-02 1.135098e-01 1.412973e-01 1.757147e-01 2.032800e-01 2.268224e-01 2.198838e-01 1.911773e-01 1.120732e-01 -2.665297e-03 -1.773285e-01 -4.141263e-01 -6.459947e-01 -7.767444e-01 -6.459947e-01 -4.141263e-01 -1.773285e-01 -2.665297e-03 1.120732e-01 1.911773e-01 2.198838e-01 2.268224e-01 2.032800e-01 1.757147e-01 1.412973e-01 1.135098e-01 8.832634e-02 7.056345e-02 5.846250e-02 
1.035334e-01 1.112669e-01 1.354794e-01 1.708193e-01 2.191761e-01 2.715808e-01 3.350367e-01 3.845432e-01 4.274692e-01 4.102975e-01 3.530715e-01 1.912566e-01 -3.744310e-02 -3.753119e-01 -8.043857e-01 -1.164453e+00 -1.360342e+00 -1.164453e+00 -8.043857e-01 -3.753119e-01 -3.744310e-02 1.912566e-01 3.530715e-01 4.102975e-01 4.274692e-01 3.845432e-01 3.350367e-01 2.715808e-01 2.191761e-01 1.708193e-01 1.354794e-01 1.112669e-01 
1.349187e-01 1.475120e-01 1.849212e-01 2.385415e-01 3.082054e-01 3.802997e-01 4.638168e-01 5.232241e-01 5.724949e-01 5.344664e-01 4.436779e-01 1.994031e-01 -1.026484e-01 -5.313107e-01 -1.087559e+00 -1.492136e+00 -1.700736e+00 -1.492136e+00 -1.087559e+00 -5.313107e-01 -1.026484e-01 1.994031e-01 4.436779e-01 5.344664e-01 5.724949e-01 5.232241e-01 4.638168e-01 3.802997e-01 3.082054e-01 2.385415e-01 1.849212e-01 1.475120e-01 
1.491527e-01 1.681886e-01 2.210327e-01 2.959291e-01 3.863583e-01 4.774499e-01 5.758296e-01 6.414124e-01 6.943880e-01 6.318397e-01 5.177783e-01 1.795631e-01 -2.197568e-01 -7.678351e-01 -1.362839e+00 -1.626548e+00 -1.774734e+00 -1.626548e+00 -1.362839e+00 -7.678351e-01 -2.197568e-01 1.795631e-01 5.177783e-01 6.318397e-01 6.943880e-01 6.414124e-01 5.758296e-01 4.774499e-01 3.863583e-01 2.959291e-01 2.210327e-01 1.681886e-01 
1.282373e-01 1.567067e-01 2.306707e-01 3.338574e-01 4.494937e-01 5.615073e-01 6.732609e-01 7.400136e-01 7.907398e-01 7.038095e-01 5.485670e-01 6.253322e-02 -3.637170e-01 -8.557834e-01 -1.455397e+00 -1.702644e+00 -1.875474e+00 -1.702644e+00 -1.455397e+00 -8.557834e-01 -3.637170e-01 6.253322e-02 5.485670e-01 7.038095e-01 7.907398e-01 7.400136e-01 6.732609e-01 5.615073e-01 4.494937e-01 3.338574e-01 2.306707e-01 1.567067e-01 
7.941100e-02 1.206454e-01 2.228924e-01 3.635011e-01 5.091696e-01 6.510110e-01 7.792275e-01 8.672723e-01 9.354976e-01 8.475964e-01 7.075776e-01 1.906940e-03 -7.077119e-01 -1.361630e+00 -1.773590e+00 -1.490303e+00 -1.425536e+00 -1.490303e+00 -1.773590e+00 -1.361630e+00 -7.077119e-01 1.906940e-03 7.075776e-01 8.475964e-01 9.354976e-01 8.672723e-01 7.792275e-01 6.510110e-01 5.091696e-01 3.635011e-01 2.228924e-01 1.206454e-01 
-2.278711e-02 3.661619e-02 1.781101e-01 3.715297e-01 5.609656e-01 7.459751e-01 9.011489e-01 1.011243e+00 1.124590e+00 1.058131e+00 5.167885e-01 -9.464536e-01 -1.649553e+00 -1.301920e+00 -1.111405e+00 -9.751208e-01 -1.018503e+00 -9.751208e-01 -1.111405e+00 -1.301920e+00 -1.649553e+00 -9.464536e-01 5.167885e-01 1.058131e+00 1.124590e+00 1.011243e+00 9.011489e-01 7.459751e-01 5.609656e-01 3.715297e-01 1.781101e-01 3.661619e-02 
-1.553748e-01 -7.561034e-02 1.144399e-01 3.691652e-01 6.066612e-01 8.418087e-01 1.018996e+00 1.208667e+00 1.291925e+00 9.190899e-01 -2.826848e-01 -1.330397e+00 -8.199697e-01 -4.892656e-01 -1.026645e+00 -1.443458e+00 -1.650069e+00 -1.443458e+00 -1.026645e+00 -4.892656e-01 -8.199697e-01 -1.330397e+00 -2.826848e-01 9.190899e-01 1.291925e+00 1.208667e+00 1.018996e+00 8.418087e-01 6.066612e-01 3.691652e-01 1.144399e-01 -7.561034e-02 
-3.457831e-01 -2.425384e-01 1.821159e-03 3.316160e-01 6.343124e-01 9.545508e-01 1.171923e+00 1.328743e+00 1.338492e+00 6.225617e-01 -4.393075e-01 -7.240829e-01 -4.706470e-01 -9.156913e-01 -1.419962e+00 -1.355159e+00 -1.287481e+00 -1.355159e+00 -1.419962e+00 -9.156913e-01 -4.706470e-01 -7.240829e-01 -4.393075e-01 6.225617e-01 1.338492e+00 1.328743e+00 1.171923e+00 9.545508e-01 6.343124e-01 3.316160e-01 1.821159e-03 -2.425384e-01 
-5.369097e-01 -4.160750e-01 -1.147664e-01 2.815920e-01 6.610434e-01 1.060308e+00 1.266422e+00 1.401270e+00 1.369660e+00 3.116384e-01 -6.993189e-01 -9.747757e-01 -1.234215e+00 -1.228917e+00 -8.488547e-01 -4.350414e-01 -2.630312e-01 -4.350414e-01 -8.488547e-01 -1.228917e+00 -1.234215e+00 -9.747757e-01 -6.993189e-01 3.116384e-01 1.369660e+00 1.401270e+00 1.266422e+00 1.060308e+00 6.610434e-01 2.815920e-01 -1.147664e-01 -4.160750e-01 
-7.490637e-01 -6.202832e-01 -2.855442e-01 1.492734e-01 5.592646e-01 1.047080e+00 1.106821e+00 1.818129e+00 1.538429e+00 -2.878385e-01 -7.894961e-01 -9.686829e-01 -1.020158e+00 -8.602844e-01 -6.572627e-01 -2.773935e-01 -1.550414e-01 -2.773935e-01 -6.572627e-01 -8.602844e-01 -1.020158e+00 -9.686829e-01 -7.894961e-01 -2.878385e-01 1.538429e+00 1.818129e+00 1.106821e+00 1.047080e+00 5.592646e-01 1.492734e-01 -2.855442e-01 -6.202832e-01 
-8.862491e-01 -7.661745e-01 -4.170138e-01 1.235284e-02 5.354201e-01 1.014480e+00 1.275954e+00 2.320675e+00 8.779134e-01 -1.112714e+00 -3.251938e-01 -4.443977e-01 -7.814533e-01 -6.915337e-01 -6.035479e-01 -3.326878e-01 -2.379089e-01 -3.326878e-01 -6.035479e-01 -6.915337e-01 -7.814533e-01 -4.443977e-01 -3.251938e-01 -1.112714e+00 8.779134e-01 2.320675e+00 1.275954e+00 1.014480e+00 5.354201e-01 1.235284e-02 -4.170138e-01 -7.661745e-01 
-9.417803e-01 -8.523650e-01 -5.330383e-01 -1.859185e-01 4.063131e-01 6.861882e-01 1.799417e+00 2.447830e+00 -2.582262e-02 -8.554913e-01 3.971433e-02 -3.280343e-01 -5.830216e-01 -6.010550e-01 -5.082578e-01 -3.111538e-01 -2.488273e-01 -3.111538e-01 -5.082578e-01 -6.010550e-01 -5.830216e-01 -3.280343e-01 3.971433e-02 -8.554913e-01 -2.582262e-02 2.447830e+00 1.799417e+00 6.861882e-01 4.063131e-01 -1.859185e-01 -5.330383e-01 -8.523650e-01 
-8.311063e-01 -7.786748e-01 -5.734071e-01 -3.503061e-01 8.457253e-02 6.317363e-01 2.153930e+00 1.738879e+00 -5.960724e-01 -3.073952e-01 2.319031e-01 -2.209824e-01 -3.818621e-01 -4.402836e-01 -3.869337e-01 -2.729735e-01 -2.331552e-01 -2.729735e-01 -3.869337e-01 -4.402836e-01 -3.818621e-01 -2.209824e-01 2.319031e-01 -3.073952e-01 -5.960724e-01 1.738879e+00 2.153930e+00 6.317363e-01 8.457253e-02 -3.503061e-01 -5.734071e-01 -7.786748e-01 
-5.326286e-01 -5.120348e-01 -4.358108e-01 -3.049764e-01 -1.168930e-02 6.517874e-01 1.461085e+00 7.335638e-01 -4.063147e-01 5.659051e-04 1.694038e-01 -1.369190e-01 -2.130077e-01 -2.657529e-01 -2.262195e-01 -1.662341e-01 -1.422655e-01 -1.662341e-01 -2.262195e-01 -2.657529e-01 -2.130077e-01 -1.369190e-01 1.694038e-01 5.659051e-04 -4.063147e-01 7.335638e-01 1.461085e+00 6.517874e-01 -1.168930e-02 -3.049764e-01 -4.358108e-01 -5.120348e-01 
1.192779e-14 1.219965e-14 4.080992e-15 2.582635e-15 9.597853e-15 3.435346e-14 1.561516e-14 -3.079788e-14 -3.636017e-14 -7.330336e-15 2.958786e-14 3.112550e-14 1.694486e-14 1.222629e-14 -7.783966e-15 -6.983702e-15 -2.513800e-14 -3.162039e-14 -4.395387e-14 -6.383810e-14 -7.543066e-14 -8.758764e-14 -1.936470e-14 2.270637e-13 2.225482e-13 -1.059944e-13 -1.245201e-13 -5.574407e-14 -3.059384e-14 1.382502e-14 1.954248e-14 2.415422e-14 
5.326286e-01 5.120348e-01 4.358108e-01 3.049764e-01 1.168930e-02 -6.517874e-01 -1.461085e+00 -7.335638e-01 4.063147e-01 -5.659051e-04 -1.694038e-01 1.369190e-01 2.130077e-01 2.657529e-01 2.262195e-01 1.662341e-01 1.422655e-01 1.662341e-01 2.262195e-01 2.657529e-01 2.130077e-01 1.369190e-01 -1.694038e-01 -5.659051e-04 4.063147e-01 -7.335638e-01 -1.461085e+00 -6.517874e-01 1.168930e-02 3.049764e-01 4.358108e-01 5.120348e-01 
8.311063e-01 7.786748e-01 5.734071e-01 3.503061e-01 -8.457253e-02 -6.317363e-01 -2.153930e+00 -1.738879e+00 5.960724e-01 3.073952e-01 -2.319031e-01 2.209824e-01 3.818621e-01 4.402836e-01 3.869337e-01 2.729735e-01 2.331552e-01 2.729735e-01 3.869337e-01 4.402836e-01 3.818621e-01 2.209824e-01 -2.319031e-01 3.073952e-01 5.960724e-01 -1.738879e+00 -2.153930e+00 -6.317363e-01 -8.457253e-02 3.503061e-01 5.734071e-01 7.786748e-01 
9.417803e-01 8.523650e-01 5.330383e-01 1.859185e-01 -4.063131e-01 -6.861882e-01 -1.799417e+00 -2.447830e+00 2.582262e-02 8.554913e-01 -3.971433e-02 3.280343e-01 5.830216e-01 6.010550e-01 5.082578e-01 3.111538e-01 2.488273e-01 3.111538e-01 5.082578e-01 6.010550e-01 5.830216e-01 3.280343e-01 -3.971433e-02 8.554913e-01 2.582262e-02 -2.447830e+00 -1.799417e+00 -6.861882e-01 -4.063131e-01 1.859185e-01 5.330383e-01 8.523650e-01 
8.862491e-01 7.661745e-01 4.170138e-01 -1.235284e-02 -5.354201e-01 -1.014480e+00 -1.275954e+00 -2.320675e+00 -8.779134e-01 1.112714e+00 3.251938e-01 4.443977e-01 7.814533e-01 6.915337e-01 6.035479e-01 3.326878e-01 2.379089e-01 3.326878e-01 6.035479e-01 6.915337e-01 7.814533e-01 4.443977e-01 3.251938e-01 1.112714e+00 -8.779134e-01 -2.320675e+00 -1.275954e+00 -1.014480e+00 -5.354201e-01 -1.235284e-02 4.170138e-01 7.661745e-01 
7.490637e-01 6.202832e-01 2.855442e-01 -1.492734e-01 -5.592646e-01 -1.047080e+00 -1.106821e+00 -1.818129e+00 -1.538429e+00 2.878385e-01 7.894961e-01 9.686829e-01 1.020158e+00 8.602844e-01 6.572627e-01 2.773935e-01 1.550414e-01 2.773935e-01 6.572627e-01 8.602844e-01 1.020158e+00 9.686829e-01 7.894961e-01 2.878385e-01 -1.538429e+00 -1.818129e+00 -1.106821e+00 -1.047080e+00 -5.592646e-01 -1.492734e-01 2.855442e-01 6.202832e-01 
5.369097e-01 4.160750e-01 1.147664e-01 -2.815920e-01 -6.610434e-01 -1.060308e+00 -1.266422e+00 -1.401270e+00 -1.369660e+00 -3.116384e-01 6.993189e-01 9.747757e-01 1.234215e+00 1.228917e+00 8.488547e-01 4.350414e-01 2.630312e-01 4.350414e-01 8.488547e-01 1.228917e+00 1.234215e+00 9.747757e-01 6.993189e-01 -3.116384e-01 -1.369660e+00 -1.401270e+00 -1.266422e+00 -1.060308e+00 -6.610434e-01 -2.815920e-01 1.147664e-01 4.160750e-01 
3.457831e-01 2.425384e-01 -1.821159e-03 -3.316160e-01 -6.343124e-01 -9.545508e-01 -1.171923e+00 -1.328743e+00 -1.338492e+00 -6.225617e-01 4.393075e-01 7.240829e-01 4.706470e-01 9.156913e-01 1.419962e+00 1.355159e+00 1.287481e+00 1.355159e+00 1.419962e+00 9.156913e-01 4.706470e-01 7.240829e-01 4.393075e-01 -6.225617e-01 -1.338492e+00 -1.328743e+00 -1.171923e+00 -9.545508e-01 -6.343124e-01 -3.316160e-01 -1.821159e-03 2.425384e-01 
1.553748e-01 7.561034e-02 -1.144399e-01 -3.691652e-01 -6.066612e-01 -8.418087e-01 -1.018996e+00 -1.208667e+00 -1.291925e+00 -9.190899e-01 2.826848e-01 1.330397e+00 8.199697e-01 4.892656e-01 1.026645e+00 1.443458e+00 1.650069e+00 1.443458e+00 1.026645e+00 4.892656e-01 8.199697e-01 1.330397e+00 2.826848e-01 -9.190899e-01 -1.291925e+00 -1.208667e+00 -1.018996e+00 -8.418087e-01 -6.066612e-01 -3.691652e-01 -1.144399e-01 7.561034e-02 
2.278711e-02 -3.661619e-02 -1.781101e-01 -3.715297e-01 -5.609656e-01 -7.459751e-01 -9.011489e-01 -1.011243e+00 -1.124590e+00 -1.058131e+00 -5.167885e-01 9.464536e-01 1.649553e+00 1.301920e+00 1.111405e+00 9.751208e-01 1.018503e+00 9.751208e-01 1.111405e+00 1.301920e+00 1.649553e+00 9.464536e-01 -5.167885e-01 -1.058131e+00 -1.124590e+00 -1.011243e+00 -9.011489e-01 -7.459751e-01 -5.609656e-01 -3.715297e-01 -1.781101e-01 -3.661619e-02 
-7.941100e-02 -1.206454e-01 -2.228924e-01 -3.635011e-01 -5.091696e-01 -6.510110e-01 -7.792275e-01 -8.672723e-01 -9.354976e-01 -8.475964e-01 -7.075776e-01 -1.906940e-03 7.077119e-01 1.361630e+00 1.773590e+00 1.490303e+00 1.425536e+00 1.490303e+00 1.773590e+00 1.361630e+00 7.077119e-01 -1.906940e-03 -7.075776e-01 -8.475964e-01 -9.354976e-01 -8.672723e-01 -7.792275e-01 -6.510110e-01 -5.091696e-01 -3.635011e-01 -2.228924e-01 -1.206454e-01 
-1.282373e-01 -1.567067e-01 -2.306707e-01 -3.338574e-01 -4.494937e-01 -5.615073e-01 -6.732609e-01 -7.400136e-01 -7.907398e-01 -7.038095e-01 -5.485670e-01 -6.253322e-02 3.637170e-01 8.557834e-01 1.455397e+00 1.702644e+00 1.875474e+00 1.702644e+00 1.455397e+00 8.557834e-01 3.637170e-01 -6.253322e-02 -5.485670e-01 -7.038095e-01 -7.907398e-01 -7.400136e-01 -6.732609e-01 -5.615073e-01 -4.494937e-01 -3.338574e-01 -2.306707e-01 -1.567067e-01 
-1.491527e-01 -1.681886e-01 -2.210327e-01 -2.959291e-01 -3.863583e-01 -4.774499e-01 -5.758296e-01 -6.414124e-01 -6.943880e-01 -6.318397e-01 -5.177783e-01 -1.795631e-01 2.197568e-01 7.678351e-01 1.362839e+00 1.626548e+00 1.774734e+00 1.626548e+00 1.362839e+00 7.678351e-01 2.197568e-01 -1.795631e-01 -5.177783e-01 -6.318397e-01 -6.943880e-01 -6.414124e-01 -5.758296e-01 -4.774499e-01 -3.863583e-01 -2.959291e-01 -2.210327e-01 -1.681886e-01 
-1.349187e-01 -1.475120e-01 -1.849212e-01 -2.385415e-01 -3.082054e-01 -3.802997e-01 -4.638168e-01 -5.232241e-01 -5.724949e-01 -5.344664e-01 -4.436779e-01 -1.994031e-01 1.026484e-01 5.313107e-01 1.087559e+00 1.492136e+00 1.700736e+00 1.492136e+00 1.087559e+00 5.313107e-01 1.026484e-01 -1.994031e-01 -4.436779e-01 -5.344664e-01 -5.724949e-01 -5.232241e-01 -4.638168e-01 -3.802997e-01 -3.082054e-01 -2.385415e-01 -1.849212e-01 -1.475120e-01 
-1.035334e-01 -1.112669e-01 -1.354794e-01 -1.708193e-01 -2.191761e-01 -2.715808e-01 -3.350367e-01 -3.845432e-01 -4.274692e-01 -4.102975e-01 -3.530715e-01 -1.912566e-01 3.744310e-02 3.753119e-01 8.043857e-01 1.164453e+00 1.360342e+00 1.164453e+00 8.043857e-01 3.753119e-01 3.744310e-02 -1.912566e-01 -3.530715e-01 -4.102975e-01 -4.274692e-01 -3.845432e-01 -3.350367e-01 -2.715808e-01 -2.191761e-01 -1.708193e-01 -1.354794e-01 -1.112669e-01 
-5.475238e-02 -5.846250e-02 -7.056345e-02 -8.832634e-02 -1.135098e-01 -1.412973e-01 -1.757147e-01 -2.032800e-01 -2.268224e-01 -2.198838e-01 -1.911773e-01 -1.120732e-01 2.665297e-03 1.773285e-01 4.141263e-01 6.459947e-01 7.767444e-01 6.459947e-01 4.141263e-01 1.773285e-01 2.665297e-03 -1.120732e-01 -1.911773e-01 -2.198838e-01 -2.268224e-01 -2.032800e-01 -1.757147e-01 -1.412973e-01 -1.135098e-01 -8.832634e-02 -7.056345e-02 -5.846250e-02 
