# vtk DataFile Version 2.0
Comment goes here
ASCII

DATASET STRUCTURED_POINTS
FIELD FieldData 1
TIME 1 1 double
0.44000000
DIMENSIONS    32   32   1

ORIGIN    0.000   0.000   0.000
SPACING   0.03125 0.03125   1.000

POINT_DATA   1024
SCALARS uY double
LOOKUP_TABLE default

-1.906249e-15 1.203997e-16 -2.816669e-15 -7.830016e-16 -2.745760e-15 -2.166424e-16 -1.488434e-15 1.911319e-15 2.480654e-15 5.297277e-15 2.863662e-15 -1.686504e-15 -1.339386e-14 -2.743393e-14 -4.112489e-14 -4.514725e-14 -5.006344e-15 3.743901e-14 3.953927e-14 2.529344e-14 1.699531e-14 4.068893e-15 4.036789e-15 -1.802607e-15 1.977660e-15 7.388513e-16 2.312903e-15 1.916894e-15 1.541794e-15 1.891239e-15 -2.585596e-16 1.171555e-15 
8.701162e-02 8.947241e-02 9.446979e-02 1.025467e-01 1.120386e-01 1.216375e-01 1.322939e-01 1.417760e-01 1.519874e-01 1.558369e-01 1.486339e-01 1.105293e-01 3.262679e-02 -1.047231e-01 -3.221538e-01 -6.170756e-01 -7.868046e-01 -6.170756e-01 -3.221538e-01 -1.047231e-01 3.262679e-02 1.105293e-01 1.486339e-01 1.558369e-01 1.519874e-01 1.417760e-01 1.322939e-01 1.216375e-01 1.120386e-01 1.025467e-01 9.446979e-02 8.947241e-02 
1.692797e-01 1.748660e-01 1.848060e-01 2.014380e-01 2.197237e-01 2.370261e-01 2.545157e-01 2.664221e-01 2.772751e-01 2.754195e-01 2.563983e-01 1.896800e-01 5.436735e-02 -1.977976e-01 -6.129577e-01 -1.147054e+00 -1.437537e+00 -1.147054e+00 -6.129577e-01 -1.977976e-01 5.436735e-02 1.896800e-01 2.563983e-01 2.754195e-01 2.772751e-01 2.664221e-01 2.545157e-01 2.370261e-01 2.197237e-01 2.014380e-01 1.848060e-01 1.748660e-01 
2.471370e-01 2.564217e-01 2.746053e-01 3.031176e-01 3.344520e-01 3.623155e-01 3.871616e-01 3.985432e-01 3.998946e-01 3.755970e-01 3.246327e-01 1.977563e-01 -1.106951e-02 -3.521209e-01 -9.092536e-01 -1.541630e+00 -1.847983e+00 -1.541630e+00 -9.092536e-01 -3.521209e-01 -1.106951e-02 1.977563e-01 3.246327e-01 3.755970e-01 3.998946e-01 3.985432e-01 3.871616e-01 3.623155e-01 3.344520e-01 3.031176e-01 2.746053e-01 2.564217e-01 
3.103136e-01 3.260194e-01 3.534489e-01 3.974928e-01 4.426301e-01 4.796279e-01 5.075078e-01 5.054707e-01 4.776627e-01 4.015591e-01 2.908183e-01 1.212568e-01 -1.044405e-01 -5.017991e-01 -1.143505e+00 -1.729628e+00 -1.958559e+00 -1.729628e+00 -1.143505e+00 -5.017991e-01 -1.044405e-01 1.212568e-01 2.908183e-01 4.015591e-01 4.776627e-01 5.054707e-01 5.075078e-01 4.796279e-01 4.426301e-01 3.974928e-01 3.534489e-01 3.260194e-01 
3.587153e-01 3.827908e-01 4.285389e-01 4.976145e-01 5.698111e-01 6.279657e-01 6.704447e-01 6.682670e-01 6.159803e-01 4.947910e-01 3.123621e-01 -1.086511e-02 -3.698775e-01 -8.622733e-01 -1.458332e+00 -1.798291e+00 -1.896571e+00 -1.798291e+00 -1.458332e+00 -8.622733e-01 -3.698775e-01 -1.086511e-02 3.123621e-01 4.947910e-01 6.159803e-01 6.682670e-01 6.704447e-01 6.279657e-01 5.698111e-01 4.976145e-01 4.285389e-01 3.827908e-01 
3.791870e-01 4.183269e-01 4.869203e-01 5.928609e-01 6.989891e-01 7.846236e-01 8.498790e-01 8.432458e-01 7.560491e-01 5.258243e-01 1.864454e-01 -2.168987e-01 -5.698861e-01 -1.153842e+00 -1.667607e+00 -1.794141e+00 -1.860767e+00 -1.794141e+00 -1.667607e+00 -1.153842e+00 -5.698861e-01 -2.168987e-01 1.864454e-01 5.258243e-01 7.560491e-01 8.432458e-01 8.498790e-01 7.846236e-01 6.989891e-01 5.928609e-01 4.869203e-01 4.183269e-01 
3.614870e-01 4.199435e-01 5.286314e-01 6.884569e-01 8.547384e-01 9.887781e-01 1.104211e+00 1.138420e+00 1.068387e+00 8.758920e-01 3.877160e-01 -5.420061e-01 -1.297156e+00 -1.813379e+00 -1.909511e+00 -1.756106e+00 -1.835520e+00 -1.756106e+00 -1.909511e+00 -1.813379e+00 -1.297156e+00 -5.420061e-01 3.877160e-01 8.758920e-01 1.068387e+00 1.138420e+00 1.104211e+00 9.887781e-01 8.547384e-01 6.884569e-01 5.286314e-01 4.199435e-01 
2.986094e-01 3.876618e-01 5.431786e-01 7.800144e-01 1.017276e+00 1.224228e+00 1.455525e+00 1.625499e+00 1.517814e+00 6.439069e-01 -7.325360e-01 -1.575027e+00 -1.548949e+00 -1.575015e+00 -1.556572e+00 -1.511268e+00 -1.690082e+00 -1.511268e+00 -1.556572e+00 -1.575015e+00 -1.548949e+00 -1.575027e+00 -7.325360e-01 6.439069e-01 1.517814e+00 1.625499e+00 1.455525e+00 1.224228e+00 1.017276e+00 7.800144e-01 5.431786e-01 3.876618e-01 
1.663018e-01 2.903969e-01 5.103109e-01 8.411275e-01 1.193410e+00 1.498893e+00 1.890016e+00 1.996401e+00 1.130296e+00 -2.702278e-01 -1.087423e+00 -1.279932e+00 -1.206335e+00 -1.423000e+00 -1.637642e+00 -1.653658e+00 -1.751566e+00 -1.653658e+00 -1.637642e+00 -1.423000e+00 -1.206335e+00 -1.279932e+00 -1.087423e+00 -2.702278e-01 1.130296e+00 1.996401e+00 1.890016e+00 1.498893e+00 1.193410e+00 8.411275e-01 5.103109e-01 2.903969e-01 
-9.907318e-03 1.558225e-01 4.316333e-01 8.797732e-01 1.323774e+00 1.746677e+00 2.233842e+00 2.037091e+00 4.717046e-01 -9.130072e-01 -1.186821e+00 -1.489786e+00 -1.625274e+00 -1.529349e+00 -1.250929e+00 -8.872216e-01 -7.859509e-01 -8.872216e-01 -1.250929e+00 -1.529349e+00 -1.625274e+00 -1.489786e+00 -1.186821e+00 -9.130072e-01 4.717046e-01 2.037091e+00 2.233842e+00 1.746677e+00 1.323774e+00 8.797732e-01 4.316333e-01 1.558225e-01 
-2.570515e-01 -5.285665e-02 2.552409e-01 7.975394e-01 1.325524e+00 1.743741e+00 2.815005e+00 1.910251e+00 -5.304492e-01 -1.323865e+00 -1.629029e+00 -1.812741e+00 -1.428298e+00 -1.018090e+00 -6.061284e-01 -2.439787e-01 -1.466781e-01 -2.439787e-01 -6.061284e-01 -1.018090e+00 -1.428298e+00 -1.812741e+00 -1.629029e+00 -1.323865e+00 -5.304492e-01 1.910251e+00 2.815005e+00 1.743741e+00 1.325524e+00 7.975394e-01 2.552409e-01 -5.285665e-02 
-4.706715e-01 -2.517225e-01 4.955562e-02 6.981415e-01 1.178582e+00 2.005538e+00 3.261800e+00 8.853214e-01 -1.538624e+00 -1.193018e+00 -9.612192e-01 -8.157518e-01 -8.738161e-01 -8.942126e-01 -7.202713e-01 -4.342956e-01 -3.213433e-01 -4.342956e-01 -7.202713e-01 -8.942126e-01 -8.738161e-01 -8.157518e-01 -9.612192e-01 -1.193018e+00 -1.538624e+00 8.853214e-01 3.261800e+00 2.005538e+00 1.178582e+00 6.981415e-01 4.955562e-02 -2.517225e-01 
-6.592708e-01 -4.294293e-01 -2.207499e-01 4.891888e-01 7.224248e-01 2.661603e+00 3.115047e+00 -5.919277e-01 -1.191099e+00 -2.641359e-01 -4.961327e-01 -7.954516e-01 -9.475015e-01 -7.841797e-01 -5.549115e-01 -2.856676e-01 -1.948828e-01 -2.856676e-01 -5.549115e-01 -7.841797e-01 -9.475015e-01 -7.954516e-01 -4.961327e-01 -2.641359e-01 -1.191099e+00 -5.919277e-01 3.115047e+00 2.661603e+00 7.224248e-01 4.891888e-01 -2.207499e-01 -4.294293e-01 
-6.386542e-01 -4.997540e-01 -3.306166e-01 4.216847e-02 6.080640e-01 2.894607e+00 1.899166e+00 -1.095183e+00 -2.999660e-01 2.687207e-02 -2.948911e-01 -4.575791e-01 -6.468529e-01 -5.899419e-01 -4.830457e-01 -3.211894e-01 -2.650613e-01 -3.211894e-01 -4.830457e-01 -5.899419e-01 -6.468529e-01 -4.575791e-01 -2.948911e-01 2.687207e-02 -2.999660e-01 -1.095183e+00 1.899166e+00 2.894607e+00 6.080640e-01 4.216847e-02 -3.306166e-01 -4.997540e-01 
-4.402351e-01 -4.023717e-01 -2.921974e-01 -1.971356e-01 6.465707e-01 1.913851e+00 7.680193e-01 -5.024627e-01 2.231975e-02 1.272281e-02 -1.684069e-01 -2.914362e-01 -4.099735e-01 -3.602255e-01 -2.762322e-01 -1.729421e-01 -1.399647e-01 -1.729421e-01 -2.762322e-01 -3.602255e-01 -4.099735e-01 -2.914362e-01 -1.684069e-01 1.272281e-02 2.231975e-02 -5.024627e-01 7.680193e-01 1.913851e+00 6.465707e-01 -1.971356e-01 -2.921974e-01 -4.023717e-01 
-9.987585e-15 -2.842771e-14 -1.811956e-14 4.294781e-15 6.030062e-14 1.299109e-13 2.898618e-14 -8.475686e-14 -6.822644e-14 1.296945e-14 4.309743e-14 2.432379e-14 1.640921e-14 -1.917053e-15 3.200267e-15 -9.835828e-15 -1.083581e-15 -6.789338e-15 -6.322181e-15 -7.674877e-15 -1.394266e-14 -1.239285e-14 -4.410437e-15 3.387086e-14 1.278824e-13 5.331897e-14 -1.029164e-13 -1.065581e-13 -6.678387e-14 3.463524e-15 1.492394e-14 -1.020724e-15 
4.402351e-01 4.023717e-01 2.921974e-01 1.971356e-01 -6.465707e-01 -1.913851e+00 -7.680193e-01 5.024627e-01 -2.231975e-02 -1.272281e-02 1.684069e-01 2.914362e-01 4.099735e-01 3.602255e-01 2.762322e-01 1.729421e-01 1.399647e-01 1.729421e-01 2.762322e-01 3.602255e-01 4.099735e-01 2.914362e-01 1.684069e-01 -1.272281e-02 -2.231975e-02 5.024627e-01 -7.680193e-01 -1.913851e+00 -6.465707e-01 1.971356e-01 2.921974e-01 4.023717e-01 
6.386542e-01 4.997540e-01 3.306166e-01 -4.216847e-02 -6.080640e-01 -2.894607e+00 -1.899166e+00 1.095183e+00 2.999660e-01 -2.687207e-02 2.948911e-01 4.575791e-01 6.468529e-01 5.899419e-01 4.830457e-01 3.211894e-01 2.650613e-01 3.211894e-01 4.830457e-01 5.899419e-01 6.468529e-01 4.575791e-01 2.948911e-01 -2.687207e-02 2.999660e-01 1.095183e+00 -1.899166e+00 -2.894607e+00 -6.080640e-01 -4.216847e-02 3.306166e-01 4.997540e-01 
6.592708e-01 4.294293e-01 2.207499e-01 -4.891888e-01 -7.224248e-01 -2.661603e+00 -3.115047e+00 5.919277e-01 1.191099e+00 2.641359e-01 4.961327e-01 7.954516e-01 9.475015e-01 7.841797e-01 5.549115e-01 2.856676e-01 1.948828e-01 2.856676e-01 5.549115e-01 7.841797e-01 9.475015e-01 7.954516e-01 4.961327e-01 2.641359e-01 1.191099e+00 5.919277e-01 -3.115047e+00 -2.661603e+00 -7.224248e-01 -4.891888e-01 2.207499e-01 4.294293e-01 
4.706715e-01 2.517225e-01 -4.955562e-02 -6.981415e-01 -1.178582e+00 -2.005538e+00 -3.261800e+00 -8.853214e-01 1.538624e+00 1.193018e+00 9.612192e-01 8.157518e-01 8.738161e-01 8.942126e-01 7.202713e-01 4.342956e-01 3.213433e-01 4.342956e-01 7.202713e-01 8.942126e-01 8.738161e-01 8.157518e-01 9.612192e-01 1.193018e+00 1.538624e+00 -8.853214e-01 -3.261800e+00 -2.005538e+00 -1.178582e+00 -6.981415e-01 -4.955562e-02 2.517225e-01 
2.570515e-01 5.285665e-02 -2.552409e-01 -7.975394e-01 -1.325524e+00 -1.743741e+00 -2.815005e+00 -1.910251e+00 5.304492e-01 1.323865e+00 1.629029e+00 1.812741e+00 1.428298e+00 1.018090e+00 6.061284e-01 2.439787e-01 1.466781e-01 2.439787e-01 6.061284e-01 1.018090e+00 1.428298e+00 1.812741e+00 1.629029e+00 1.323865e+00 5.304492e-01 -1.910251e+00 -2.815005e+00 -1.743741e+00 -1.325524e+00 -7.975394e-01 -2.552409e-01 5.285665e-02 
9.907318e-03 -1.558225e-01 -4.316333e-01 -8.797732e-01 -1.323774e+00 -1.746677e+00 -2.233842e+00 -2.037091e+00 -4.717046e-01 9.130072e-01 1.186821e+00 1.489786e+00 1.625274e+00 1.529349e+00 1.250929e+00 8.872216e-01 7.859509e-01 8.872216e-01 1.250929e+00 1.529349e+00 1.625274e+00 1.489786e+00 1.186821e+00 9.130072e-01 -4.717046e-01 -2.037091e+00 -2.233842e+00 -1.746677e+00 -1.323774e+00 -8.797732e-01 -4.316333e-01 -1.558225e-01 
-1.663018e-01 -2.903969e-01 -5.103109e-01 -8.411275e-01 -1.193410e+00 -1.498893e+00 -1.890016e+00 -1.996401e+00 -1.130296e+00 2.702278e-01 1.087423e+00 1.279932e+00 1.206335e+00 1.423000e+00 1.637642e+00 1.653658e+00 1.751566e+00 1.653658e+00 1.637642e+00 1.423000e+00 1.206335e+00 1.279932e+00 1.087423e+00 2.702278e-01 -1.130296e+00 -1.996401e+00 -1.890016e+00 -1.498893e+00 -1.193410e+00 -8.411275e-01 -5.103109e-01 -2.903969e-01 
-2.986094e-01 -3.876618e-01 -5.431786e-01 -7.800144e-01 -1.017276e+00 -1.224228e+00 -1.455525e+00 -1.625499e+00 -1.517814e+00 -6.439069e-01 7.325360e-01 1.575027e+00 1.548949e+00 1.575015e+00 1.556572e+00 1.511268e+00 1.690082e+00 1.511268e+00 1.556572e+00 1.575015e+00 1.548949e+00 1.575027e+00 7.325360e-01 -6.439069e-01 -1.517814e+00 -1.625499e+00 -1.455525e+00 -1.224228e+00 -1.017276e+00 -7.800144e-01 -5.431786e-01 -3.876618e-01 
-3.614870e-01 -4.199435e-01 -5.286314e-01 -6.884569e-01 -8.547384e-01 -9.887781e-01 -1.104211e+00 -1.138420e+00 -1.068387e+00 -8.758920e-01 -3.877160e-01 5.420061e-01 1.297156e+00 1.813379e+00 1.909511e+00 1.756106e+00 1.835520e+00 1.756106e+00 1.909511e+00 1.813379e+00 1.297156e+00 5.420061e-01 -3.877160e-01 -8.758920e-01 -1.068387e+00 -1.138420e+00 -1.104211e+00 -9.887781e-01 -8.547384e-01 -6.884569e-01 -5.286314e-01 -4.199435e-01 
-3.791870e-01 -4.183269e-01 -4.869203e-01 -5.928609e-01 -6.989891e-01 -7.846236e-01 -8.498790e-01 -8.432458e-01 -7.560491e-01 -5.258243e-01 -1.864454e-01 2.168987e-01 5.698861e-01 1.153842e+00 1.667607e+00 1.794141e+00 1.860767e+00 1.794141e+00 1.667607e+00 1.153842e+00 5.698861e-01 2.168987e-01 -1.864454e-01 -5.258243e-01 -7.560491e-01 -8.432458e-01 -8.498790e-01 -7.846236e-01 -6.989891e-01 -5.928609e-01 -4.869203e-01 -4.183269e-01 
-3.587153e-01 -3.827908e-01 -4.285389e-01 -4.976145e-01 -5.698111e-01 -6.279657e-01 -6.704447e-01 -6.682670e-01 -6.159803e-01 -4.947910e-01 -3.123621e-01 1.086511e-02 3.698775e-01 8.622733e-01 1.458332e+00 1.798291e+00 1.896571e+00 1.798291e+00 1.458332e+00 8.622733e-01 3.698775e-01 1.086511e-02 -3.123621e-01 -4.947910e-01 -6.159803e-01 -6.682670e-01 -6.704447e-01 -6.279657e-01 -5.698111e-01 -4.976145e-01 -4.285389e-01 -3.827908e-01 
-3.103136e-01 -3.260194e-01 -3.534489e-01 -3.974928e-01 -4.426301e-01 -4.796279e-01 -5.075078e-01 -5.054707e-01 -4.776627e-01 -4.015591e-01 -2.908183e-01 -1.212568e-01 1.044405e-01 5.017991e-01 1.143505e+00 1.729628e+00 1.958559e+00 1.729628e+00 1.143505e+00 5.017991e-01 1.044405e-01 -1.212568e-01 -2.908183e-01 -4.015591e-01 -4.776627e-01 -5.054707e-01 -5.075078e-01 -4.796279e-01 -4.426301e-01 -3.974928e-01 -3.534489e-01 -3.260194e-01 
-2.471370e-01 -2.564217e-01 -2.746053e-01 -3.031176e-01 -3.344520e-01 -3.623155e-01 -3.871616e-01 -3.985432e-01 -3.998946e-01 -3.755970e-01 -3.246327e-01 -1.977563e-01 1.106951e-02 3.521209e-01 9.092536e-01 1.541630e+00 1.847983e+00 1.541630e+00 9.092536e-01 3.521209e-01 1.106951e-02 -1.977563e-01 -3.246327e-01 -3.755970e-01 -3.998946e-01 -3.985432e-01 -3.871616e-01 -3.623155e-01 -3.344520e-01 -3.031176e-01 -2.746053e-01 -2.564217e-01 
-1.692797e-01 -1.748660e-01 -1.848060e-01 -2.014380e-01 -2.197237e-01 -2.370261e-01 -2.545157e-01 -2.664221e-01 -2.772751e-01 -2.754195e-01 -2.563983e-01 -1.896800e-01 -5.436735e-02 1.977976e-01 6.129577e-01 1.147054e+00 1.437537e+00 1.147054e+00 6.129577e-01 1.977976e-01 -5.436735e-02 -1.896800e-01 -2.563983e-01 -2.754195e-01 -2.772751e-01 -2.664221e-01 -2.545157e-01 -2.370261e-01 -2.197237e-01 -2.014380e-01 -1.848060e-01 -1.748660e-01 
-8.701162e-02 -8.947241e-02 -9.446979e-02 -1.025467e-01 -1.120386e-01 -1.216375e-01 -1.322939e-01 -1.417760e-01 -1.519874e-01 -1.558369e-01 -1.486339e-01 -1.105293e-01 -3.262679e-02 1.047231e-01 3.221538e-01 6.170756e-01 7.868046e-01 6.170756e-01 3.221538e-01 1.047231e-01 -3.262679e-02 -1.105293e-01 -1.486339e-01 -1.558369e-01 -1.519874e-01 -1.417760e-01 -1.322939e-01 -1.216375e-01 -1.120386e-01 -1.025467e-01 -9.446979e-02 -8.947241e-02 
