# vtk DataFile Version 2.0
Comment goes here
ASCII

DATASET STRUCTURED_POINTS
FIELD FieldData 1
TIME 1 1 double
0.02000000
DIMENSIONS    32   32   1

ORIGIN    0.000   0.000   0.000
SPACING   0.03125 0.03125   1.000

POINT_DATA   1024
SCALARS uY double
LOOKUP_TABLE default

6.148747e-16 1.634731e-15 8.966512e-16 1.427068e-15 -3.818951e-16 4.365261e-16 -1.325686e-15 6.913921e-18 -1.977469e-15 1.676625e-16 -3.191504e-15 -9.333958e-16 -2.634941e-15 -5.649695e-16 6.122513e-16 -6.920531e-15 8.254486e-15 -2.879274e-15 -3.408775e-15 -3.969509e-17 1.303240e-15 7.929198e-16 4.111661e-16 1.977612e-15 1.198333e-15 2.382962e-15 1.685028e-15 2.741650e-15 1.098434e-15 1.772227e-15 4.069677e-16 9.078681e-16 
-1.616490e-01 -1.637927e-01 -1.707473e-01 -1.811193e-01 -1.962385e-01 -2.117193e-01 -2.294356e-01 -2.405907e-01 -2.430234e-01 -2.231053e-01 -1.686941e-01 -6.004321e-02 1.247854e-01 2.572952e-01 5.258637e-01 8.230752e-01 8.766285e-01 8.230752e-01 5.258637e-01 2.572952e-01 1.247854e-01 -6.004321e-02 -1.686941e-01 -2.231053e-01 -2.430234e-01 -2.405907e-01 -2.294356e-01 -2.117193e-01 -1.962385e-01 -1.811193e-01 -1.707473e-01 -1.637927e-01 
-3.232595e-01 -3.295128e-01 -3.428375e-01 -3.676705e-01 -3.994216e-01 -4.389885e-01 -4.807111e-01 -5.207331e-01 -5.404618e-01 -5.284469e-01 -4.351493e-01 -1.794738e-01 3.323921e-01 1.222943e+00 1.564425e+00 1.141882e+00 9.267873e-01 1.141882e+00 1.564425e+00 1.222943e+00 3.323921e-01 -1.794738e-01 -4.351493e-01 -5.284469e-01 -5.404618e-01 -5.207331e-01 -4.807111e-01 -4.389885e-01 -3.994216e-01 -3.676705e-01 -3.428375e-01 -3.295128e-01 
-4.667381e-01 -4.740297e-01 -4.958414e-01 -5.300783e-01 -5.810268e-01 -6.369767e-01 -7.081045e-01 -7.684954e-01 -8.178415e-01 -8.172842e-01 -7.281268e-01 -3.364192e-01 3.293928e-01 5.125345e-01 1.239867e+00 3.050749e+00 3.990101e+00 3.050749e+00 1.239867e+00 5.125345e-01 3.293928e-01 -3.364192e-01 -7.281268e-01 -8.172842e-01 -8.178415e-01 -7.684954e-01 -7.081045e-01 -6.369767e-01 -5.810268e-01 -5.300783e-01 -4.958414e-01 -4.740297e-01 
-6.074231e-01 -6.209224e-01 -6.487466e-01 -7.022592e-01 -7.742260e-01 -8.676538e-01 -9.827959e-01 -1.114629e+00 -1.243574e+00 -1.409202e+00 -1.429303e+00 -1.130141e+00 -4.095191e-01 1.585873e+00 3.941030e+00 4.258934e+00 3.701692e+00 4.258934e+00 3.941030e+00 1.585873e+00 -4.095191e-01 -1.130141e+00 -1.429303e+00 -1.409202e+00 -1.243574e+00 -1.114629e+00 -9.827959e-01 -8.676538e-01 -7.742260e-01 -7.022592e-01 -6.487466e-01 -6.209224e-01 
-7.135954e-01 -7.281553e-01 -7.648424e-01 -8.281322e-01 -9.239315e-01 -1.037871e+00 -1.204247e+00 -1.380040e+00 -1.606444e+00 -1.926679e+00 -1.749091e+00 -2.299590e-01 2.338891e+00 4.399573e+00 3.768596e+00 1.731263e+00 9.957333e-01 1.731263e+00 3.768596e+00 4.399573e+00 2.338891e+00 -2.299590e-01 -1.749091e+00 -1.926679e+00 -1.606444e+00 -1.380040e+00 -1.204247e+00 -1.037871e+00 -9.239315e-01 -8.281322e-01 -7.648424e-01 -7.281553e-01 
-8.090114e-01 -8.310404e-01 -8.706166e-01 -9.528325e-01 -1.066121e+00 -1.215172e+00 -1.431595e+00 -1.664813e+00 -2.039149e+00 -2.323195e+00 -9.062009e-01 2.022324e+00 4.173319e+00 3.922051e+00 1.934760e+00 1.042678e+00 1.220217e+00 1.042678e+00 1.934760e+00 3.922051e+00 4.173319e+00 2.022324e+00 -9.062009e-01 -2.323195e+00 -2.039149e+00 -1.664813e+00 -1.431595e+00 -1.215172e+00 -1.066121e+00 -9.528325e-01 -8.706166e-01 -8.310404e-01 
-8.579582e-01 -8.822278e-01 -9.260694e-01 -1.016258e+00 -1.145863e+00 -1.306566e+00 -1.575680e+00 -1.799049e+00 -2.330653e+00 -1.831295e+00 8.461551e-01 3.820198e+00 4.498698e+00 2.360060e+00 7.638634e-01 6.551392e-01 5.970561e-01 6.551392e-01 7.638634e-01 2.360060e+00 4.498698e+00 3.820198e+00 8.461551e-01 -1.831295e+00 -2.330653e+00 -1.799049e+00 -1.575680e+00 -1.306566e+00 -1.145863e+00 -1.016258e+00 -9.260694e-01 -8.822278e-01 
-8.874129e-01 -9.193382e-01 -9.586910e-01 -1.062572e+00 -1.188742e+00 -1.373590e+00 -1.636889e+00 -1.890243e+00 -2.242045e+00 -8.134653e-01 2.325971e+00 4.699626e+00 3.780482e+00 9.366011e-01 1.720331e-01 4.229812e-01 3.831753e-01 4.229812e-01 1.720331e-01 9.366011e-01 3.780482e+00 4.699626e+00 2.325971e+00 -8.134653e-01 -2.242045e+00 -1.890243e+00 -1.636889e+00 -1.373590e+00 -1.188742e+00 -1.062572e+00 -9.586910e-01 -9.193382e-01 
-8.661349e-01 -9.022476e-01 -9.357814e-01 -1.047856e+00 -1.159005e+00 -1.368962e+00 -1.581329e+00 -1.894103e+00 -1.782338e+00 2.684486e-01 3.395467e+00 4.725678e+00 2.373231e+00 1.047709e-01 4.607933e-02 1.142705e-01 1.534862e-01 1.142705e-01 4.607933e-02 1.047709e-01 2.373231e+00 4.725678e+00 3.395467e+00 2.684486e-01 -1.782338e+00 -1.894103e+00 -1.581329e+00 -1.368962e+00 -1.159005e+00 -1.047856e+00 -9.357814e-01 -9.022476e-01 
-8.232304e-01 -8.643917e-01 -8.878786e-01 -1.004444e+00 -1.091725e+00 -1.311442e+00 -1.455137e+00 -1.756462e+00 -1.197652e+00 1.126544e+00 3.809674e+00 4.119621e+00 1.186888e+00 -2.561987e-01 7.468805e-03 -5.322515e-02 7.995482e-02 -5.322515e-02 7.468805e-03 -2.561987e-01 1.186888e+00 4.119621e+00 3.809674e+00 1.126544e+00 -1.197652e+00 -1.756462e+00 -1.455137e+00 -1.311442e+00 -1.091725e+00 -1.004444e+00 -8.878786e-01 -8.643917e-01 
-7.351306e-01 -7.767492e-01 -7.919807e-01 -9.042536e-01 -9.694780e-01 -1.182067e+00 -1.271238e+00 -1.518293e+00 -6.802170e-01 1.709205e+00 3.719324e+00 3.227893e+00 4.483529e-01 -3.815694e-01 -7.526107e-02 -1.741661e-01 -2.387328e-02 -1.741661e-01 -7.526107e-02 -3.815694e-01 4.483529e-01 3.227893e+00 3.719324e+00 1.709205e+00 -6.802170e-01 -1.518293e+00 -1.271238e+00 -1.182067e+00 -9.694780e-01 -9.042536e-01 -7.919807e-01 -7.767492e-01 
-6.298962e-01 -6.693007e-01 -6.781104e-01 -7.791194e-01 -8.291065e-01 -1.018083e+00 -1.083780e+00 -1.250486e+00 -3.382807e-01 1.972755e+00 3.304289e+00 2.306747e+00 9.744610e-02 -3.633266e-01 -1.263592e-01 -1.991861e-01 -6.229899e-02 -1.991861e-01 -1.263592e-01 -3.633266e-01 9.744610e-02 2.306747e+00 3.304289e+00 1.972755e+00 -3.382807e-01 -1.250486e+00 -1.083780e+00 -1.018083e+00 -8.291065e-01 -7.791194e-01 -6.781104e-01 -6.693007e-01 
-4.907965e-01 -5.235622e-01 -5.281258e-01 -6.091438e-01 -6.450706e-01 -7.920522e-01 -8.359976e-01 -9.031374e-01 -7.520873e-02 1.857306e+00 2.577593e+00 1.445985e+00 -5.811527e-02 -2.872575e-01 -1.446995e-01 -1.881383e-01 -8.995463e-02 -1.881383e-01 -1.446995e-01 -2.872575e-01 -5.811527e-02 1.445985e+00 2.577593e+00 1.857306e+00 -7.520873e-02 -9.031374e-01 -8.359976e-01 -7.920522e-01 -6.450706e-01 -6.091438e-01 -5.281258e-01 -5.235622e-01 
-3.404232e-01 -3.639391e-01 -3.659977e-01 -4.221308e-01 -4.456552e-01 -5.429553e-01 -5.687297e-01 -5.744067e-01 3.045820e-02 1.391161e+00 1.735764e+00 8.262123e-01 -7.057739e-02 -1.813029e-01 -1.096132e-01 -1.326383e-01 -7.087488e-02 -1.326383e-01 -1.096132e-01 -1.813029e-01 -7.057739e-02 8.262123e-01 1.735764e+00 1.391161e+00 3.045820e-02 -5.744067e-01 -5.687297e-01 -5.429553e-01 -4.456552e-01 -4.221308e-01 -3.659977e-01 -3.639391e-01 
-1.721848e-01 -1.843841e-01 -1.851360e-01 -2.137921e-01 -2.255025e-01 -2.740637e-01 -2.864033e-01 -2.783076e-01 3.995346e-02 7.408171e-01 8.742070e-01 3.712097e-01 -4.749187e-02 -9.008613e-02 -6.205525e-02 -7.139322e-02 -4.295817e-02 -7.139322e-02 -6.205525e-02 -9.008613e-02 -4.749187e-02 3.712097e-01 8.742070e-01 7.408171e-01 3.995346e-02 -2.783076e-01 -2.864033e-01 -2.740637e-01 -2.255025e-01 -2.137921e-01 -1.851360e-01 -1.843841e-01 
-1.653145e-15 -2.023600e-15 -1.749027e-15 -3.721411e-15 -4.681229e-15 -8.507439e-15 -1.221239e-14 -1.733869e-14 -6.813361e-15 3.165051e-14 4.444799e-14 1.022532e-14 -6.559667e-15 -3.462633e-15 -4.235424e-15 -1.045946e-15 -3.216272e-15 -8.618324e-16 -3.222114e-15 -1.788896e-15 -1.233638e-14 -1.650823e-14 2.534229e-14 3.941411e-14 -8.793481e-16 -1.276456e-14 -3.850538e-15 -4.516635e-15 -2.479695e-15 -3.097314e-15 -2.340534e-15 -2.742480e-15 
1.721848e-01 1.843841e-01 1.851360e-01 2.137921e-01 2.255025e-01 2.740637e-01 2.864033e-01 2.783076e-01 -3.995346e-02 -7.408171e-01 -8.742070e-01 -3.712097e-01 4.749187e-02 9.008613e-02 6.205525e-02 7.139322e-02 4.295817e-02 7.139322e-02 6.205525e-02 9.008613e-02 4.749187e-02 -3.712097e-01 -8.742070e-01 -7.408171e-01 -3.995346e-02 2.783076e-01 2.864033e-01 2.740637e-01 2.255025e-01 2.137921e-01 1.851360e-01 1.843841e-01 
3.404232e-01 3.639391e-01 3.659977e-01 4.221308e-01 4.456552e-01 5.429553e-01 5.687297e-01 5.744067e-01 -3.045820e-02 -1.391161e+00 -1.735764e+00 -8.262123e-01 7.057739e-02 1.813029e-01 1.096132e-01 1.326383e-01 7.087488e-02 1.326383e-01 1.096132e-01 1.813029e-01 7.057739e-02 -8.262123e-01 -1.735764e+00 -1.391161e+00 -3.045820e-02 5.744067e-01 5.687297e-01 5.429553e-01 4.456552e-01 4.221308e-01 3.659977e-01 3.639391e-01 
4.907965e-01 5.235622e-01 5.281258e-01 6.091438e-01 6.450706e-01 7.920522e-01 8.359976e-01 9.031374e-01 7.520873e-02 -1.857306e+00 -2.577593e+00 -1.445985e+00 5.811527e-02 2.872575e-01 1.446995e-01 1.881383e-01 8.995463e-02 1.881383e-01 1.446995e-01 2.872575e-01 5.811527e-02 -1.445985e+00 -2.577593e+00 -1.857306e+00 7.520873e-02 9.031374e-01 8.359976e-01 7.920522e-01 6.450706e-01 6.091438e-01 5.281258e-01 5.235622e-01 
6.298962e-01 6.693007e-01 6.781104e-01 7.791194e-01 8.291065e-01 1.018083e+00 1.083780e+00 1.250486e+00 3.382807e-01 -1.972755e+00 -3.304289e+00 -2.306747e+00 -9.744610e-02 3.633266e-01 1.263592e-01 1.991861e-01 6.229899e-02 1.991861e-01 1.263592e-01 3.633266e-01 -9.744610e-02 -2.306747e+00 -3.304289e+00 -1.972755e+00 3.382807e-01 1.250486e+00 1.083780e+00 1.018083e+00 8.291065e-01 7.791194e-01 6.781104e-01 6.693007e-01 
7.351306e-01 7.767492e-01 7.919807e-01 9.042536e-01 9.694780e-01 1.182067e+00 1.271238e+00 1.518293e+00 6.802170e-01 -1.709205e+00 -3.719324e+00 -3.227893e+00 -4.483529e-01 3.815694e-01 7.526107e-02 1.741661e-01 2.387328e-02 1.741661e-01 7.526107e-02 3.815694e-01 -4.483529e-01 -3.227893e+00 -3.719324e+00 -1.709205e+00 6.802170e-01 1.518293e+00 1.271238e+00 1.182067e+00 9.694780e-01 9.042536e-01 7.919807e-01 7.767492e-01 
8.232304e-01 8.643917e-01 8.878786e-01 1.004444e+00 1.091725e+00 1.311442e+00 1.455137e+00 1.756462e+00 1.197652e+00 -1.126544e+00 -3.809674e+00 -4.119621e+00 -1.186888e+00 2.561987e-01 -7.468805e-03 5.322515e-02 -7.995482e-02 5.322515e-02 -7.468805e-03 2.561987e-01 -1.186888e+00 -4.119621e+00 -3.809674e+00 -1.126544e+00 1.197652e+00 1.756462e+00 1.455137e+00 1.311442e+00 1.091725e+00 1.004444e+00 8.878786e-01 8.643917e-01 
8.661349e-01 9.022476e-01 9.357814e-01 1.047856e+00 1.159005e+00 1.368962e+00 1.581329e+00 1.894103e+00 1.782338e+00 -2.684486e-01 -3.395467e+00 -4.725678e+00 -2.373231e+00 -1.047709e-01 -4.607933e-02 -1.142705e-01 -1.534862e-01 -1.142705e-01 -4.607933e-02 -1.047709e-01 -2.373231e+00 -4.725678e+00 -3.395467e+00 -2.684486e-01 1.782338e+00 1.894103e+00 1.581329e+00 1.368962e+00 1.159005e+00 1.047856e+00 9.357814e-01 9.022476e-01 
8.874129e-01 9.193382e-01 9.586910e-01 1.062572e+00 1.188742e+00 1.373590e+00 1.636889e+00 1.890243e+00 2.242045e+00 8.134653e-01 -2.325971e+00 -4.699626e+00 -3.780482e+00 -9.366011e-01 -1.720331e-01 -4.229812e-01 -3.831753e-01 -4.229812e-01 -1.720331e-01 -9.366011e-01 -3.780482e+00 -4.699626e+00 -2.325971e+00 8.134653e-01 2.242045e+00 1.890243e+00 1.636889e+00 1.373590e+00 1.188742e+00 1.062572e+00 9.586910e-01 9.193382e-01 
8.579582e-01 8.822278e-01 9.260694e-01 1.016258e+00 1.145863e+00 1.306566e+00 1.575680e+00 1.799049e+00 2.330653e+00 1.831295e+00 -8.461551e-01 -3.820198e+00 -4.498698e+00 -2.360060e+00 -7.638634e-01 -6.551392e-01 -5.970561e-01 -6.551392e-01 -7.638634e-01 -2.360060e+00 -4.498698e+00 -3.820198e+00 -8.461551e-01 1.831295e+00 2.330653e+00 1.799049e+00 1.575680e+00 1.306566e+00 1.145863e+00 1.016258e+00 9.260694e-01 8.822278e-01 
8.090114e-01 8.310404e-01 8.706166e-01 9.528325e-01 1.066121e+00 1.215172e+00 1.431595e+00 1.664813e+00 2.039149e+00 2.323195e+00 9.062009e-01 -2.022324e+00 -4.173319e+00 -3.922051e+00 -1.934760e+00 -1.042678e+00 -1.220217e+00 -1.042678e+00 -1.934760e+00 -3.922051e+00 -4.173319e+00 -2.022324e+00 9.062009e-01 2.323195e+00 2.039149e+00 1.664813e+00 1.431595e+00 1.215172e+00 1.066121e+00 9.528325e-01 8.706166e-01 8.310404e-01 
7.135954e-01 7.281553e-01 7.648424e-01 8.281322e-01 9.239315e-01 1.037871e+00 1.204247e+00 1.380040e+00 1.606444e+00 1.926679e+00 1.749091e+00 2.299590e-01 -2.338891e+00 -4.399573e+00 -3.768596e+00 -1.731263e+00 -9.957333e-01 -1.731263e+00 -3.768596e+00 -4.399573e+00 -2.338891e+00 2.299590e-01 1.749091e+00 1.926679e+00 1.606444e+00 1.380040e+00 1.204247e+00 1.037871e+00 9.239315e-01 8.281322e-01 7.648424e-01 7.281553e-01 
6.074231e-01 6.209224e-01 6.487466e-01 7.022592e-01 7.742260e-01 8.676538e-01 9.827959e-01 1.114629e+00 1.243574e+00 1.409202e+00 1.429303e+00 1.130141e+00 4.095191e-01 -1.585873e+00 -3.941030e+00 -4.258934e+00 -3.701692e+00 -4.258934e+00 -3.941030e+00 -1.585873e+00 4.095191e-01 1.130141e+00 1.429303e+00 1.409202e+00 1.243574e+00 1.114629e+00 9.827959e-01 8.676538e-01 7.742260e-01 7.022592e-01 6.487466e-01 6.209224e-01 
4.667381e-01 4.740297e-01 4.958414e-01 5.300783e-01 5.810268e-01 6.369767e-01 7.081045e-01 7.684954e-01 8.178415e-01 8.172842e-01 7.281268e-01 3.364192e-01 -3.293928e-01 -5.125345e-01 -1.239867e+00 -3.050749e+00 -3.990101e+00 -3.050749e+00 -1.239867e+00 -5.125345e-01 -3.293928e-01 3.364192e-01 7.281268e-01 8.172842e-01 8.178415e-01 7.684954e-01 7.081045e-01 6.369767e-01 5.810268e-01 5.300783e-01 4.958414e-01 4.740297e-01 
3.232595e-01 3.295128e-01 3.428375e-01 3.676705e-01 3.994216e-01 4.389885e-01 4.807111e-01 5.207331e-01 5.404618e-01 5.284469e-01 4.351493e-01 1.794738e-01 -3.323921e-01 -1.222943e+00 -1.564425e+00 -1.141882e+00 -9.267873e-01 -1.141882e+00 -1.564425e+00 -1.222943e+00 -3.323921e-01 1.794738e-01 4.351493e-01 5.284469e-01 5.404618e-01 5.207331e-01 4.807111e-01 4.389885e-01 3.994216e-01 3.676705e-01 3.428375e-01 3.295128e-01 
1.616490e-01 1.637927e-01 1.707473e-01 1.811193e-01 1.962385e-01 2.117193e-01 2.294356e-01 2.405907e-01 2.430234e-01 2.231053e-01 1.686941e-01 6.004321e-02 -1.247854e-01 -2.572952e-01 -5.258637e-01 -8.230752e-01 -8.766285e-01 -8.230752e-01 -5.258637e-01 -2.572952e-01 -1.247854e-01 6.004321e-02 1.686941e-01 2.231053e-01 2.430234e-01 2.405907e-01 2.294356e-01 2.117193e-01 1.962385e-01 1.811193e-01 1.707473e-01 1.637927e-01 
