# vtk DataFile Version 2.0
Comment goes here
ASCII

DATASET STRUCTURED_POINTS
FIELD FieldData 1
TIME 1 1 double
0.82000000
DIMENSIONS    32   32   1

ORIGIN    0.000   0.000   0.000
SPACING   0.03125 0.03125   1.000

POINT_DATA   1024
SCALARS uY double
LOOKUP_TABLE default

-4.470607e-16 -1.839691e-15 -4.954846e-15 -4.446198e-15 -6.710326e-15 -5.682588e-15 -9.583470e-15 -8.112525e-15 -1.389557e-14 -7.901290e-15 -7.671703e-15 4.295773e-15 7.039315e-15 1.136374e-14 8.611554e-15 4.126757e-15 8.450266e-15 -4.425704e-14 -4.986639e-15 -9.537918e-15 -6.461558e-15 1.377009e-14 9.439422e-15 2.223390e-14 1.473179e-14 1.891386e-14 1.166223e-14 1.257229e-14 7.984394e-15 9.092331e-15 5.396337e-15 4.053857e-15 
-4.533287e-02 -3.933327e-02 -2.238782e-02 3.926198e-03 3.883181e-02 7.810938e-02 1.209426e-01 1.566466e-01 1.839547e-01 1.906552e-01 1.787239e-01 1.328544e-01 4.580673e-02 -8.966570e-02 -2.733294e-01 -4.331928e-01 -4.997521e-01 -4.331928e-01 -2.733294e-01 -8.966570e-02 4.580673e-02 1.328544e-01 1.787239e-01 1.906552e-01 1.839547e-01 1.566466e-01 1.209426e-01 7.810938e-02 3.883181e-02 3.926198e-03 -2.238782e-02 -3.933327e-02 
-9.791257e-02 -8.553305e-02 -5.190848e-02 -1.583859e-04 6.677430e-02 1.409861e-01 2.220991e-01 2.895022e-01 3.434610e-01 3.557990e-01 3.374394e-01 2.492882e-01 9.245618e-02 -1.684582e-01 -5.177551e-01 -7.814259e-01 -8.872203e-01 -7.814259e-01 -5.177551e-01 -1.684582e-01 9.245618e-02 2.492882e-01 3.374394e-01 3.557990e-01 3.434610e-01 2.895022e-01 2.220991e-01 1.409861e-01 6.677430e-02 -1.583859e-04 -5.190848e-02 -8.553305e-02 
-1.784171e-01 -1.597720e-01 -1.103267e-01 -3.688298e-02 5.398878e-02 1.505114e-01 2.536973e-01 3.377503e-01 4.056577e-01 4.230838e-01 4.090958e-01 3.213275e-01 1.619308e-01 -9.846419e-02 -5.198728e-01 -9.375539e-01 -1.129925e+00 -9.375539e-01 -5.198728e-01 -9.846419e-02 1.619308e-01 3.213275e-01 4.090958e-01 4.230838e-01 4.056577e-01 3.377503e-01 2.536973e-01 1.505114e-01 5.398878e-02 -3.688298e-02 -1.103267e-01 -1.597720e-01 
-2.772852e-01 -2.501163e-01 -1.825399e-01 -8.443213e-02 2.926570e-02 1.441287e-01 2.634115e-01 3.588236e-01 4.435626e-01 4.734913e-01 4.921477e-01 4.156431e-01 2.743593e-01 -7.999162e-02 -6.240362e-01 -9.775465e-01 -1.115056e+00 -9.775465e-01 -6.240362e-01 -7.999162e-02 2.743593e-01 4.156431e-01 4.921477e-01 4.734913e-01 4.435626e-01 3.588236e-01 2.634115e-01 1.441287e-01 2.926570e-02 -8.443213e-02 -1.825399e-01 -2.501163e-01 
-4.208351e-01 -3.840226e-01 -2.953804e-01 -1.722258e-01 -4.017626e-02 8.078897e-02 1.964354e-01 2.780674e-01 3.491452e-01 3.675063e-01 3.979107e-01 3.221109e-01 2.585531e-01 2.439813e-01 -1.039892e-01 -7.362065e-01 -1.104162e+00 -7.362065e-01 -1.039892e-01 2.439813e-01 2.585531e-01 3.221109e-01 3.979107e-01 3.675063e-01 3.491452e-01 2.780674e-01 1.964354e-01 8.078897e-02 -4.017626e-02 -1.722258e-01 -2.953804e-01 -3.840226e-01 
-5.859938e-01 -5.349191e-01 -4.191192e-01 -2.603830e-01 -1.037824e-01 2.768393e-02 1.391960e-01 2.069944e-01 2.671161e-01 3.017453e-01 4.130734e-01 4.169774e-01 3.942114e-01 -1.370856e-01 -6.548189e-01 -2.101351e-02 5.142409e-01 -2.101351e-02 -6.548189e-01 -1.370856e-01 3.942114e-01 4.169774e-01 4.130734e-01 3.017453e-01 2.671161e-01 2.069944e-01 1.391960e-01 2.768393e-02 -1.037824e-01 -2.603830e-01 -4.191192e-01 -5.349191e-01 
-7.919922e-01 -7.251717e-01 -5.766197e-01 -3.776069e-01 -1.937062e-01 -5.781545e-02 3.614950e-02 5.989639e-02 5.622616e-02 4.827314e-02 6.484754e-02 -4.021969e-01 -9.398885e-01 -4.236687e-01 1.029823e+00 1.878290e+00 1.838329e+00 1.878290e+00 1.029823e+00 -4.236687e-01 -9.398885e-01 -4.021969e-01 6.484754e-02 4.827314e-02 5.622616e-02 5.989639e-02 3.614950e-02 -5.781545e-02 -1.937062e-01 -3.776069e-01 -5.766197e-01 -7.251717e-01 
-1.003850e+00 -9.166136e-01 -7.317483e-01 -4.810571e-01 -2.627159e-01 -1.154816e-01 -3.957244e-02 -7.654523e-02 -1.878737e-01 -2.492607e-01 -5.202498e-01 -6.917137e-01 4.775631e-01 1.735415e+00 1.561203e+00 7.952573e-01 4.106372e-01 7.952573e-01 1.561203e+00 1.735415e+00 4.775631e-01 -6.917137e-01 -5.202498e-01 -2.492607e-01 -1.878737e-01 -7.654523e-02 -3.957244e-02 -1.154816e-01 -2.627159e-01 -4.810571e-01 -7.317483e-01 -9.166136e-01 
-1.221516e+00 -1.115154e+00 -8.925356e-01 -5.875815e-01 -3.290646e-01 -1.675360e-01 -9.945668e-02 -2.389046e-01 -3.855554e-01 -2.005351e-01 1.457715e-01 7.150457e-01 1.539314e+00 1.125293e+00 3.735424e-01 4.693731e-01 5.174847e-01 4.693731e-01 3.735424e-01 1.125293e+00 1.539314e+00 7.150457e-01 1.457715e-01 -2.005351e-01 -3.855554e-01 -2.389046e-01 -9.945668e-02 -1.675360e-01 -3.290646e-01 -5.875815e-01 -8.925356e-01 -1.115154e+00 
-1.403079e+00 -1.276972e+00 -1.024688e+00 -6.605439e-01 -3.605674e-01 -1.700029e-01 -8.857402e-02 -3.419811e-01 -9.156204e-02 4.021513e-01 3.856189e-01 5.552303e-01 9.423427e-01 7.084845e-01 5.286901e-01 7.836341e-01 8.205593e-01 7.836341e-01 5.286901e-01 7.084845e-01 9.423427e-01 5.552303e-01 3.856189e-01 4.021513e-01 -9.156204e-02 -3.419811e-01 -8.857402e-02 -1.700029e-01 -3.605674e-01 -6.605439e-01 -1.024688e+00 -1.276972e+00 
-1.530027e+00 -1.393031e+00 -1.122902e+00 -7.076158e-01 -3.738304e-01 -1.210722e-01 -4.047910e-02 -1.564440e-01 5.857742e-01 4.279020e-01 5.471947e-02 9.481816e-01 8.646894e-01 3.296662e-01 3.994321e-01 6.724128e-01 7.952210e-01 6.724128e-01 3.994321e-01 3.296662e-01 8.646894e-01 9.481816e-01 5.471947e-02 4.279020e-01 5.857742e-01 -1.564440e-01 -4.047910e-02 -1.210722e-01 -3.738304e-01 -7.076158e-01 -1.122902e+00 -1.393031e+00 
-1.563952e+00 -1.423578e+00 -1.162928e+00 -7.094965e-01 -3.694283e-01 4.695546e-03 -2.231602e-02 3.241135e-01 9.699819e-01 -1.110659e-01 2.356259e-01 1.088651e+00 4.497120e-01 2.548376e-01 3.590914e-01 5.718430e-01 6.444741e-01 5.718430e-01 3.590914e-01 2.548376e-01 4.497120e-01 1.088651e+00 2.356259e-01 -1.110659e-01 9.699819e-01 3.241135e-01 -2.231602e-02 4.695546e-03 -3.694283e-01 -7.094965e-01 -1.162928e+00 -1.423578e+00 
-1.473273e+00 -1.348005e+00 -1.115825e+00 -6.733151e-01 -3.402505e-01 1.240810e-01 9.697130e-02 8.673434e-01 8.892566e-01 -5.752398e-01 6.790631e-01 9.875508e-01 1.574703e-01 2.442112e-01 1.782985e-01 3.733737e-01 3.833054e-01 3.733737e-01 1.782985e-01 2.442112e-01 1.574703e-01 9.875508e-01 6.790631e-01 -5.752398e-01 8.892566e-01 8.673434e-01 9.697130e-02 1.240810e-01 -3.402505e-01 -6.733151e-01 -1.115825e+00 -1.348005e+00 
-1.213547e+00 -1.120401e+00 -9.476457e-01 -5.833390e-01 -2.707261e-01 2.073415e-01 3.136409e-01 9.502417e-01 5.162208e-01 -5.931842e-01 8.152476e-01 7.448198e-01 -6.216728e-03 1.635881e-01 7.949340e-02 2.309331e-01 2.135187e-01 2.309331e-01 7.949340e-02 1.635881e-01 -6.216728e-03 7.448198e-01 8.152476e-01 -5.931842e-01 5.162208e-01 9.502417e-01 3.136409e-01 2.073415e-01 -2.707261e-01 -5.833390e-01 -9.476457e-01 -1.120401e+00 
-7.371515e-01 -6.830458e-01 -5.677283e-01 -3.210228e-01 -7.591107e-02 2.426959e-01 3.201411e-01 4.929126e-01 1.422393e-01 -2.540014e-01 5.471831e-01 3.751658e-01 -3.615640e-02 5.834352e-02 2.756241e-03 8.895218e-02 7.210345e-02 8.895218e-02 2.756241e-03 5.834352e-02 -3.615640e-02 3.751658e-01 5.471831e-01 -2.540014e-01 1.422393e-01 4.929126e-01 3.201411e-01 2.426959e-01 -7.591107e-02 -3.210228e-01 -5.677283e-01 -6.830458e-01 
5.786747e-15 1.372045e-14 -1.455975e-16 -2.981714e-14 -5.439308e-14 -5.729782e-14 -3.096056e-14 8.273812e-15 7.009523e-15 -5.129132e-14 -1.546682e-14 -3.388298e-14 -2.630709e-14 -3.303837e-14 -1.444117e-14 -1.068689e-14 -9.544574e-15 2.667436e-15 -1.864322e-14 1.078034e-15 -2.877003e-14 1.280721e-14 -2.455678e-14 1.484254e-13 2.276951e-13 9.294840e-14 6.744197e-14 2.436658e-14 -2.410851e-14 -5.094992e-14 -4.199173e-14 -1.867751e-14 
7.371515e-01 6.830458e-01 5.677283e-01 3.210228e-01 7.591107e-02 -2.426959e-01 -3.201411e-01 -4.929126e-01 -1.422393e-01 2.540014e-01 -5.471831e-01 -3.751658e-01 3.615640e-02 -5.834352e-02 -2.756241e-03 -8.895218e-02 -7.210345e-02 -8.895218e-02 -2.756241e-03 -5.834352e-02 3.615640e-02 -3.751658e-01 -5.471831e-01 2.540014e-01 -1.422393e-01 -4.929126e-01 -3.201411e-01 -2.426959e-01 7.591107e-02 3.210228e-01 5.677283e-01 6.830458e-01 
1.213547e+00 1.120401e+00 9.476457e-01 5.833390e-01 2.707261e-01 -2.073415e-01 -3.136409e-01 -9.502417e-01 -5.162208e-01 5.931842e-01 -8.152476e-01 -7.448198e-01 6.216728e-03 -1.635881e-01 -7.949340e-02 -2.309331e-01 -2.135187e-01 -2.309331e-01 -7.949340e-02 -1.635881e-01 6.216728e-03 -7.448198e-01 -8.152476e-01 5.931842e-01 -5.162208e-01 -9.502417e-01 -3.136409e-01 -2.073415e-01 2.707261e-01 5.833390e-01 9.476457e-01 1.120401e+00 
1.473273e+00 1.348005e+00 1.115825e+00 6.733151e-01 3.402505e-01 -1.240810e-01 -9.697130e-02 -8.673434e-01 -8.892566e-01 5.752398e-01 -6.790631e-01 -9.875508e-01 -1.574703e-01 -2.442112e-01 -1.782985e-01 -3.733737e-01 -3.833054e-01 -3.733737e-01 -1.782985e-01 -2.442112e-01 -1.574703e-01 -9.875508e-01 -6.790631e-01 5.752398e-01 -8.892566e-01 -8.673434e-01 -9.697130e-02 -1.240810e-01 3.402505e-01 6.733151e-01 1.115825e+00 1.348005e+00 
1.563952e+00 1.423578e+00 1.162928e+00 7.094965e-01 3.694283e-01 -4.695546e-03 2.231602e-02 -3.241135e-01 -9.699819e-01 1.110659e-01 -2.356259e-01 -1.088651e+00 -4.497120e-01 -2.548376e-01 -3.590914e-01 -5.718430e-01 -6.444741e-01 -5.718430e-01 -3.590914e-01 -2.548376e-01 -4.497120e-01 -1.088651e+00 -2.356259e-01 1.110659e-01 -9.699819e-01 -3.241135e-01 2.231602e-02 -4.695546e-03 3.694283e-01 7.094965e-01 1.162928e+00 1.423578e+00 
1.530027e+00 1.393031e+00 1.122902e+00 7.076158e-01 3.738304e-01 1.210722e-01 4.047910e-02 1.564440e-01 -5.857742e-01 -4.279020e-01 -5.471947e-02 -9.481816e-01 -8.646894e-01 -3.296662e-01 -3.994321e-01 -6.724128e-01 -7.952210e-01 -6.724128e-01 -3.994321e-01 -3.296662e-01 -8.646894e-01 -9.481816e-01 -5.471947e-02 -4.279020e-01 -5.857742e-01 1.564440e-01 4.047910e-02 1.210722e-01 3.738304e-01 7.076158e-01 1.122902e+00 1.393031e+00 
1.403079e+00 1.276972e+00 1.024688e+00 6.605439e-01 3.605674e-01 1.700029e-01 8.857402e-02 3.419811e-01 9.156204e-02 -4.021513e-01 -3.856189e-01 -5.552303e-01 -9.423427e-01 -7.084845e-01 -5.286901e-01 -7.836341e-01 -8.205593e-01 -7.836341e-01 -5.286901e-01 -7.084845e-01 -9.423427e-01 -5.552303e-01 -3.856189e-01 -4.021513e-01 9.156204e-02 3.419811e-01 8.857402e-02 1.700029e-01 3.605674e-01 6.605439e-01 1.024688e+00 1.276972e+00 
1.221516e+00 1.115154e+00 8.925356e-01 5.875815e-01 3.290646e-01 1.675360e-01 9.945668e-02 2.389046e-01 3.855554e-01 2.005351e-01 -1.457715e-01 -7.150457e-01 -1.539314e+00 -1.125293e+00 -3.735424e-01 -4.693731e-01 -5.174847e-01 -4.693731e-01 -3.735424e-01 -1.125293e+00 -1.539314e+00 -7.150457e-01 -1.457715e-01 2.005351e-01 3.855554e-01 2.389046e-01 9.945668e-02 1.675360e-01 3.290646e-01 5.875815e-01 8.925356e-01 1.115154e+00 
1.003850e+00 9.166136e-01 7.317483e-01 4.810571e-01 2.627159e-01 1.154816e-01 3.957244e-02 7.654523e-02 1.878737e-01 2.492607e-01 5.202498e-01 6.917137e-01 -4.775631e-01 -1.735415e+00 -1.561203e+00 -7.952573e-01 -4.106372e-01 -7.952573e-01 -1.561203e+00 -1.735415e+00 -4.775631e-01 6.917137e-01 5.202498e-01 2.492607e-01 1.878737e-01 7.654523e-02 3.957244e-02 1.154816e-01 2.627159e-01 4.810571e-01 7.317483e-01 9.166136e-01 
7.919922e-01 7.251717e-01 5.766197e-01 3.776069e-01 1.937062e-01 5.781545e-02 -3.614950e-02 -5.989639e-02 -5.622616e-02 -4.827314e-02 -6.484754e-02 4.021969e-01 9.398885e-01 4.236687e-01 -1.029823e+00 -1.878290e+00 -1.838329e+00 -1.878290e+00 -1.029823e+00 4.236687e-01 9.398885e-01 4.021969e-01 -6.484754e-02 -4.827314e-02 -5.622616e-02 -5.989639e-02 -3.614950e-02 5.781545e-02 1.937062e-01 3.776069e-01 5.766197e-01 7.251717e-01 
5.859938e-01 5.349191e-01 4.191192e-01 2.603830e-01 1.037824e-01 -2.768393e-02 -1.391960e-01 -2.069944e-01 -2.671161e-01 -3.017453e-01 -4.130734e-01 -4.169774e-01 -3.942114e-01 1.370856e-01 6.548189e-01 2.101351e-02 -5.142409e-01 2.101351e-02 6.548189e-01 1.370856e-01 -3.942114e-01 -4.169774e-01 -4.130734e-01 -3.017453e-01 -2.671161e-01 -2.069944e-01 -1.391960e-01 -2.768393e-02 1.037824e-01 2.603830e-01 4.191192e-01 5.349191e-01 
4.208351e-01 3.840226e-01 2.953804e-01 1.722258e-01 4.017626e-02 -8.078897e-02 -1.964354e-01 -2.780674e-01 -3.491452e-01 -3.675063e-01 -3.979107e-01 -3.221109e-01 -2.585531e-01 -2.439813e-01 1.039892e-01 7.362065e-01 1.104162e+00 7.362065e-01 1.039892e-01 -2.439813e-01 -2.585531e-01 -3.221109e-01 -3.979107e-01 -3.675063e-01 -3.491452e-01 -2.780674e-01 -1.964354e-01 -8.078897e-02 4.017626e-02 1.722258e-01 2.953804e-01 3.840226e-01 
2.772852e-01 2.501163e-01 1.825399e-01 8.443213e-02 -2.926570e-02 -1.441287e-01 -2.634115e-01 -3.588236e-01 -4.435626e-01 -4.734913e-01 -4.921477e-01 -4.156431e-01 -2.743593e-01 7.999162e-02 6.240362e-01 9.775465e-01 1.115056e+00 9.775465e-01 6.240362e-01 7.999162e-02 -2.743593e-01 -4.156431e-01 -4.921477e-01 -4.734913e-01 -4.435626e-01 -3.588236e-01 -2.634115e-01 -1.441287e-01 -2.926570e-02 8.443213e-02 1.825399e-01 2.501163e-01 
1.784171e-01 1.597720e-01 1.103267e-01 3.688298e-02 -5.398878e-02 -1.505114e-01 -2.536973e-01 -3.377503e-01 -4.056577e-01 -4.230838e-01 -4.090958e-01 -3.213275e-01 -1.619308e-01 9.846419e-02 5.198728e-01 9.375539e-01 1.129925e+00 9.375539e-01 5.198728e-01 9.846419e-02 -1.619308e-01 -3.213275e-01 -4.090958e-01 -4.230838e-01 -4.056577e-01 -3.377503e-01 -2.536973e-01 -1.505114e-01 -5.398878e-02 3.688298e-02 1.103267e-01 1.597720e-01 
9.791257e-02 8.553305e-02 5.190848e-02 1.583859e-04 -6.677430e-02 -1.409861e-01 -2.220991e-01 -2.895022e-01 -3.434610e-01 -3.557990e-01 -3.374394e-01 -2.492882e-01 -9.245618e-02 1.684582e-01 5.177551e-01 7.814259e-01 8.872203e-01 7.814259e-01 5.177551e-01 1.684582e-01 -9.245618e-02 -2.492882e-01 -3.374394e-01 -3.557990e-01 -3.434610e-01 -2.895022e-01 -2.220991e-01 -1.409861e-01 -6.677430e-02 1.583859e-04 5.190848e-02 8.553305e-02 
4.533287e-02 3.933327e-02 2.238782e-02 -3.926198e-03 -3.883181e-02 -7.810938e-02 -1.209426e-01 -1.566466e-01 -1.839547e-01 -1.906552e-01 -1.787239e-01 -1.328544e-01 -4.580673e-02 8.966570e-02 2.733294e-01 4.331928e-01 4.997521e-01 4.331928e-01 2.733294e-01 8.966570e-02 -4.580673e-02 -1.328544e-01 -1.787239e-01 -1.906552e-01 -1.839547e-01 -1.566466e-01 -1.209426e-01 -7.810938e-02 -3.883181e-02 -3.926198e-03 2.238782e-02 3.933327e-02 
