# vtk DataFile Version 2.0
Comment goes here
ASCII

DATASET STRUCTURED_POINTS
FIELD FieldData 1
TIME 1 1 double
1.18000000
DIMENSIONS    32   32   1

ORIGIN    0.000   0.000   0.000
SPACING   0.03125 0.03125   1.000

POINT_DATA   1024
SCALARS uY double
LOOKUP_TABLE default

-7.431886e-14 -7.816307e-14 -7.944656e-14 -8.959330e-14 -7.412013e-14 -9.334183e-14 -6.018609e-14 -6.545429e-14 2.777255e-14 9.396198e-14 2.774488e-13 4.069973e-13 5.942999e-13 6.550942e-13 6.641385e-13 4.686621e-13 1.177619e-13 -3.326685e-13 -5.928172e-13 -6.831961e-13 -6.907069e-13 -5.561191e-13 -4.478607e-13 -2.592017e-13 -1.817343e-13 -6.043756e-14 -5.957394e-14 -1.099422e-14 -4.515811e-14 -2.553890e-14 -5.857046e-14 -5.350805e-14 
-1.294836e-02 -3.845473e-03 1.955463e-02 5.466377e-02 9.636773e-02 1.362213e-01 1.731848e-01 1.920097e-01 1.997732e-01 1.770327e-01 1.394868e-01 6.613487e-02 -3.000758e-02 -1.566375e-01 -3.185987e-01 -4.655793e-01 -5.465734e-01 -4.655793e-01 -3.185987e-01 -1.566375e-01 -3.000758e-02 6.613487e-02 1.394868e-01 1.770327e-01 1.997732e-01 1.920097e-01 1.731848e-01 1.362213e-01 9.636773e-02 5.466377e-02 1.955463e-02 -3.845473e-03 
-3.788072e-02 -1.946838e-02 2.754221e-02 9.752314e-02 1.796038e-01 2.577033e-01 3.295602e-01 3.667674e-01 3.814667e-01 3.379089e-01 2.647186e-01 1.253702e-01 -5.403459e-02 -2.886919e-01 -5.914339e-01 -8.771126e-01 -1.036965e+00 -8.771126e-01 -5.914339e-01 -2.886919e-01 -5.403459e-02 1.253702e-01 2.647186e-01 3.379089e-01 3.814667e-01 3.667674e-01 3.295602e-01 2.577033e-01 1.796038e-01 9.752314e-02 2.754221e-02 -1.946838e-02 
-9.755997e-02 -6.872628e-02 1.187773e-03 1.056376e-01 2.242583e-01 3.357039e-01 4.374238e-01 4.875118e-01 5.113188e-01 4.470562e-01 3.588502e-01 1.754928e-01 -3.579574e-02 -3.146303e-01 -7.424925e-01 -1.168046e+00 -1.411941e+00 -1.168046e+00 -7.424925e-01 -3.146303e-01 -3.579574e-02 1.754928e-01 3.588502e-01 4.470562e-01 5.113188e-01 4.875118e-01 4.374238e-01 3.357039e-01 2.242583e-01 1.056376e-01 1.187773e-03 -6.872628e-02 
-1.836506e-01 -1.432776e-01 -4.769169e-02 9.407410e-02 2.504368e-01 3.953545e-01 5.252090e-01 5.901325e-01 6.228302e-01 5.447752e-01 4.388588e-01 2.116938e-01 -3.114902e-02 -3.360953e-01 -8.349325e-01 -1.356657e+00 -1.663473e+00 -1.356657e+00 -8.349325e-01 -3.360953e-01 -3.114902e-02 2.116938e-01 4.388588e-01 5.447752e-01 6.228302e-01 5.901325e-01 5.252090e-01 3.953545e-01 2.504368e-01 9.407410e-02 -4.769169e-02 -1.432776e-01 
-3.196297e-01 -2.650341e-01 -1.438484e-01 3.826713e-02 2.293150e-01 4.045744e-01 5.548363e-01 6.252307e-01 6.675690e-01 5.648379e-01 4.715875e-01 1.978523e-01 1.834627e-02 -1.775356e-01 -7.671320e-01 -1.388193e+00 -1.741718e+00 -1.388193e+00 -7.671320e-01 -1.775356e-01 1.834627e-02 1.978523e-01 4.715875e-01 5.648379e-01 6.675690e-01 6.252307e-01 5.548363e-01 4.045744e-01 2.293150e-01 3.826713e-02 -1.438484e-01 -2.650341e-01 
-4.761465e-01 -4.059943e-01 -2.542474e-01 -2.588810e-02 2.071407e-01 4.196303e-01 5.976395e-01 6.853279e-01 7.457718e-01 6.451961e-01 5.539387e-01 1.836611e-01 -6.337144e-02 -2.573521e-01 -7.810564e-01 -1.244581e+00 -1.535484e+00 -1.244581e+00 -7.810564e-01 -2.573521e-01 -6.337144e-02 1.836611e-01 5.539387e-01 6.451961e-01 7.457718e-01 6.853279e-01 5.976395e-01 4.196303e-01 2.071407e-01 -2.588810e-02 -2.542474e-01 -4.059943e-01 
-6.691264e-01 -5.804397e-01 -4.000943e-01 -1.218679e-01 1.470119e-01 3.980484e-01 5.897023e-01 6.870274e-01 7.467782e-01 6.034394e-01 5.277354e-01 -5.746559e-02 -6.713861e-02 1.060529e-01 -5.861952e-01 -1.034795e+00 -1.246473e+00 -1.034795e+00 -5.861952e-01 1.060529e-01 -6.713861e-02 -5.746559e-02 5.277354e-01 6.034394e-01 7.467782e-01 6.870274e-01 5.897023e-01 3.980484e-01 1.470119e-01 -1.218679e-01 -4.000943e-01 -5.804397e-01 
-8.558393e-01 -7.490365e-01 -5.368137e-01 -2.068423e-01 1.035692e-01 3.968166e-01 6.193400e-01 7.439818e-01 8.464185e-01 7.880106e-01 7.228125e-01 -2.107675e-02 -4.069732e-01 -7.420277e-01 -9.156916e-01 -2.098258e-01 -9.483986e-03 -2.098258e-01 -9.156916e-01 -7.420277e-01 -4.069732e-01 -2.107675e-02 7.228125e-01 7.880106e-01 8.464185e-01 7.439818e-01 6.193400e-01 3.968166e-01 1.035692e-01 -2.068423e-01 -5.368137e-01 -7.490365e-01 
-1.040862e+00 -9.156122e-01 -6.767632e-01 -2.953683e-01 4.309283e-02 3.838302e-01 6.083840e-01 7.872421e-01 8.546067e-01 8.275848e-01 2.683468e-01 -8.674891e-01 -6.511490e-01 -1.163935e-01 1.296495e-01 1.962059e-01 -1.114729e-01 1.962059e-01 1.296495e-01 -1.163935e-01 -6.511490e-01 -8.674891e-01 2.683468e-01 8.275848e-01 8.546067e-01 7.872421e-01 6.083840e-01 3.838302e-01 4.309283e-02 -2.953683e-01 -6.767632e-01 -9.156122e-01 
-1.182753e+00 -1.043486e+00 -7.815602e-01 -3.562308e-01 2.711053e-03 3.767672e-01 6.111413e-01 7.694716e-01 1.013407e+00 8.182403e-01 -5.402217e-02 -2.690610e-01 3.827485e-01 1.528116e-01 -2.901229e-01 -4.485134e-01 -5.858521e-01 -4.485134e-01 -2.901229e-01 1.528116e-01 3.827485e-01 -2.690610e-01 -5.402217e-02 8.182403e-01 1.013407e+00 7.694716e-01 6.111413e-01 3.767672e-01 2.711053e-03 -3.562308e-01 -7.815602e-01 -1.043486e+00 
-1.275519e+00 -1.128756e+00 -8.528175e-01 -3.983435e-01 -2.980643e-02 3.777704e-01 6.306754e-01 1.002405e+00 1.548017e+00 5.946555e-01 -2.192329e-01 1.271017e-01 -5.290419e-02 -5.017686e-01 -4.883208e-01 -7.306537e-02 2.042976e-01 -7.306537e-02 -4.883208e-01 -5.017686e-01 -5.290419e-02 1.271017e-01 -2.192329e-01 5.946555e-01 1.548017e+00 1.002405e+00 6.306754e-01 3.777704e-01 -2.980643e-02 -3.983435e-01 -8.528175e-01 -1.128756e+00 
-1.286545e+00 -1.142384e+00 -8.684005e-01 -4.034635e-01 -5.406692e-02 4.381688e-01 5.864119e-01 1.300438e+00 1.774283e+00 -1.827643e-02 -4.263675e-01 -2.179383e-01 -3.799089e-01 -3.282555e-02 -9.153185e-02 7.628059e-02 2.057061e-01 7.628059e-02 -9.153185e-02 -3.282555e-02 -3.799089e-01 -2.179383e-01 -4.263675e-01 -1.827643e-02 1.774283e+00 1.300438e+00 5.864119e-01 4.381688e-01 -5.406692e-02 -4.034635e-01 -8.684005e-01 -1.142384e+00 
-1.193584e+00 -1.065790e+00 -8.173796e-01 -4.001888e-01 -8.784266e-02 3.928953e-01 6.486891e-01 2.072269e+00 1.466006e+00 -1.185076e+00 -2.169340e-01 2.318684e-01 -2.171353e-01 -6.934793e-02 -2.183754e-01 2.336972e-02 7.952792e-02 2.336972e-02 -2.183754e-01 -6.934793e-02 -2.171353e-01 2.318684e-01 -2.169340e-01 -1.185076e+00 1.466006e+00 2.072269e+00 6.486891e-01 3.928953e-01 -8.784266e-02 -4.001888e-01 -8.173796e-01 -1.065790e+00 
-9.578451e-01 -8.670988e-01 -6.632313e-01 -3.646390e-01 -7.331278e-02 2.337366e-01 8.148692e-01 1.914658e+00 1.485965e-01 -1.351339e+00 4.068532e-01 4.200171e-01 -9.824646e-02 -2.087825e-02 -8.324210e-02 3.554382e-02 5.327249e-02 3.554382e-02 -8.324210e-02 -2.087825e-02 -9.824646e-02 4.200171e-01 4.068532e-01 -1.351339e+00 1.485965e-01 1.914658e+00 8.148692e-01 2.337366e-01 -7.331278e-02 -3.646390e-01 -6.632313e-01 -8.670988e-01 
-5.466535e-01 -4.937309e-01 -3.656189e-01 -1.928608e-01 1.336883e-02 1.757569e-01 6.987640e-01 9.700873e-01 -3.137025e-01 -5.046277e-01 4.754207e-01 1.468916e-01 -1.216422e-01 -8.128476e-02 -1.037610e-01 -2.023163e-02 -1.900426e-02 -2.023163e-02 -1.037610e-01 -8.128476e-02 -1.216422e-01 1.468916e-01 4.754207e-01 -5.046277e-01 -3.137025e-01 9.700873e-01 6.987640e-01 1.757569e-01 1.336883e-02 -1.928608e-01 -3.656189e-01 -4.937309e-01 
2.731007e-13 8.076100e-14 -6.635867e-14 -1.329043e-13 -1.315400e-13 -2.717966e-14 2.820095e-13 5.177097e-13 5.214223e-14 -1.005096e-13 1.196214e-12 7.391371e-13 4.875352e-13 2.691712e-13 2.330152e-13 -7.439714e-16 -1.010020e-13 -2.536833e-13 -5.665229e-13 -6.624299e-13 -9.658435e-13 -6.096703e-13 5.119396e-14 1.137120e-12 1.277407e-13 -1.288350e-12 -1.709926e-12 -1.020854e-12 -3.505946e-13 2.180765e-13 5.057646e-13 4.508483e-13 
5.466535e-01 4.937309e-01 3.656189e-01 1.928608e-01 -1.336883e-02 -1.757569e-01 -6.987640e-01 -9.700873e-01 3.137025e-01 5.046277e-01 -4.754207e-01 -1.468916e-01 1.216422e-01 8.128476e-02 1.037610e-01 2.023163e-02 1.900426e-02 2.023163e-02 1.037610e-01 8.128476e-02 1.216422e-01 -1.468916e-01 -4.754207e-01 5.046277e-01 3.137025e-01 -9.700873e-01 -6.987640e-01 -1.757569e-01 -1.336883e-02 1.928608e-01 3.656189e-01 4.937309e-01 
9.578451e-01 8.670988e-01 6.632313e-01 3.646390e-01 7.331278e-02 -2.337366e-01 -8.148692e-01 -1.914658e+00 -1.485965e-01 1.351339e+00 -4.068532e-01 -4.200171e-01 9.824646e-02 2.087825e-02 8.324210e-02 -3.554382e-02 -5.327249e-02 -3.554382e-02 8.324210e-02 2.087825e-02 9.824646e-02 -4.200171e-01 -4.068532e-01 1.351339e+00 -1.485965e-01 -1.914658e+00 -8.148692e-01 -2.337366e-01 7.331278e-02 3.646390e-01 6.632313e-01 8.670988e-01 
1.193584e+00 1.065790e+00 8.173796e-01 4.001888e-01 8.784266e-02 -3.928953e-01 -6.486891e-01 -2.072269e+00 -1.466006e+00 1.185076e+00 2.169340e-01 -2.318684e-01 2.171353e-01 6.934793e-02 2.183754e-01 -2.336972e-02 -7.952792e-02 -2.336972e-02 2.183754e-01 6.934793e-02 2.171353e-01 -2.318684e-01 2.169340e-01 1.185076e+00 -1.466006e+00 -2.072269e+00 -6.486891e-01 -3.928953e-01 8.784266e-02 4.001888e-01 8.173796e-01 1.065790e+00 
1.286545e+00 1.142384e+00 8.684005e-01 4.034635e-01 5.406692e-02 -4.381688e-01 -5.864119e-01 -1.300438e+00 -1.774283e+00 1.827643e-02 4.263675e-01 2.179383e-01 3.799089e-01 3.282555e-02 9.153185e-02 -7.628059e-02 -2.057061e-01 -7.628059e-02 9.153185e-02 3.282555e-02 3.799089e-01 2.179383e-01 4.263675e-01 1.827643e-02 -1.774283e+00 -1.300438e+00 -5.864119e-01 -4.381688e-01 5.406692e-02 4.034635e-01 8.684005e-01 1.142384e+00 
1.275519e+00 1.128756e+00 8.528175e-01 3.983435e-01 2.980643e-02 -3.777704e-01 -6.306754e-01 -1.002405e+00 -1.548017e+00 -5.946555e-01 2.192329e-01 -1.271017e-01 5.290419e-02 5.017686e-01 4.883208e-01 7.306537e-02 -2.042976e-01 7.306537e-02 4.883208e-01 5.017686e-01 5.290419e-02 -1.271017e-01 2.192329e-01 -5.946555e-01 -1.548017e+00 -1.002405e+00 -6.306754e-01 -3.777704e-01 2.980643e-02 3.983435e-01 8.528175e-01 1.128756e+00 
1.182753e+00 1.043486e+00 7.815602e-01 3.562308e-01 -2.711053e-03 -3.767672e-01 -6.111413e-01 -7.694716e-01 -1.013407e+00 -8.182403e-01 5.402217e-02 2.690610e-01 -3.827485e-01 -1.528116e-01 2.901229e-01 4.485134e-01 5.858521e-01 4.485134e-01 2.901229e-01 -1.528116e-01 -3.827485e-01 2.690610e-01 5.402217e-02 -8.182403e-01 -1.013407e+00 -7.694716e-01 -6.111413e-01 -3.767672e-01 -2.711053e-03 3.562308e-01 7.815602e-01 1.043486e+00 
1.040862e+00 9.156122e-01 6.767632e-01 2.953683e-01 -4.309283e-02 -3.838302e-01 -6.083840e-01 -7.872421e-01 -8.546067e-01 -8.275848e-01 -2.683468e-01 8.674891e-01 6.511490e-01 1.163935e-01 -1.296495e-01 -1.962059e-01 1.114729e-01 -1.962059e-01 -1.296495e-01 1.163935e-01 6.511490e-01 8.674891e-01 -2.683468e-01 -8.275848e-01 -8.546067e-01 -7.872421e-01 -6.083840e-01 -3.838302e-01 -4.309283e-02 2.953683e-01 6.767632e-01 9.156122e-01 
8.558393e-01 7.490365e-01 5.368137e-01 2.068423e-01 -1.035692e-01 -3.968166e-01 -6.193400e-01 -7.439818e-01 -8.464185e-01 -7.880106e-01 -7.228125e-01 2.107675e-02 4.069732e-01 7.420277e-01 9.156916e-01 2.098258e-01 9.483986e-03 2.098258e-01 9.156916e-01 7.420277e-01 4.069732e-01 2.107675e-02 -7.228125e-01 -7.880106e-01 -8.464185e-01 -7.439818e-01 -6.193400e-01 -3.968166e-01 -1.035692e-01 2.068423e-01 5.368137e-01 7.490365e-01 
6.691264e-01 5.804397e-01 4.000943e-01 1.218679e-01 -1.470119e-01 -3.980484e-01 -5.897023e-01 -6.870274e-01 -7.467782e-01 -6.034394e-01 -5.277354e-01 5.746559e-02 6.713861e-02 -1.060529e-01 5.861952e-01 1.034795e+00 1.246473e+00 1.034795e+00 5.861952e-01 -1.060529e-01 6.713861e-02 5.746559e-02 -5.277354e-01 -6.034394e-01 -7.467782e-01 -6.870274e-01 -5.897023e-01 -3.980484e-01 -1.470119e-01 1.218679e-01 4.000943e-01 5.804397e-01 
4.761465e-01 4.059943e-01 2.542474e-01 2.588810e-02 -2.071407e-01 -4.196303e-01 -5.976395e-01 -6.853279e-01 -7.457718e-01 -6.451961e-01 -5.539387e-01 -1.836611e-01 6.337144e-02 2.573521e-01 7.810564e-01 1.244581e+00 1.535484e+00 1.244581e+00 7.810564e-01 2.573521e-01 6.337144e-02 -1.836611e-01 -5.539387e-01 -6.451961e-01 -7.457718e-01 -6.853279e-01 -5.976395e-01 -4.196303e-01 -2.071407e-01 2.588810e-02 2.542474e-01 4.059943e-01 
3.196297e-01 2.650341e-01 1.438484e-01 -3.826713e-02 -2.293150e-01 -4.045744e-01 -5.548363e-01 -6.252307e-01 -6.675690e-01 -5.648379e-01 -4.715875e-01 -1.978523e-01 -1.834627e-02 1.775356e-01 7.671320e-01 1.388193e+00 1.741718e+00 1.388193e+00 7.671320e-01 1.775356e-01 -1.834627e-02 -1.978523e-01 -4.715875e-01 -5.648379e-01 -6.675690e-01 -6.252307e-01 -5.548363e-01 -4.045744e-01 -2.293150e-01 -3.826713e-02 1.438484e-01 2.650341e-01 
1.836506e-01 1.432776e-01 4.769169e-02 -9.407410e-02 -2.504368e-01 -3.953545e-01 -5.252090e-01 -5.901325e-01 -6.228302e-01 -5.447752e-01 -4.388588e-01 -2.116938e-01 3.114902e-02 3.360953e-01 8.349325e-01 1.356657e+00 1.663473e+00 1.356657e+00 8.349325e-01 3.360953e-01 3.114902e-02 -2.116938e-01 -4.388588e-01 -5.447752e-01 -6.228302e-01 -5.901325e-01 -5.252090e-01 -3.953545e-01 -2.504368e-01 -9.407410e-02 4.769169e-02 1.432776e-01 
9.755997e-02 6.872628e-02 -1.187773e-03 -1.056376e-01 -2.242583e-01 -3.357039e-01 -4.374238e-01 -4.875118e-01 -5.113188e-01 -4.470562e-01 -3.588502e-01 -1.754928e-01 3.579574e-02 3.146303e-01 7.424925e-01 1.168046e+00 1.411941e+00 1.168046e+00 7.424925e-01 3.146303e-01 3.579574e-02 -1.754928e-01 -3.588502e-01 -4.470562e-01 -5.113188e-01 -4.875118e-01 -4.374238e-01 -3.357039e-01 -2.242583e-01 -1.056376e-01 -1.187773e-03 6.872628e-02 
3.788072e-02 1.946838e-02 -2.754221e-02 -9.752314e-02 -1.796038e-01 -2.577033e-01 -3.295602e-01 -3.667674e-01 -3.814667e-01 -3.379089e-01 -2.647186e-01 -1.253702e-01 5.403459e-02 2.886919e-01 5.914339e-01 8.771126e-01 1.036965e+00 8.771126e-01 5.914339e-01 2.886919e-01 5.403459e-02 -1.253702e-01 -2.647186e-01 -3.379089e-01 -3.814667e-01 -3.667674e-01 -3.295602e-01 -2.577033e-01 -1.796038e-01 -9.752314e-02 -2.754221e-02 1.946838e-02 
1.294836e-02 3.845473e-03 -1.955463e-02 -5.466377e-02 -9.636773e-02 -1.362213e-01 -1.731848e-01 -1.920097e-01 -1.997732e-01 -1.770327e-01 -1.394868e-01 -6.613487e-02 3.000758e-02 1.566375e-01 3.185987e-01 4.655793e-01 5.465734e-01 4.655793e-01 3.185987e-01 1.566375e-01 3.000758e-02 -6.613487e-02 -1.394868e-01 -1.770327e-01 -1.997732e-01 -1.920097e-01 -1.731848e-01 -1.362213e-01 -9.636773e-02 -5.466377e-02 -1.955463e-02 3.845473e-03 
