# vtk DataFile Version 2.0
Comment goes here
ASCII

DATASET STRUCTURED_POINTS
FIELD FieldData 1
TIME 1 1 double
1.20000000
DIMENSIONS    32   32   1

ORIGIN    0.000   0.000   0.000
SPACING   0.03125 0.03125   1.000

POINT_DATA   1024
SCALARS uY double
LOOKUP_TABLE default

-8.477013e-14 -9.709314e-14 -9.541316e-14 -1.129127e-13 -9.228170e-14 -1.174330e-13 -7.471498e-14 -7.438653e-14 4.338901e-14 1.381699e-13 3.563072e-13 5.225096e-13 7.232042e-13 8.008841e-13 7.918856e-13 5.827220e-13 1.509803e-13 -3.664883e-13 -6.833164e-13 -7.866458e-13 -7.920696e-13 -6.480165e-13 -5.126241e-13 -3.001862e-13 -1.945936e-13 -5.996731e-14 -4.838837e-14 -1.975789e-15 -3.689040e-14 -2.510367e-14 -6.017909e-14 -6.356742e-14 
5.270844e-03 1.450648e-02 3.787680e-02 7.275447e-02 1.139478e-01 1.521513e-01 1.868706e-01 2.019085e-01 2.049583e-01 1.761468e-01 1.312961e-01 5.063851e-02 -5.046074e-02 -1.800311e-01 -3.410577e-01 -4.880750e-01 -5.721331e-01 -4.880750e-01 -3.410577e-01 -1.800311e-01 -5.046074e-02 5.063851e-02 1.312961e-01 1.761468e-01 2.049583e-01 2.019085e-01 1.868706e-01 1.521513e-01 1.139478e-01 7.275447e-02 3.787680e-02 1.450648e-02 
-1.642593e-03 1.698418e-02 6.406356e-02 1.336908e-01 2.149610e-01 2.900697e-01 3.573490e-01 3.868371e-01 3.910587e-01 3.345471e-01 2.461660e-01 9.195577e-02 -9.600629e-02 -3.351341e-01 -6.353517e-01 -9.189505e-01 -1.082838e+00 -9.189505e-01 -6.353517e-01 -3.351341e-01 -9.600629e-02 9.195577e-02 2.461660e-01 3.345471e-01 3.910587e-01 3.868371e-01 3.573490e-01 2.900697e-01 2.149610e-01 1.336908e-01 6.406356e-02 1.698418e-02 
-4.302636e-02 -1.357841e-02 5.638072e-02 1.607135e-01 2.787740e-01 3.864274e-01 4.827831e-01 5.219385e-01 5.313609e-01 4.484231e-01 3.372974e-01 1.312151e-01 -9.816273e-02 -3.949870e-01 -8.261246e-01 -1.240152e+00 -1.481591e+00 -1.240152e+00 -8.261246e-01 -3.949870e-01 -9.816273e-02 1.312151e-01 3.372974e-01 4.484231e-01 5.313609e-01 5.219385e-01 4.827831e-01 3.864274e-01 2.787740e-01 1.607135e-01 5.638072e-02 -1.357841e-02 
-1.116427e-01 -7.053259e-02 2.538416e-02 1.672482e-01 3.236685e-01 4.646864e-01 5.884870e-01 6.401457e-01 6.526644e-01 5.486317e-01 4.075898e-01 1.425280e-01 -1.281672e-01 -4.589295e-01 -9.530372e-01 -1.433778e+00 -1.721536e+00 -1.433778e+00 -9.530372e-01 -4.589295e-01 -1.281672e-01 1.425280e-01 4.075898e-01 5.486317e-01 6.526644e-01 6.401457e-01 5.884870e-01 4.646864e-01 3.236685e-01 1.672482e-01 2.538416e-02 -7.053259e-02 
-2.299994e-01 -1.736896e-01 -5.240584e-02 1.309101e-01 3.234234e-01 4.957082e-01 6.427297e-01 6.988335e-01 7.207821e-01 5.864806e-01 4.467385e-01 1.235496e-01 -1.075125e-01 -3.687826e-01 -9.580456e-01 -1.493010e+00 -1.801420e+00 -1.493010e+00 -9.580456e-01 -3.687826e-01 -1.075125e-01 1.235496e-01 4.467385e-01 5.864806e-01 7.207821e-01 6.988335e-01 6.427297e-01 4.957082e-01 3.234234e-01 1.309101e-01 -5.240584e-02 -1.736896e-01 
-3.708024e-01 -2.987346e-01 -1.463804e-01 8.385441e-02 3.204747e-01 5.315515e-01 7.096298e-01 7.846840e-01 8.235636e-01 6.899666e-01 5.328582e-01 8.566531e-02 -2.322087e-01 -5.141077e-01 -1.021251e+00 -1.362880e+00 -1.602569e+00 -1.362880e+00 -1.021251e+00 -5.141077e-01 -2.322087e-01 8.566531e-02 5.328582e-01 6.899666e-01 8.235636e-01 7.846840e-01 7.096298e-01 5.315515e-01 3.204747e-01 8.385441e-02 -1.463804e-01 -2.987346e-01 
-5.497890e-01 -4.572752e-01 -2.773024e-01 5.594553e-03 2.805537e-01 5.342469e-01 7.350745e-01 8.228080e-01 8.742312e-01 6.980425e-01 5.583779e-01 -9.377494e-02 -2.631551e-01 -2.843066e-01 -9.410695e-01 -1.225335e+00 -1.383632e+00 -1.225335e+00 -9.410695e-01 -2.843066e-01 -2.631551e-01 -9.377494e-02 5.583779e-01 6.980425e-01 8.742312e-01 8.228080e-01 7.350745e-01 5.342469e-01 2.805537e-01 5.594553e-03 -2.773024e-01 -4.572752e-01 
-7.261028e-01 -6.152690e-01 -4.027934e-01 -6.667214e-02 2.540788e-01 5.540440e-01 7.971437e-01 9.179402e-01 1.028987e+00 9.518063e-01 7.904022e-01 -8.450431e-02 -6.979124e-01 -1.127374e+00 -1.187272e+00 -5.299712e-01 -4.391667e-01 -5.299712e-01 -1.187272e+00 -1.127374e+00 -6.979124e-01 -8.450431e-02 7.904022e-01 9.518063e-01 1.028987e+00 9.179402e-01 7.971437e-01 5.540440e-01 2.540788e-01 -6.667214e-02 -4.027934e-01 -6.152690e-01 
-9.066500e-01 -7.742937e-01 -5.379430e-01 -1.451700e-01 2.046278e-01 5.626483e-01 8.244432e-01 1.008245e+00 1.114525e+00 1.030717e+00 3.672921e-01 -8.293192e-01 -9.559636e-01 -5.632276e-01 -2.140720e-01 -2.896003e-01 -6.991695e-01 -2.896003e-01 -2.140720e-01 -5.632276e-01 -9.559636e-01 -8.293192e-01 3.672921e-01 1.030717e+00 1.114525e+00 1.008245e+00 8.244432e-01 5.626483e-01 2.046278e-01 -1.451700e-01 -5.379430e-01 -7.742937e-01 
-1.050000e+00 -9.028478e-01 -6.431595e-01 -2.045515e-01 1.692880e-01 5.674272e-01 8.559887e-01 1.011177e+00 1.275084e+00 1.064082e+00 2.277061e-02 -5.032513e-01 -5.045145e-03 -1.005454e-01 -6.054771e-01 -9.314904e-01 -1.088899e+00 -9.314904e-01 -6.054771e-01 -1.005454e-01 -5.045145e-03 -5.032513e-01 2.277061e-02 1.064082e+00 1.275084e+00 1.011177e+00 8.559887e-01 5.674272e-01 1.692880e-01 -2.045515e-01 -6.431595e-01 -9.028478e-01 
-1.153734e+00 -9.948850e-01 -7.266139e-01 -2.525219e-01 1.214378e-01 5.761808e-01 8.974618e-01 1.247860e+00 1.820773e+00 7.179467e-01 -2.449461e-01 -2.019195e-01 -4.841574e-01 -7.181843e-01 -7.739307e-01 -3.744770e-01 -6.631538e-02 -3.744770e-01 -7.739307e-01 -7.181843e-01 -4.841574e-01 -2.019195e-01 -2.449461e-01 7.179467e-01 1.820773e+00 1.247860e+00 8.974618e-01 5.761808e-01 1.214378e-01 -2.525219e-01 -7.266139e-01 -9.948850e-01 
-1.181703e+00 -1.023296e+00 -7.602482e-01 -2.752800e-01 7.423232e-02 6.257793e-01 8.580815e-01 1.517871e+00 2.135024e+00 1.203636e-01 -5.577839e-01 -5.440745e-01 -8.491115e-01 -2.612498e-01 -2.796912e-01 -1.601133e-01 -5.930300e-02 -1.601133e-01 -2.796912e-01 -2.612498e-01 -8.491115e-01 -5.440745e-01 -5.577839e-01 1.203636e-01 2.135024e+00 1.517871e+00 8.580815e-01 6.257793e-01 7.423232e-02 -2.752800e-01 -7.602482e-01 -1.023296e+00 
-1.108925e+00 -9.662456e-01 -7.378552e-01 -3.037993e-01 -2.975629e-02 5.393923e-01 6.905397e-01 2.111717e+00 1.964748e+00 -1.106491e+00 -5.261401e-01 2.977327e-02 -4.036568e-01 -1.766882e-01 -3.603322e-01 -1.276590e-01 -8.616977e-02 -1.276590e-01 -3.603322e-01 -1.766882e-01 -4.036568e-01 2.977327e-02 -5.261401e-01 -1.106491e+00 1.964748e+00 2.111717e+00 6.905397e-01 5.393923e-01 -2.975629e-02 -3.037993e-01 -7.378552e-01 -9.662456e-01 
-9.000363e-01 -7.937113e-01 -6.224898e-01 -3.116031e-01 -1.075544e-01 3.117183e-01 6.871262e-01 2.119440e+00 9.556951e-01 -1.404253e+00 2.200309e-02 2.688132e-01 -2.477417e-01 -1.110665e-01 -1.985337e-01 -7.933829e-02 -7.697340e-02 -7.933829e-02 -1.985337e-01 -1.110665e-01 -2.477417e-01 2.688132e-01 2.200309e-02 -1.404253e+00 9.556951e-01 2.119440e+00 6.871262e-01 3.117183e-01 -1.075544e-01 -3.116031e-01 -6.224898e-01 -7.937113e-01 
-5.081740e-01 -4.497162e-01 -3.451913e-01 -1.777894e-01 -2.810304e-02 1.886436e-01 6.340237e-01 1.145248e+00 1.037421e-01 -6.158617e-01 2.696454e-01 9.440384e-02 -1.816246e-01 -1.152593e-01 -1.599264e-01 -6.966877e-02 -7.695775e-02 -6.966877e-02 -1.599264e-01 -1.152593e-01 -1.816246e-01 9.440384e-02 2.696454e-01 -6.158617e-01 1.037421e-01 1.145248e+00 6.340237e-01 1.886436e-01 -2.810304e-02 -1.777894e-01 -3.451913e-01 -4.497162e-01 
3.327196e-13 1.374830e-13 -3.554601e-14 -7.235234e-14 -8.551886e-14 1.248798e-13 3.672712e-13 6.887033e-13 3.685356e-13 -4.625855e-13 9.086497e-13 7.483373e-13 5.569552e-13 3.471210e-13 3.225367e-13 9.151173e-14 -4.048048e-14 -2.212147e-13 -5.731413e-13 -6.440864e-13 -8.992992e-13 -2.892747e-13 6.031949e-13 1.086168e-12 -1.082985e-12 -2.079942e-12 -1.667155e-12 -8.370803e-13 -2.428908e-13 2.559351e-13 5.576786e-13 5.169060e-13 
5.081740e-01 4.497162e-01 3.451913e-01 1.777894e-01 2.810304e-02 -1.886436e-01 -6.340237e-01 -1.145248e+00 -1.037421e-01 6.158617e-01 -2.696454e-01 -9.440384e-02 1.816246e-01 1.152593e-01 1.599264e-01 6.966877e-02 7.695775e-02 6.966877e-02 1.599264e-01 1.152593e-01 1.816246e-01 -9.440384e-02 -2.696454e-01 6.158617e-01 -1.037421e-01 -1.145248e+00 -6.340237e-01 -1.886436e-01 2.810304e-02 1.777894e-01 3.451913e-01 4.497162e-01 
9.000363e-01 7.937113e-01 6.224898e-01 3.116031e-01 1.075544e-01 -3.117183e-01 -6.871262e-01 -2.119440e+00 -9.556951e-01 1.404253e+00 -2.200309e-02 -2.688132e-01 2.477417e-01 1.110665e-01 1.985337e-01 7.933829e-02 7.697340e-02 7.933829e-02 1.985337e-01 1.110665e-01 2.477417e-01 -2.688132e-01 -2.200309e-02 1.404253e+00 -9.556951e-01 -2.119440e+00 -6.871262e-01 -3.117183e-01 1.075544e-01 3.116031e-01 6.224898e-01 7.937113e-01 
1.108925e+00 9.662456e-01 7.378552e-01 3.037993e-01 2.975629e-02 -5.393923e-01 -6.905397e-01 -2.111717e+00 -1.964748e+00 1.106491e+00 5.261401e-01 -2.977327e-02 4.036568e-01 1.766882e-01 3.603322e-01 1.276590e-01 8.616977e-02 1.276590e-01 3.603322e-01 1.766882e-01 4.036568e-01 -2.977327e-02 5.261401e-01 1.106491e+00 -1.964748e+00 -2.111717e+00 -6.905397e-01 -5.393923e-01 2.975629e-02 3.037993e-01 7.378552e-01 9.662456e-01 
1.181703e+00 1.023296e+00 7.602482e-01 2.752800e-01 -7.423232e-02 -6.257793e-01 -8.580815e-01 -1.517871e+00 -2.135024e+00 -1.203636e-01 5.577839e-01 5.440745e-01 8.491115e-01 2.612498e-01 2.796912e-01 1.601133e-01 5.930300e-02 1.601133e-01 2.796912e-01 2.612498e-01 8.491115e-01 5.440745e-01 5.577839e-01 -1.203636e-01 -2.135024e+00 -1.517871e+00 -8.580815e-01 -6.257793e-01 -7.423232e-02 2.752800e-01 7.602482e-01 1.023296e+00 
1.153734e+00 9.948850e-01 7.266139e-01 2.525219e-01 -1.214378e-01 -5.761808e-01 -8.974618e-01 -1.247860e+00 -1.820773e+00 -7.179467e-01 2.449461e-01 2.019195e-01 4.841574e-01 7.181843e-01 7.739307e-01 3.744770e-01 6.631538e-02 3.744770e-01 7.739307e-01 7.181843e-01 4.841574e-01 2.019195e-01 2.449461e-01 -7.179467e-01 -1.820773e+00 -1.247860e+00 -8.974618e-01 -5.761808e-01 -1.214378e-01 2.525219e-01 7.266139e-01 9.948850e-01 
1.050000e+00 9.028478e-01 6.431595e-01 2.045515e-01 -1.692880e-01 -5.674272e-01 -8.559887e-01 -1.011177e+00 -1.275084e+00 -1.064082e+00 -2.277061e-02 5.032513e-01 5.045145e-03 1.005454e-01 6.054771e-01 9.314904e-01 1.088899e+00 9.314904e-01 6.054771e-01 1.005454e-01 5.045145e-03 5.032513e-01 -2.277061e-02 -1.064082e+00 -1.275084e+00 -1.011177e+00 -8.559887e-01 -5.674272e-01 -1.692880e-01 2.045515e-01 6.431595e-01 9.028478e-01 
9.066500e-01 7.742937e-01 5.379430e-01 1.451700e-01 -2.046278e-01 -5.626483e-01 -8.244432e-01 -1.008245e+00 -1.114525e+00 -1.030717e+00 -3.672921e-01 8.293192e-01 9.559636e-01 5.632276e-01 2.140720e-01 2.896003e-01 6.991695e-01 2.896003e-01 2.140720e-01 5.632276e-01 9.559636e-01 8.293192e-01 -3.672921e-01 -1.030717e+00 -1.114525e+00 -1.008245e+00 -8.244432e-01 -5.626483e-01 -2.046278e-01 1.451700e-01 5.379430e-01 7.742937e-01 
7.261028e-01 6.152690e-01 4.027934e-01 6.667214e-02 -2.540788e-01 -5.540440e-01 -7.971437e-01 -9.179402e-01 -1.028987e+00 -9.518063e-01 -7.904022e-01 8.450431e-02 6.979124e-01 1.127374e+00 1.187272e+00 5.299712e-01 4.391667e-01 5.299712e-01 1.187272e+00 1.127374e+00 6.979124e-01 8.450431e-02 -7.904022e-01 -9.518063e-01 -1.028987e+00 -9.179402e-01 -7.971437e-01 -5.540440e-01 -2.540788e-01 6.667214e-02 4.027934e-01 6.152690e-01 
5.497890e-01 4.572752e-01 2.773024e-01 -5.594553e-03 -2.805537e-01 -5.342469e-01 -7.350745e-01 -8.228080e-01 -8.742312e-01 -6.980425e-01 -5.583779e-01 9.377494e-02 2.631551e-01 2.843066e-01 9.410695e-01 1.225335e+00 1.383632e+00 1.225335e+00 9.410695e-01 2.843066e-01 2.631551e-01 9.377494e-02 -5.583779e-01 -6.980425e-01 -8.742312e-01 -8.228080e-01 -7.350745e-01 -5.342469e-01 -2.805537e-01 -5.594553e-03 2.773024e-01 4.572752e-01 
3.708024e-01 2.987346e-01 1.463804e-01 -8.385441e-02 -3.204747e-01 -5.315515e-01 -7.096298e-01 -7.846840e-01 -8.235636e-01 -6.899666e-01 -5.328582e-01 -8.566531e-02 2.322087e-01 5.141077e-01 1.021251e+00 1.362880e+00 1.602569e+00 1.362880e+00 1.021251e+00 5.141077e-01 2.322087e-01 -8.566531e-02 -5.328582e-01 -6.899666e-01 -8.235636e-01 -7.846840e-01 -7.096298e-01 -5.315515e-01 -3.204747e-01 -8.385441e-02 1.463804e-01 2.987346e-01 
2.299994e-01 1.736896e-01 5.240584e-02 -1.309101e-01 -3.234234e-01 -4.957082e-01 -6.427297e-01 -6.988335e-01 -7.207821e-01 -5.864806e-01 -4.467385e-01 -1.235496e-01 1.075125e-01 3.687826e-01 9.580456e-01 1.493010e+00 1.801420e+00 1.493010e+00 9.580456e-01 3.687826e-01 1.075125e-01 -1.235496e-01 -4.467385e-01 -5.864806e-01 -7.207821e-01 -6.988335e-01 -6.427297e-01 -4.957082e-01 -3.234234e-01 -1.309101e-01 5.240584e-02 1.736896e-01 
1.116427e-01 7.053259e-02 -2.538416e-02 -1.672482e-01 -3.236685e-01 -4.646864e-01 -5.884870e-01 -6.401457e-01 -6.526644e-01 -5.486317e-01 -4.075898e-01 -1.425280e-01 1.281672e-01 4.589295e-01 9.530372e-01 1.433778e+00 1.721536e+00 1.433778e+00 9.530372e-01 4.589295e-01 1.281672e-01 -1.425280e-01 -4.075898e-01 -5.486317e-01 -6.526644e-01 -6.401457e-01 -5.884870e-01 -4.646864e-01 -3.236685e-01 -1.672482e-01 -2.538416e-02 7.053259e-02 
4.302636e-02 1.357841e-02 -5.638072e-02 -1.607135e-01 -2.787740e-01 -3.864274e-01 -4.827831e-01 -5.219385e-01 -5.313609e-01 -4.484231e-01 -3.372974e-01 -1.312151e-01 9.816273e-02 3.949870e-01 8.261246e-01 1.240152e+00 1.481591e+00 1.240152e+00 8.261246e-01 3.949870e-01 9.816273e-02 -1.312151e-01 -3.372974e-01 -4.484231e-01 -5.313609e-01 -5.219385e-01 -4.827831e-01 -3.864274e-01 -2.787740e-01 -1.607135e-01 -5.638072e-02 1.357841e-02 
1.642593e-03 -1.698418e-02 -6.406356e-02 -1.336908e-01 -2.149610e-01 -2.900697e-01 -3.573490e-01 -3.868371e-01 -3.910587e-01 -3.345471e-01 -2.461660e-01 -9.195577e-02 9.600629e-02 3.351341e-01 6.353517e-01 9.189505e-01 1.082838e+00 9.189505e-01 6.353517e-01 3.351341e-01 9.600629e-02 -9.195577e-02 -2.461660e-01 -3.345471e-01 -3.910587e-01 -3.868371e-01 -3.573490e-01 -2.900697e-01 -2.149610e-01 -1.336908e-01 -6.406356e-02 -1.698418e-02 
-5.270844e-03 -1.450648e-02 -3.787680e-02 -7.275447e-02 -1.139478e-01 -1.521513e-01 -1.868706e-01 -2.019085e-01 -2.049583e-01 -1.761468e-01 -1.312961e-01 -5.063851e-02 5.046074e-02 1.800311e-01 3.410577e-01 4.880750e-01 5.721331e-01 4.880750e-01 3.410577e-01 1.800311e-01 5.046074e-02 -5.063851e-02 -1.312961e-01 -1.761468e-01 -2.049583e-01 -2.019085e-01 -1.868706e-01 -1.521513e-01 -1.139478e-01 -7.275447e-02 -3.787680e-02 -1.450648e-02 
