# vtk DataFile Version 2.0
Comment goes here
ASCII

DATASET STRUCTURED_POINTS
FIELD FieldData 1
TIME 1 1 double
0.54000000
DIMENSIONS    32   32   1

ORIGIN    0.000   0.000   0.000
SPACING   0.03125 0.03125   1.000

POINT_DATA   1024
SCALARS uY double
LOOKUP_TABLE default

-4.170719e-15 -1.298671e-16 -4.599079e-15 1.511101e-15 -4.200614e-15 5.605110e-15 -1.246218e-15 1.246625e-14 4.060445e-15 1.646539e-14 3.431576e-15 2.198097e-15 -1.044405e-14 -2.844856e-14 -2.910346e-14 -4.229796e-14 7.738467e-15 1.701533e-14 2.581273e-14 2.009116e-14 1.153361e-14 -3.536814e-15 -4.143336e-15 -1.269844e-14 -7.535237e-15 -8.535884e-15 -5.630535e-15 -4.076743e-15 -4.008645e-15 -1.476270e-15 -3.622195e-15 -5.341789e-16 
-8.796299e-02 -8.587981e-02 -7.510153e-02 -6.143020e-02 -3.739402e-02 -1.202076e-02 3.007286e-02 7.060191e-02 1.322114e-01 1.761040e-01 2.209619e-01 2.195124e-01 1.661377e-01 5.946927e-02 -1.271100e-01 -3.663568e-01 -5.315935e-01 -3.663568e-01 -1.271100e-01 5.946927e-02 1.661377e-01 2.195124e-01 2.209619e-01 1.761040e-01 1.322114e-01 7.060191e-02 3.007286e-02 -1.202076e-02 -3.739402e-02 -6.143020e-02 -7.510153e-02 -8.587981e-02 
-1.803573e-01 -1.760781e-01 -1.548012e-01 -1.280417e-01 -8.241704e-02 -3.488705e-02 4.269488e-02 1.173024e-01 2.333520e-01 3.193172e-01 4.182468e-01 4.359985e-01 3.560465e-01 1.622682e-01 -2.018923e-01 -6.958793e-01 -1.042102e+00 -6.958793e-01 -2.018923e-01 1.622682e-01 3.560465e-01 4.359985e-01 4.182468e-01 3.193172e-01 2.333520e-01 1.173024e-01 4.269488e-02 -3.488705e-02 -8.241704e-02 -1.280417e-01 -1.548012e-01 -1.760781e-01 
-2.876992e-01 -2.803283e-01 -2.487321e-01 -2.087943e-01 -1.449490e-01 -8.069814e-02 2.238963e-02 1.156035e-01 2.729018e-01 3.767834e-01 5.357916e-01 5.789353e-01 5.163236e-01 3.730582e-01 -9.351756e-02 -8.745597e-01 -1.432716e+00 -8.745597e-01 -9.351756e-02 3.730582e-01 5.163236e-01 5.789353e-01 5.357916e-01 3.767834e-01 2.729018e-01 1.156035e-01 2.238963e-02 -8.069814e-02 -1.449490e-01 -2.087943e-01 -2.487321e-01 -2.803283e-01 
-4.070200e-01 -3.958654e-01 -3.530148e-01 -2.996478e-01 -2.213314e-01 -1.449400e-01 -2.834461e-02 7.701652e-02 2.627615e-01 3.840883e-01 6.266976e-01 7.396034e-01 7.287726e-01 6.112771e-01 -4.661268e-05 -9.715321e-01 -1.623969e+00 -9.715321e-01 -4.661268e-05 6.112771e-01 7.287726e-01 7.396034e-01 6.266976e-01 3.840883e-01 2.627615e-01 7.701652e-02 -2.834461e-02 -1.449400e-01 -2.213314e-01 -2.996478e-01 -3.530148e-01 -3.958654e-01 
-5.547055e-01 -5.370317e-01 -4.803881e-01 -4.092180e-01 -3.181583e-01 -2.313810e-01 -1.120093e-01 -3.900012e-03 1.944239e-01 2.790267e-01 6.202293e-01 6.414734e-01 6.481430e-01 9.314038e-01 3.356013e-01 -6.703732e-01 -1.220978e+00 -6.703732e-01 3.356013e-01 9.314038e-01 6.481430e-01 6.414734e-01 6.202293e-01 2.790267e-01 1.944239e-01 -3.900012e-03 -1.120093e-01 -2.313810e-01 -3.181583e-01 -4.092180e-01 -4.803881e-01 -5.370317e-01 
-7.185006e-01 -6.925654e-01 -6.167460e-01 -5.247600e-01 -4.226901e-01 -3.326797e-01 -2.278428e-01 -1.224068e-01 5.547379e-02 1.175475e-01 6.166826e-01 8.227004e-01 1.017010e+00 7.615961e-01 -1.836490e-01 -2.943207e-02 2.420244e-01 -2.943207e-02 -1.836490e-01 7.615961e-01 1.017010e+00 8.227004e-01 6.166826e-01 1.175475e-01 5.547379e-02 -1.224068e-01 -2.278428e-01 -3.326797e-01 -4.226901e-01 -5.247600e-01 -6.167460e-01 -6.925654e-01 
-9.194117e-01 -8.806715e-01 -7.783307e-01 -6.550402e-01 -5.400803e-01 -4.432645e-01 -3.653568e-01 -2.530926e-01 -1.080991e-01 1.873648e-02 7.636175e-01 3.805662e-01 -2.767998e-01 2.137960e-01 9.528647e-01 1.618970e+00 1.623780e+00 1.618970e+00 9.528647e-01 2.137960e-01 -2.767998e-01 3.805662e-01 7.636175e-01 1.873648e-02 -1.080991e-01 -2.530926e-01 -3.653568e-01 -4.432645e-01 -5.400803e-01 -6.550402e-01 -7.783307e-01 -8.806715e-01 
-1.125788e+00 -1.072552e+00 -9.340739e-01 -7.747089e-01 -6.449697e-01 -5.640150e-01 -5.376181e-01 -4.851308e-01 -3.171835e-01 -1.556640e-01 3.841224e-02 -4.157750e-02 8.301524e-01 1.756343e+00 1.590033e+00 1.337306e+00 1.076283e+00 1.337306e+00 1.590033e+00 1.756343e+00 8.301524e-01 -4.157750e-02 3.841224e-02 -1.556640e-01 -3.171835e-01 -4.851308e-01 -5.376181e-01 -5.640150e-01 -6.449697e-01 -7.747089e-01 -9.340739e-01 -1.072552e+00 
-1.354942e+00 -1.284658e+00 -1.103016e+00 -8.994873e-01 -7.537099e-01 -6.969590e-01 -7.580148e-01 -6.250826e-01 -2.869187e-01 8.905561e-02 6.887719e-01 1.174001e+00 1.478616e+00 1.252143e+00 9.908892e-01 9.909866e-01 8.417065e-01 9.909866e-01 9.908892e-01 1.252143e+00 1.478616e+00 1.174001e+00 6.887719e-01 8.905561e-02 -2.869187e-01 -6.250826e-01 -7.580148e-01 -6.969590e-01 -7.537099e-01 -8.994873e-01 -1.103016e+00 -1.284658e+00 
-1.542528e+00 -1.454665e+00 -1.222810e+00 -9.700197e-01 -8.053266e-01 -7.946699e-01 -8.798820e-01 -3.501521e-01 3.284121e-01 5.989689e-01 1.003292e+00 1.069321e+00 7.884912e-01 5.997625e-01 9.062656e-01 1.301454e+00 1.305643e+00 1.301454e+00 9.062656e-01 5.997625e-01 7.884912e-01 1.069321e+00 1.003292e+00 5.989689e-01 3.284121e-01 -3.501521e-01 -8.798820e-01 -7.946699e-01 -8.053266e-01 -9.700197e-01 -1.222810e+00 -1.454665e+00 
-1.701535e+00 -1.595893e+00 -1.314160e+00 -1.020271e+00 -8.239980e-01 -8.748284e-01 -5.889866e-01 4.849110e-01 6.001623e-01 4.216969e-01 1.000801e+00 7.920604e-01 5.905886e-01 6.897225e-01 8.222359e-01 1.102602e+00 1.128249e+00 1.102602e+00 8.222359e-01 6.897225e-01 5.905886e-01 7.920604e-01 1.000801e+00 4.216969e-01 6.001623e-01 4.849110e-01 -5.889866e-01 -8.748284e-01 -8.239980e-01 -1.020271e+00 -1.314160e+00 -1.595893e+00 
-1.741533e+00 -1.615886e+00 -1.284758e+00 -9.354460e-01 -6.790674e-01 -6.221462e-01 1.712253e-01 7.861574e-01 4.731937e-02 5.407360e-01 1.354143e+00 5.717784e-01 1.982788e-01 3.726925e-01 5.756061e-01 9.021142e-01 9.760372e-01 9.021142e-01 5.756061e-01 3.726925e-01 1.982788e-01 5.717784e-01 1.354143e+00 5.407360e-01 4.731937e-02 7.861574e-01 1.712253e-01 -6.221462e-01 -6.790674e-01 -9.354460e-01 -1.284758e+00 -1.615886e+00 
-1.664746e+00 -1.518653e+00 -1.176120e+00 -7.766062e-01 -5.323099e-01 -2.405368e-01 6.388765e-01 3.640916e-01 -2.141625e-01 1.106168e+00 1.320116e+00 2.048043e-01 9.856000e-02 2.573306e-01 3.723823e-01 6.034021e-01 6.500611e-01 6.034021e-01 3.723823e-01 2.573306e-01 9.856000e-02 2.048043e-01 1.320116e+00 1.106168e+00 -2.141625e-01 3.640916e-01 6.388765e-01 -2.405368e-01 -5.323099e-01 -7.766062e-01 -1.176120e+00 -1.518653e+00 
-1.359968e+00 -1.212185e+00 -8.974759e-01 -4.956900e-01 -3.088692e-01 7.008102e-02 5.315786e-01 -1.074728e-01 -1.988997e-02 1.238574e+00 1.051414e+00 8.471610e-02 -3.192775e-02 8.253289e-02 1.694795e-01 3.394436e-01 3.713496e-01 3.394436e-01 1.694795e-01 8.253289e-02 -3.192775e-02 8.471610e-02 1.051414e+00 1.238574e+00 -1.988997e-02 -1.074728e-01 5.315786e-01 7.008102e-02 -3.088692e-01 -4.956900e-01 -8.974759e-01 -1.212185e+00 
-7.978753e-01 -6.892958e-01 -4.696791e-01 -2.084680e-01 -1.160633e-01 1.479399e-01 3.361902e-01 -1.498855e-01 4.821951e-02 7.556410e-01 5.226413e-01 3.086474e-04 -5.275710e-02 6.743795e-03 5.514442e-02 1.370159e-01 1.504835e-01 1.370159e-01 5.514442e-02 6.743795e-03 -5.275710e-02 3.086474e-04 5.226413e-01 7.556410e-01 4.821951e-02 -1.498855e-01 3.361902e-01 1.479399e-01 -1.160633e-01 -2.084680e-01 -4.696791e-01 -6.892958e-01 
-1.969675e-15 4.903896e-15 1.370068e-14 1.568781e-14 1.895536e-14 4.580788e-14 9.684317e-14 4.364725e-14 -5.440607e-14 -4.752335e-14 -2.648759e-14 7.977175e-15 -1.436114e-14 7.981997e-15 -1.507218e-14 -2.103539e-15 -1.791464e-14 -1.436723e-14 -2.214085e-14 -3.678045e-14 -4.626538e-14 -6.579726e-14 -6.791958e-14 -6.049028e-14 1.749999e-13 2.004468e-13 -1.510373e-14 -1.068846e-13 -4.737724e-14 -1.020484e-14 -1.608318e-15 -8.683575e-15 
7.978753e-01 6.892958e-01 4.696791e-01 2.084680e-01 1.160633e-01 -1.479399e-01 -3.361902e-01 1.498855e-01 -4.821951e-02 -7.556410e-01 -5.226413e-01 -3.086474e-04 5.275710e-02 -6.743795e-03 -5.514442e-02 -1.370159e-01 -1.504835e-01 -1.370159e-01 -5.514442e-02 -6.743795e-03 5.275710e-02 -3.086474e-04 -5.226413e-01 -7.556410e-01 -4.821951e-02 1.498855e-01 -3.361902e-01 -1.479399e-01 1.160633e-01 2.084680e-01 4.696791e-01 6.892958e-01 
1.359968e+00 1.212185e+00 8.974759e-01 4.956900e-01 3.088692e-01 -7.008102e-02 -5.315786e-01 1.074728e-01 1.988997e-02 -1.238574e+00 -1.051414e+00 -8.471610e-02 3.192775e-02 -8.253289e-02 -1.694795e-01 -3.394436e-01 -3.713496e-01 -3.394436e-01 -1.694795e-01 -8.253289e-02 3.192775e-02 -8.471610e-02 -1.051414e+00 -1.238574e+00 1.988997e-02 1.074728e-01 -5.315786e-01 -7.008102e-02 3.088692e-01 4.956900e-01 8.974759e-01 1.212185e+00 
1.664746e+00 1.518653e+00 1.176120e+00 7.766062e-01 5.323099e-01 2.405368e-01 -6.388765e-01 -3.640916e-01 2.141625e-01 -1.106168e+00 -1.320116e+00 -2.048043e-01 -9.856000e-02 -2.573306e-01 -3.723823e-01 -6.034021e-01 -6.500611e-01 -6.034021e-01 -3.723823e-01 -2.573306e-01 -9.856000e-02 -2.048043e-01 -1.320116e+00 -1.106168e+00 2.141625e-01 -3.640916e-01 -6.388765e-01 2.405368e-01 5.323099e-01 7.766062e-01 1.176120e+00 1.518653e+00 
1.741533e+00 1.615886e+00 1.284758e+00 9.354460e-01 6.790674e-01 6.221462e-01 -1.712253e-01 -7.861574e-01 -4.731937e-02 -5.407360e-01 -1.354143e+00 -5.717784e-01 -1.982788e-01 -3.726925e-01 -5.756061e-01 -9.021142e-01 -9.760372e-01 -9.021142e-01 -5.756061e-01 -3.726925e-01 -1.982788e-01 -5.717784e-01 -1.354143e+00 -5.407360e-01 -4.731937e-02 -7.861574e-01 -1.712253e-01 6.221462e-01 6.790674e-01 9.354460e-01 1.284758e+00 1.615886e+00 
1.701535e+00 1.595893e+00 1.314160e+00 1.020271e+00 8.239980e-01 8.748284e-01 5.889866e-01 -4.849110e-01 -6.001623e-01 -4.216969e-01 -1.000801e+00 -7.920604e-01 -5.905886e-01 -6.897225e-01 -8.222359e-01 -1.102602e+00 -1.128249e+00 -1.102602e+00 -8.222359e-01 -6.897225e-01 -5.905886e-01 -7.920604e-01 -1.000801e+00 -4.216969e-01 -6.001623e-01 -4.849110e-01 5.889866e-01 8.748284e-01 8.239980e-01 1.020271e+00 1.314160e+00 1.595893e+00 
1.542528e+00 1.454665e+00 1.222810e+00 9.700197e-01 8.053266e-01 7.946699e-01 8.798820e-01 3.501521e-01 -3.284121e-01 -5.989689e-01 -1.003292e+00 -1.069321e+00 -7.884912e-01 -5.997625e-01 -9.062656e-01 -1.301454e+00 -1.305643e+00 -1.301454e+00 -9.062656e-01 -5.997625e-01 -7.884912e-01 -1.069321e+00 -1.003292e+00 -5.989689e-01 -3.284121e-01 3.501521e-01 8.798820e-01 7.946699e-01 8.053266e-01 9.700197e-01 1.222810e+00 1.454665e+00 
1.354942e+00 1.284658e+00 1.103016e+00 8.994873e-01 7.537099e-01 6.969590e-01 7.580148e-01 6.250826e-01 2.869187e-01 -8.905561e-02 -6.887719e-01 -1.174001e+00 -1.478616e+00 -1.252143e+00 -9.908892e-01 -9.909866e-01 -8.417065e-01 -9.909866e-01 -9.908892e-01 -1.252143e+00 -1.478616e+00 -1.174001e+00 -6.887719e-01 -8.905561e-02 2.869187e-01 6.250826e-01 7.580148e-01 6.969590e-01 7.537099e-01 8.994873e-01 1.103016e+00 1.284658e+00 
1.125788e+00 1.072552e+00 9.340739e-01 7.747089e-01 6.449697e-01 5.640150e-01 5.376181e-01 4.851308e-01 3.171835e-01 1.556640e-01 -3.841224e-02 4.157750e-02 -8.301524e-01 -1.756343e+00 -1.590033e+00 -1.337306e+00 -1.076283e+00 -1.337306e+00 -1.590033e+00 -1.756343e+00 -8.301524e-01 4.157750e-02 -3.841224e-02 1.556640e-01 3.171835e-01 4.851308e-01 5.376181e-01 5.640150e-01 6.449697e-01 7.747089e-01 9.340739e-01 1.072552e+00 
9.194117e-01 8.806715e-01 7.783307e-01 6.550402e-01 5.400803e-01 4.432645e-01 3.653568e-01 2.530926e-01 1.080991e-01 -1.873648e-02 -7.636175e-01 -3.805662e-01 2.767998e-01 -2.137960e-01 -9.528647e-01 -1.618970e+00 -1.623780e+00 -1.618970e+00 -9.528647e-01 -2.137960e-01 2.767998e-01 -3.805662e-01 -7.636175e-01 -1.873648e-02 1.080991e-01 2.530926e-01 3.653568e-01 4.432645e-01 5.400803e-01 6.550402e-01 7.783307e-01 8.806715e-01 
7.185006e-01 6.925654e-01 6.167460e-01 5.247600e-01 4.226901e-01 3.326797e-01 2.278428e-01 1.224068e-01 -5.547379e-02 -1.175475e-01 -6.166826e-01 -8.227004e-01 -1.017010e+00 -7.615961e-01 1.836490e-01 2.943207e-02 -2.420244e-01 2.943207e-02 1.836490e-01 -7.615961e-01 -1.017010e+00 -8.227004e-01 -6.166826e-01 -1.175475e-01 -5.547379e-02 1.224068e-01 2.278428e-01 3.326797e-01 4.226901e-01 5.247600e-01 6.167460e-01 6.925654e-01 
5.547055e-01 5.370317e-01 4.803881e-01 4.092180e-01 3.181583e-01 2.313810e-01 1.120093e-01 3.900012e-03 -1.944239e-01 -2.790267e-01 -6.202293e-01 -6.414734e-01 -6.481430e-01 -9.314038e-01 -3.356013e-01 6.703732e-01 1.220978e+00 6.703732e-01 -3.356013e-01 -9.314038e-01 -6.481430e-01 -6.414734e-01 -6.202293e-01 -2.790267e-01 -1.944239e-01 3.900012e-03 1.120093e-01 2.313810e-01 3.181583e-01 4.092180e-01 4.803881e-01 5.370317e-01 
4.070200e-01 3.958654e-01 3.530148e-01 2.996478e-01 2.213314e-01 1.449400e-01 2.834461e-02 -7.701652e-02 -2.627615e-01 -3.840883e-01 -6.266976e-01 -7.396034e-01 -7.287726e-01 -6.112771e-01 4.661268e-05 9.715321e-01 1.623969e+00 9.715321e-01 4.661268e-05 -6.112771e-01 -7.287726e-01 -7.396034e-01 -6.266976e-01 -3.840883e-01 -2.627615e-01 -7.701652e-02 2.834461e-02 1.449400e-01 2.213314e-01 2.996478e-01 3.530148e-01 3.958654e-01 
2.876992e-01 2.803283e-01 2.487321e-01 2.087943e-01 1.449490e-01 8.069814e-02 -2.238963e-02 -1.156035e-01 -2.729018e-01 -3.767834e-01 -5.357916e-01 -5.789353e-01 -5.163236e-01 -3.730582e-01 9.351756e-02 8.745597e-01 1.432716e+00 8.745597e-01 9.351756e-02 -3.730582e-01 -5.163236e-01 -5.789353e-01 -5.357916e-01 -3.767834e-01 -2.729018e-01 -1.156035e-01 -2.238963e-02 8.069814e-02 1.449490e-01 2.087943e-01 2.487321e-01 2.803283e-01 
1.803573e-01 1.760781e-01 1.548012e-01 1.280417e-01 8.241704e-02 3.488705e-02 -4.269488e-02 -1.173024e-01 -2.333520e-01 -3.193172e-01 -4.182468e-01 -4.359985e-01 -3.560465e-01 -1.622682e-01 2.018923e-01 6.958793e-01 1.042102e+00 6.958793e-01 2.018923e-01 -1.622682e-01 -3.560465e-01 -4.359985e-01 -4.182468e-01 -3.193172e-01 -2.333520e-01 -1.173024e-01 -4.269488e-02 3.488705e-02 8.241704e-02 1.280417e-01 1.548012e-01 1.760781e-01 
8.796299e-02 8.587981e-02 7.510153e-02 6.143020e-02 3.739402e-02 1.202076e-02 -3.007286e-02 -7.060191e-02 -1.322114e-01 -1.761040e-01 -2.209619e-01 -2.195124e-01 -1.661377e-01 -5.946927e-02 1.271100e-01 3.663568e-01 5.315935e-01 3.663568e-01 1.271100e-01 -5.946927e-02 -1.661377e-01 -2.195124e-01 -2.209619e-01 -1.761040e-01 -1.322114e-01 -7.060191e-02 -3.007286e-02 1.202076e-02 3.739402e-02 6.143020e-02 7.510153e-02 8.587981e-02 
