# vtk DataFile Version 2.0
Comment goes here
ASCII

DATASET STRUCTURED_POINTS
FIELD FieldData 1
TIME 1 1 double
0.66000000
DIMENSIONS    32   32   1

ORIGIN    0.000   0.000   0.000
SPACING   0.03125 0.03125   1.000

POINT_DATA   1024
SCALARS uY double
LOOKUP_TABLE default

-1.996533e-15 -7.086232e-15 -3.624029e-15 -6.855939e-15 -2.220193e-15 -3.932720e-15 9.719583e-16 -1.265604e-16 -6.271557e-16 -6.714156e-16 -7.941462e-15 4.598585e-15 -8.757348e-15 1.521527e-14 -1.252056e-14 5.778692e-15 -1.179574e-14 -2.837125e-15 -9.219029e-15 -1.115356e-14 -2.837182e-16 -5.800028e-15 1.064570e-14 -3.149567e-15 5.732037e-15 -6.587948e-15 1.525882e-15 -6.373933e-15 1.050069e-15 -4.815779e-15 1.015910e-17 -5.175604e-15 
-4.612942e-02 -4.150367e-02 -2.992629e-02 -1.012666e-02 1.684929e-02 5.147073e-02 9.316590e-02 1.371945e-01 1.775836e-01 2.029900e-01 2.053802e-01 1.655881e-01 7.852401e-02 -7.330385e-02 -2.676683e-01 -4.323091e-01 -5.016873e-01 -4.323091e-01 -2.676683e-01 -7.330385e-02 7.852401e-02 1.655881e-01 2.053802e-01 2.029900e-01 1.775836e-01 1.371945e-01 9.316590e-02 5.147073e-02 1.684929e-02 -1.012666e-02 -2.992629e-02 -4.150367e-02 
-9.514080e-02 -8.614447e-02 -6.415258e-02 -2.746065e-02 2.084200e-02 8.105620e-02 1.517681e-01 2.255264e-01 2.903378e-01 3.300217e-01 3.259666e-01 2.567529e-01 1.058623e-01 -1.391638e-01 -4.010608e-01 -6.405882e-01 -7.639860e-01 -6.405882e-01 -4.010608e-01 -1.391638e-01 1.058623e-01 2.567529e-01 3.259666e-01 3.300217e-01 2.903378e-01 2.255264e-01 1.517681e-01 8.105620e-02 2.084200e-02 -2.746065e-02 -6.415258e-02 -8.614447e-02 
-1.682722e-01 -1.540263e-01 -1.209559e-01 -6.707888e-02 5.113575e-04 8.179443e-02 1.760043e-01 2.744166e-01 3.666487e-01 4.319862e-01 4.575914e-01 3.985795e-01 2.617470e-01 -5.373781e-02 -5.260556e-01 -9.119336e-01 -1.062710e+00 -9.119336e-01 -5.260556e-01 -5.373781e-02 2.617470e-01 3.985795e-01 4.575914e-01 4.319862e-01 3.666487e-01 2.744166e-01 1.760043e-01 8.179443e-02 5.113575e-04 -6.707888e-02 -1.209559e-01 -1.540263e-01 
-2.458672e-01 -2.260677e-01 -1.821895e-01 -1.144980e-01 -3.611636e-02 5.025688e-02 1.445328e-01 2.379747e-01 3.220227e-01 3.848802e-01 4.068477e-01 3.472290e-01 1.476294e-01 -1.413880e-01 -3.111317e-01 -5.383872e-01 -7.373228e-01 -5.383872e-01 -3.111317e-01 -1.413880e-01 1.476294e-01 3.472290e-01 4.068477e-01 3.848802e-01 3.220227e-01 2.379747e-01 1.445328e-01 5.025688e-02 -3.611636e-02 -1.144980e-01 -1.821895e-01 -2.260677e-01 
-3.704187e-01 -3.419459e-01 -2.827658e-01 -1.952984e-01 -1.031210e-01 -1.127212e-02 8.200342e-02 1.693278e-01 2.506653e-01 3.372129e-01 4.205612e-01 4.404053e-01 5.103185e-01 3.071864e-01 -3.085897e-01 -7.056160e-01 -7.677253e-01 -7.056160e-01 -3.085897e-01 3.071864e-01 5.103185e-01 4.404053e-01 4.205612e-01 3.372129e-01 2.506653e-01 1.693278e-01 8.200342e-02 -1.127212e-02 -1.031210e-01 -1.952984e-01 -2.827658e-01 -3.419459e-01 
-4.928492e-01 -4.532836e-01 -3.738061e-01 -2.634342e-01 -1.590337e-01 -7.354433e-02 6.940083e-04 4.777864e-02 8.251949e-02 1.394970e-01 2.147774e-01 7.640905e-02 -5.925320e-01 -8.211118e-01 2.333933e-01 1.347689e+00 1.680824e+00 1.347689e+00 2.333933e-01 -8.211118e-01 -5.925320e-01 7.640905e-02 2.147774e-01 1.394970e-01 8.251949e-02 4.777864e-02 6.940083e-04 -7.354433e-02 -1.590337e-01 -2.634342e-01 -3.738061e-01 -4.532836e-01 
-6.814978e-01 -6.253574e-01 -5.175817e-01 -3.715546e-01 -2.461385e-01 -1.620923e-01 -1.055744e-01 -1.110522e-01 -1.599241e-01 -1.543001e-01 -3.327179e-01 -9.309689e-01 -6.706007e-01 1.140439e+00 1.848402e+00 1.214886e+00 1.049769e+00 1.214886e+00 1.848402e+00 1.140439e+00 -6.706007e-01 -9.309689e-01 -3.327179e-01 -1.543001e-01 -1.599241e-01 -1.110522e-01 -1.055744e-01 -1.620923e-01 -2.461385e-01 -3.715546e-01 -5.175817e-01 -6.253574e-01 
-8.455763e-01 -7.694688e-01 -6.248387e-01 -4.316668e-01 -2.770038e-01 -1.960814e-01 -1.612785e-01 -2.700476e-01 -4.387269e-01 -5.320982e-01 -3.302776e-01 3.227742e-01 1.525918e+00 2.149356e+00 8.307368e-01 -2.727675e-01 -2.034814e-01 -2.727675e-01 8.307368e-01 2.149356e+00 1.525918e+00 3.227742e-01 -3.302776e-01 -5.320982e-01 -4.387269e-01 -2.700476e-01 -1.612785e-01 -1.960814e-01 -2.770038e-01 -4.316668e-01 -6.248387e-01 -7.694688e-01 
-1.074820e+00 -9.752539e-01 -7.925035e-01 -5.394242e-01 -3.448138e-01 -2.508085e-01 -2.057241e-01 -4.573107e-01 -4.279626e-01 -1.026712e-01 3.384310e-01 8.837974e-01 9.157484e-01 8.287482e-01 5.831616e-01 6.129229e-01 9.421463e-01 6.129229e-01 5.831616e-01 8.287482e-01 9.157484e-01 8.837974e-01 3.384310e-01 -1.026712e-01 -4.279626e-01 -4.573107e-01 -2.057241e-01 -2.508085e-01 -3.448138e-01 -5.394242e-01 -7.925035e-01 -9.752539e-01 
-1.226365e+00 -1.104723e+00 -8.817337e-01 -5.534088e-01 -3.028387e-01 -1.524393e-01 -9.765664e-02 -4.161237e-01 1.810108e-02 3.723229e-01 3.200692e-01 9.173404e-01 8.720514e-01 4.711315e-01 3.314818e-01 4.659003e-01 7.074161e-01 4.659003e-01 3.314818e-01 4.711315e-01 8.720514e-01 9.173404e-01 3.200692e-01 3.723229e-01 1.810108e-02 -4.161237e-01 -9.765664e-02 -1.524393e-01 -3.028387e-01 -5.534088e-01 -8.817337e-01 -1.104723e+00 
-1.406099e+00 -1.268234e+00 -1.029433e+00 -6.365769e-01 -3.775941e-01 -1.456991e-01 -2.273448e-01 -2.457040e-01 6.013196e-01 2.888092e-01 3.328022e-01 1.083854e+00 4.726916e-01 2.134440e-01 4.534624e-01 7.101063e-01 9.542914e-01 7.101063e-01 4.534624e-01 2.134440e-01 4.726916e-01 1.083854e+00 3.328022e-01 2.888092e-01 6.013196e-01 -2.457040e-01 -2.273448e-01 -1.456991e-01 -3.775941e-01 -6.365769e-01 -1.029433e+00 -1.268234e+00 
-1.434564e+00 -1.292755e+00 -1.046366e+00 -5.959577e-01 -2.898114e-01 9.879497e-02 -2.525805e-02 4.701771e-01 8.771032e-01 -2.356172e-01 5.959095e-01 9.885564e-01 1.764157e-01 1.720484e-01 1.798559e-01 3.947527e-01 4.988674e-01 3.947527e-01 1.798559e-01 1.720484e-01 1.764157e-01 9.885564e-01 5.959095e-01 -2.356172e-01 8.771032e-01 4.701771e-01 -2.525805e-02 9.879497e-02 -2.898114e-01 -5.959577e-01 -1.046366e+00 -1.292755e+00 
-1.413750e+00 -1.287610e+00 -1.062943e+00 -6.205412e-01 -2.963976e-01 1.475460e-01 1.050935e-01 8.182550e-01 6.877083e-01 -4.682618e-01 9.463591e-01 9.039285e-01 8.113138e-03 1.667283e-01 1.260038e-01 3.399553e-01 3.858760e-01 3.399553e-01 1.260038e-01 1.667283e-01 8.113138e-03 9.039285e-01 9.463591e-01 -4.682618e-01 6.877083e-01 8.182550e-01 1.050935e-01 1.475460e-01 -2.963976e-01 -6.205412e-01 -1.062943e+00 -1.287610e+00 
-1.166155e+00 -1.074894e+00 -9.037693e-01 -5.322532e-01 -1.869556e-01 3.208164e-01 4.683528e-01 8.176151e-01 3.319808e-01 -3.386328e-01 9.287590e-01 6.138248e-01 -8.547746e-02 6.713565e-02 -2.785140e-02 1.263875e-01 1.160774e-01 1.263875e-01 -2.785140e-02 6.713565e-02 -8.547746e-02 6.138248e-01 9.287590e-01 -3.386328e-01 3.319808e-01 8.176151e-01 4.683528e-01 3.208164e-01 -1.869556e-01 -5.322532e-01 -9.037693e-01 -1.074894e+00 
-7.433957e-01 -6.920524e-01 -5.768410e-01 -3.166117e-01 -3.135195e-02 3.241323e-01 4.330379e-01 3.878459e-01 2.823227e-02 -1.175034e-01 5.469172e-01 3.221802e-01 -3.959556e-02 2.544179e-02 -1.901902e-02 6.656717e-02 6.063609e-02 6.656717e-02 -1.901902e-02 2.544179e-02 -3.959556e-02 3.221802e-01 5.469172e-01 -1.175034e-01 2.823227e-02 3.878459e-01 4.330379e-01 3.241323e-01 -3.135195e-02 -3.166117e-01 -5.768410e-01 -6.920524e-01 
1.945194e-14 2.411546e-14 2.033772e-14 2.748635e-14 2.177618e-14 1.810918e-14 1.342678e-14 5.712337e-14 2.669257e-14 -7.655685e-14 -4.223782e-14 -1.906807e-14 -2.942635e-14 -1.674403e-14 -2.353133e-14 -1.618308e-14 -2.680829e-14 -3.007835e-14 -4.226442e-14 -5.841117e-14 -6.720265e-14 -4.966961e-14 5.674973e-14 1.254717e-13 6.803854e-14 -7.827357e-14 -7.962100e-14 -9.130388e-16 2.420464e-14 3.043372e-14 2.136379e-14 2.418413e-14 
7.433957e-01 6.920524e-01 5.768410e-01 3.166117e-01 3.135195e-02 -3.241323e-01 -4.330379e-01 -3.878459e-01 -2.823227e-02 1.175034e-01 -5.469172e-01 -3.221802e-01 3.959556e-02 -2.544179e-02 1.901902e-02 -6.656717e-02 -6.063609e-02 -6.656717e-02 1.901902e-02 -2.544179e-02 3.959556e-02 -3.221802e-01 -5.469172e-01 1.175034e-01 -2.823227e-02 -3.878459e-01 -4.330379e-01 -3.241323e-01 3.135195e-02 3.166117e-01 5.768410e-01 6.920524e-01 
1.166155e+00 1.074894e+00 9.037693e-01 5.322532e-01 1.869556e-01 -3.208164e-01 -4.683528e-01 -8.176151e-01 -3.319808e-01 3.386328e-01 -9.287590e-01 -6.138248e-01 8.547746e-02 -6.713565e-02 2.785140e-02 -1.263875e-01 -1.160774e-01 -1.263875e-01 2.785140e-02 -6.713565e-02 8.547746e-02 -6.138248e-01 -9.287590e-01 3.386328e-01 -3.319808e-01 -8.176151e-01 -4.683528e-01 -3.208164e-01 1.869556e-01 5.322532e-01 9.037693e-01 1.074894e+00 
1.413750e+00 1.287610e+00 1.062943e+00 6.205412e-01 2.963976e-01 -1.475460e-01 -1.050935e-01 -8.182550e-01 -6.877083e-01 4.682618e-01 -9.463591e-01 -9.039285e-01 -8.113138e-03 -1.667283e-01 -1.260038e-01 -3.399553e-01 -3.858760e-01 -3.399553e-01 -1.260038e-01 -1.667283e-01 -8.113138e-03 -9.039285e-01 -9.463591e-01 4.682618e-01 -6.877083e-01 -8.182550e-01 -1.050935e-01 -1.475460e-01 2.963976e-01 6.205412e-01 1.062943e+00 1.287610e+00 
1.434564e+00 1.292755e+00 1.046366e+00 5.959577e-01 2.898114e-01 -9.879497e-02 2.525805e-02 -4.701771e-01 -8.771032e-01 2.356172e-01 -5.959095e-01 -9.885564e-01 -1.764157e-01 -1.720484e-01 -1.798559e-01 -3.947527e-01 -4.988674e-01 -3.947527e-01 -1.798559e-01 -1.720484e-01 -1.764157e-01 -9.885564e-01 -5.959095e-01 2.356172e-01 -8.771032e-01 -4.701771e-01 2.525805e-02 -9.879497e-02 2.898114e-01 5.959577e-01 1.046366e+00 1.292755e+00 
1.406099e+00 1.268234e+00 1.029433e+00 6.365769e-01 3.775941e-01 1.456991e-01 2.273448e-01 2.457040e-01 -6.013196e-01 -2.888092e-01 -3.328022e-01 -1.083854e+00 -4.726916e-01 -2.134440e-01 -4.534624e-01 -7.101063e-01 -9.542914e-01 -7.101063e-01 -4.534624e-01 -2.134440e-01 -4.726916e-01 -1.083854e+00 -3.328022e-01 -2.888092e-01 -6.013196e-01 2.457040e-01 2.273448e-01 1.456991e-01 3.775941e-01 6.365769e-01 1.029433e+00 1.268234e+00 
1.226365e+00 1.104723e+00 8.817337e-01 5.534088e-01 3.028387e-01 1.524393e-01 9.765664e-02 4.161237e-01 -1.810108e-02 -3.723229e-01 -3.200692e-01 -9.173404e-01 -8.720514e-01 -4.711315e-01 -3.314818e-01 -4.659003e-01 -7.074161e-01 -4.659003e-01 -3.314818e-01 -4.711315e-01 -8.720514e-01 -9.173404e-01 -3.200692e-01 -3.723229e-01 -1.810108e-02 4.161237e-01 9.765664e-02 1.524393e-01 3.028387e-01 5.534088e-01 8.817337e-01 1.104723e+00 
1.074820e+00 9.752539e-01 7.925035e-01 5.394242e-01 3.448138e-01 2.508085e-01 2.057241e-01 4.573107e-01 4.279626e-01 1.026712e-01 -3.384310e-01 -8.837974e-01 -9.157484e-01 -8.287482e-01 -5.831616e-01 -6.129229e-01 -9.421463e-01 -6.129229e-01 -5.831616e-01 -8.287482e-01 -9.157484e-01 -8.837974e-01 -3.384310e-01 1.026712e-01 4.279626e-01 4.573107e-01 2.057241e-01 2.508085e-01 3.448138e-01 5.394242e-01 7.925035e-01 9.752539e-01 
8.455763e-01 7.694688e-01 6.248387e-01 4.316668e-01 2.770038e-01 1.960814e-01 1.612785e-01 2.700476e-01 4.387269e-01 5.320982e-01 3.302776e-01 -3.227742e-01 -1.525918e+00 -2.149356e+00 -8.307368e-01 2.727675e-01 2.034814e-01 2.727675e-01 -8.307368e-01 -2.149356e+00 -1.525918e+00 -3.227742e-01 3.302776e-01 5.320982e-01 4.387269e-01 2.700476e-01 1.612785e-01 1.960814e-01 2.770038e-01 4.316668e-01 6.248387e-01 7.694688e-01 
6.814978e-01 6.253574e-01 5.175817e-01 3.715546e-01 2.461385e-01 1.620923e-01 1.055744e-01 1.110522e-01 1.599241e-01 1.543001e-01 3.327179e-01 9.309689e-01 6.706007e-01 -1.140439e+00 -1.848402e+00 -1.214886e+00 -1.049769e+00 -1.214886e+00 -1.848402e+00 -1.140439e+00 6.706007e-01 9.309689e-01 3.327179e-01 1.543001e-01 1.599241e-01 1.110522e-01 1.055744e-01 1.620923e-01 2.461385e-01 3.715546e-01 5.175817e-01 6.253574e-01 
4.928492e-01 4.532836e-01 3.738061e-01 2.634342e-01 1.590337e-01 7.354433e-02 -6.940083e-04 -4.777864e-02 -8.251949e-02 -1.394970e-01 -2.147774e-01 -7.640905e-02 5.925320e-01 8.211118e-01 -2.333933e-01 -1.347689e+00 -1.680824e+00 -1.347689e+00 -2.333933e-01 8.211118e-01 5.925320e-01 -7.640905e-02 -2.147774e-01 -1.394970e-01 -8.251949e-02 -4.777864e-02 -6.940083e-04 7.354433e-02 1.590337e-01 2.634342e-01 3.738061e-01 4.532836e-01 
3.704187e-01 3.419459e-01 2.827658e-01 1.952984e-01 1.031210e-01 1.127212e-02 -8.200342e-02 -1.693278e-01 -2.506653e-01 -3.372129e-01 -4.205612e-01 -4.404053e-01 -5.103185e-01 -3.071864e-01 3.085897e-01 7.056160e-01 7.677253e-01 7.056160e-01 3.085897e-01 -3.071864e-01 -5.103185e-01 -4.404053e-01 -4.205612e-01 -3.372129e-01 -2.506653e-01 -1.693278e-01 -8.200342e-02 1.127212e-02 1.031210e-01 1.952984e-01 2.827658e-01 3.419459e-01 
2.458672e-01 2.260677e-01 1.821895e-01 1.144980e-01 3.611636e-02 -5.025688e-02 -1.445328e-01 -2.379747e-01 -3.220227e-01 -3.848802e-01 -4.068477e-01 -3.472290e-01 -1.476294e-01 1.413880e-01 3.111317e-01 5.383872e-01 7.373228e-01 5.383872e-01 3.111317e-01 1.413880e-01 -1.476294e-01 -3.472290e-01 -4.068477e-01 -3.848802e-01 -3.220227e-01 -2.379747e-01 -1.445328e-01 -5.025688e-02 3.611636e-02 1.144980e-01 1.821895e-01 2.260677e-01 
1.682722e-01 1.540263e-01 1.209559e-01 6.707888e-02 -5.113575e-04 -8.179443e-02 -1.760043e-01 -2.744166e-01 -3.666487e-01 -4.319862e-01 -4.575914e-01 -3.985795e-01 -2.617470e-01 5.373781e-02 5.260556e-01 9.119336e-01 1.062710e+00 9.119336e-01 5.260556e-01 5.373781e-02 -2.617470e-01 -3.985795e-01 -4.575914e-01 -4.319862e-01 -3.666487e-01 -2.744166e-01 -1.760043e-01 -8.179443e-02 -5.113575e-04 6.707888e-02 1.209559e-01 1.540263e-01 
9.514080e-02 8.614447e-02 6.415258e-02 2.746065e-02 -2.084200e-02 -8.105620e-02 -1.517681e-01 -2.255264e-01 -2.903378e-01 -3.300217e-01 -3.259666e-01 -2.567529e-01 -1.058623e-01 1.391638e-01 4.010608e-01 6.405882e-01 7.639860e-01 6.405882e-01 4.010608e-01 1.391638e-01 -1.058623e-01 -2.567529e-01 -3.259666e-01 -3.300217e-01 -2.903378e-01 -2.255264e-01 -1.517681e-01 -8.105620e-02 -2.084200e-02 2.746065e-02 6.415258e-02 8.614447e-02 
4.612942e-02 4.150367e-02 2.992629e-02 1.012666e-02 -1.684929e-02 -5.147073e-02 -9.316590e-02 -1.371945e-01 -1.775836e-01 -2.029900e-01 -2.053802e-01 -1.655881e-01 -7.852401e-02 7.330385e-02 2.676683e-01 4.323091e-01 5.016873e-01 4.323091e-01 2.676683e-01 7.330385e-02 -7.852401e-02 -1.655881e-01 -2.053802e-01 -2.029900e-01 -1.775836e-01 -1.371945e-01 -9.316590e-02 -5.147073e-02 -1.684929e-02 1.012666e-02 2.992629e-02 4.150367e-02 
