# vtk DataFile Version 2.0
Comment goes here
ASCII

DATASET STRUCTURED_POINTS
FIELD FieldData 1
TIME 1 1 double
0.10000000
DIMENSIONS    32   32   1

ORIGIN    0.000   0.000   0.000
SPACING   0.03125 0.03125   1.000

POINT_DATA   1024
SCALARS uY double
LOOKUP_TABLE default

-5.404181e-16 1.121760e-15 -3.136910e-15 -1.264576e-15 -4.715693e-15 -1.707956e-15 -5.867117e-15 -3.907136e-15 -6.378400e-15 -5.749856e-15 -5.908417e-15 -6.182555e-15 -4.218263e-15 -6.462486e-15 -2.128784e-15 -6.871423e-15 2.386514e-15 -1.798139e-15 4.191585e-15 2.192869e-15 5.677082e-15 4.691317e-15 6.440327e-15 6.389732e-15 6.475215e-15 7.484668e-15 5.371402e-15 6.348394e-15 3.808329e-15 4.941150e-15 1.672089e-15 3.132149e-15 
9.164498e-02 9.106931e-02 8.582750e-02 7.831398e-02 6.669461e-02 5.119567e-02 3.324263e-02 1.278640e-02 -4.746648e-03 -2.133952e-02 -3.214656e-02 -4.126813e-02 -4.843638e-02 -5.419089e-02 -5.631031e-02 -1.165668e-01 -1.798947e-01 -1.165668e-01 -5.631031e-02 -5.419089e-02 -4.843638e-02 -4.126813e-02 -3.214656e-02 -2.133952e-02 -4.746648e-03 1.278640e-02 3.324263e-02 5.119567e-02 6.669461e-02 7.831398e-02 8.582750e-02 9.106931e-02 
1.894163e-01 1.888054e-01 1.788353e-01 1.650239e-01 1.427625e-01 1.123478e-01 7.631154e-02 3.377785e-02 -3.202650e-03 -4.165049e-02 -6.975435e-02 -9.050252e-02 -9.969926e-02 -8.874359e-02 -9.699394e-02 -2.790583e-01 -4.459344e-01 -2.790583e-01 -9.699394e-02 -8.874359e-02 -9.969926e-02 -9.050252e-02 -6.975435e-02 -4.165049e-02 -3.202650e-03 3.377785e-02 7.631154e-02 1.123478e-01 1.427625e-01 1.650239e-01 1.788353e-01 1.888054e-01 
2.863448e-01 2.857819e-01 2.705526e-01 2.491446e-01 2.141789e-01 1.644659e-01 1.044547e-01 3.453533e-02 -2.523460e-02 -8.085517e-02 -1.118215e-01 -1.287943e-01 -1.213585e-01 -7.164988e-02 -1.324333e-01 -4.526284e-01 -6.830213e-01 -4.526284e-01 -1.324333e-01 -7.164988e-02 -1.213585e-01 -1.287943e-01 -1.118215e-01 -8.085517e-02 -2.523460e-02 3.453533e-02 1.044547e-01 1.644659e-01 2.141789e-01 2.491446e-01 2.705526e-01 2.857819e-01 
3.995550e-01 4.010249e-01 3.826683e-01 3.586528e-01 3.152673e-01 2.494328e-01 1.669876e-01 6.642873e-02 -2.189182e-02 -1.174337e-01 -1.867716e-01 -2.231663e-01 -2.122701e-01 -1.652487e-01 -2.762743e-01 -5.696906e-01 -7.349857e-01 -5.696906e-01 -2.762743e-01 -1.652487e-01 -2.122701e-01 -2.231663e-01 -1.867716e-01 -1.174337e-01 -2.189182e-02 6.642873e-02 1.669876e-01 2.494328e-01 3.152673e-01 3.586528e-01 3.826683e-01 4.010249e-01 
5.119635e-01 5.165138e-01 4.950646e-01 4.675937e-01 4.137463e-01 3.214472e-01 2.027276e-01 4.973736e-02 -9.424473e-02 -2.186101e-01 -2.658204e-01 -2.615505e-01 -2.280920e-01 -2.366084e-01 -4.184555e-01 -6.385231e-01 -7.218155e-01 -6.385231e-01 -4.184555e-01 -2.366084e-01 -2.280920e-01 -2.615505e-01 -2.658204e-01 -2.186101e-01 -9.424473e-02 4.973736e-02 2.027276e-01 3.214472e-01 4.137463e-01 4.675937e-01 4.950646e-01 5.165138e-01 
6.425908e-01 6.547088e-01 6.359783e-01 6.185882e-01 5.670095e-01 4.610899e-01 3.198983e-01 1.235945e-01 -5.698408e-02 -2.349224e-01 -3.277150e-01 -3.497990e-01 -3.809093e-01 -5.025597e-01 -6.807431e-01 -7.707003e-01 -7.956599e-01 -7.707003e-01 -6.807431e-01 -5.025597e-01 -3.809093e-01 -3.497990e-01 -3.277150e-01 -2.349224e-01 -5.698408e-02 1.235945e-01 3.198983e-01 4.610899e-01 5.670095e-01 6.185882e-01 6.359783e-01 6.547088e-01 
7.702741e-01 7.948331e-01 7.829049e-01 7.832538e-01 7.456764e-01 6.227336e-01 4.463409e-01 1.594691e-01 -1.317726e-01 -3.141097e-01 -2.648029e-01 -2.211645e-01 -4.153713e-01 -7.112320e-01 -9.335583e-01 -1.113783e+00 -1.229108e+00 -1.113783e+00 -9.335583e-01 -7.112320e-01 -4.153713e-01 -2.211645e-01 -2.648029e-01 -3.141097e-01 -1.317726e-01 1.594691e-01 4.463409e-01 6.227336e-01 7.456764e-01 7.832538e-01 7.829049e-01 7.948331e-01 
8.975600e-01 9.427478e-01 9.512813e-01 1.004275e+00 1.021213e+00 9.317671e-01 7.696733e-01 5.558082e-01 3.949398e-01 2.985798e-02 -3.851294e-01 -7.988232e-01 -1.174711e+00 -1.299031e+00 -1.289040e+00 -1.366602e+00 -1.474013e+00 -1.366602e+00 -1.289040e+00 -1.299031e+00 -1.174711e+00 -7.988232e-01 -3.851294e-01 2.985798e-02 3.949398e-01 5.558082e-01 7.696733e-01 9.317671e-01 1.021213e+00 1.004275e+00 9.512813e-01 9.427478e-01 
1.002224e+00 1.083131e+00 1.126257e+00 1.279876e+00 1.452961e+00 1.497746e+00 1.392466e+00 8.498039e-01 -8.512052e-02 -1.041233e+00 -1.311406e+00 -1.376139e+00 -1.489371e+00 -1.336025e+00 -1.157505e+00 -9.571606e-01 -8.587877e-01 -9.571606e-01 -1.157505e+00 -1.336025e+00 -1.489371e+00 -1.376139e+00 -1.311406e+00 -1.041233e+00 -8.512052e-02 8.498039e-01 1.392466e+00 1.497746e+00 1.452961e+00 1.279876e+00 1.126257e+00 1.083131e+00 
1.045917e+00 1.170662e+00 1.279300e+00 1.644489e+00 2.105211e+00 2.184639e+00 1.555257e+00 2.981831e-01 -9.752198e-01 -2.048305e+00 -2.080604e+00 -1.750614e+00 -1.546034e+00 -1.078707e+00 -7.820519e-01 -4.203474e-01 -1.576352e-01 -4.203474e-01 -7.820519e-01 -1.078707e+00 -1.546034e+00 -1.750614e+00 -2.080604e+00 -2.048305e+00 -9.752198e-01 2.981831e-01 1.555257e+00 2.184639e+00 2.105211e+00 1.644489e+00 1.279300e+00 1.170662e+00 
9.970234e-01 1.196190e+00 1.385640e+00 2.079521e+00 2.897639e+00 2.520080e+00 7.832398e-01 -1.258143e+00 -2.345454e+00 -2.466499e+00 -1.768885e+00 -1.286783e+00 -1.100759e+00 -6.760502e-01 -3.953468e-01 -1.083158e-01 9.082777e-02 -1.083158e-01 -3.953468e-01 -6.760502e-01 -1.100759e+00 -1.286783e+00 -1.768885e+00 -2.466499e+00 -2.345454e+00 -1.258143e+00 7.832398e-01 2.520080e+00 2.897639e+00 2.079521e+00 1.385640e+00 1.196190e+00 
7.787580e-01 1.021019e+00 1.330970e+00 2.570214e+00 3.695368e+00 1.808579e+00 -9.937339e-01 -2.360669e+00 -2.342486e+00 -1.557321e+00 -9.926095e-01 -9.971708e-01 -8.805207e-01 -3.734041e-01 -1.887134e-01 -1.112467e-01 -3.530522e-02 -1.112467e-01 -1.887134e-01 -3.734041e-01 -8.805207e-01 -9.971708e-01 -9.926095e-01 -1.557321e+00 -2.342486e+00 -2.360669e+00 -9.937339e-01 1.808579e+00 3.695368e+00 2.570214e+00 1.330970e+00 1.021019e+00 
4.215447e-01 7.708468e-01 1.296812e+00 3.603513e+00 3.734956e+00 -2.389688e-01 -1.916376e+00 -1.873449e+00 -1.312060e+00 -3.288899e-01 -4.631202e-01 -1.081190e+00 -1.084700e+00 -6.022947e-01 -3.846613e-01 -2.495670e-01 -1.632443e-01 -2.495670e-01 -3.846613e-01 -6.022947e-01 -1.084700e+00 -1.081190e+00 -4.631202e-01 -3.288899e-01 -1.312060e+00 -1.873449e+00 -1.916376e+00 -2.389688e-01 3.734956e+00 3.603513e+00 1.296812e+00 7.708468e-01 
1.633283e-01 3.483430e-01 1.300895e+00 4.273576e+00 2.227528e+00 -2.227591e+00 -1.586783e+00 -7.379471e-01 -3.812270e-01 -3.904535e-02 -3.476720e-01 -8.592507e-01 -8.842916e-01 -5.394641e-01 -3.267186e-01 -2.186202e-01 -1.667907e-01 -2.186202e-01 -3.267186e-01 -5.394641e-01 -8.842916e-01 -8.592507e-01 -3.476720e-01 -3.904535e-02 -3.812270e-01 -7.379471e-01 -1.586783e+00 -2.227591e+00 2.227528e+00 4.273576e+00 1.300895e+00 3.483430e-01 
3.919380e-02 -2.186833e-01 1.031573e+00 2.803901e+00 1.549772e-01 -1.652758e+00 -1.828062e-01 -1.012861e-01 -1.129601e-01 1.474032e-01 -5.451551e-02 -4.191988e-01 -5.300462e-01 -3.873878e-01 -2.569993e-01 -1.719897e-01 -1.376403e-01 -1.719897e-01 -2.569993e-01 -3.873878e-01 -5.300462e-01 -4.191988e-01 -5.451551e-02 1.474032e-01 -1.129601e-01 -1.012861e-01 -1.828062e-01 -1.652758e+00 1.549772e-01 2.803901e+00 1.031573e+00 -2.186833e-01 
-9.844975e-15 9.914754e-16 3.040801e-14 1.107740e-14 2.896663e-14 2.580707e-14 2.671948e-14 -1.919998e-15 -5.279706e-15 1.560703e-14 -2.407147e-15 -8.979371e-16 -9.510853e-15 1.565289e-15 -2.429537e-15 -2.163820e-15 9.980314e-16 -7.631026e-15 3.244665e-15 -5.984937e-15 3.493024e-15 -2.598879e-15 7.187103e-15 -1.737521e-14 2.481628e-15 -1.835366e-14 -7.309165e-14 -1.824828e-14 9.526817e-15 2.612975e-14 -7.332975e-15 -3.646345e-15 
-3.919380e-02 2.186833e-01 -1.031573e+00 -2.803901e+00 -1.549772e-01 1.652758e+00 1.828062e-01 1.012861e-01 1.129601e-01 -1.474032e-01 5.451551e-02 4.191988e-01 5.300462e-01 3.873878e-01 2.569993e-01 1.719897e-01 1.376403e-01 1.719897e-01 2.569993e-01 3.873878e-01 5.300462e-01 4.191988e-01 5.451551e-02 -1.474032e-01 1.129601e-01 1.012861e-01 1.828062e-01 1.652758e+00 -1.549772e-01 -2.803901e+00 -1.031573e+00 2.186833e-01 
-1.633283e-01 -3.483430e-01 -1.300895e+00 -4.273576e+00 -2.227528e+00 2.227591e+00 1.586783e+00 7.379471e-01 3.812270e-01 3.904535e-02 3.476720e-01 8.592507e-01 8.842916e-01 5.394641e-01 3.267186e-01 2.186202e-01 1.667907e-01 2.186202e-01 3.267186e-01 5.394641e-01 8.842916e-01 8.592507e-01 3.476720e-01 3.904535e-02 3.812270e-01 7.379471e-01 1.586783e+00 2.227591e+00 -2.227528e+00 -4.273576e+00 -1.300895e+00 -3.483430e-01 
-4.215447e-01 -7.708468e-01 -1.296812e+00 -3.603513e+00 -3.734956e+00 2.389688e-01 1.916376e+00 1.873449e+00 1.312060e+00 3.288899e-01 4.631202e-01 1.081190e+00 1.084700e+00 6.022947e-01 3.846613e-01 2.495670e-01 1.632443e-01 2.495670e-01 3.846613e-01 6.022947e-01 1.084700e+00 1.081190e+00 4.631202e-01 3.288899e-01 1.312060e+00 1.873449e+00 1.916376e+00 2.389688e-01 -3.734956e+00 -3.603513e+00 -1.296812e+00 -7.708468e-01 
-7.787580e-01 -1.021019e+00 -1.330970e+00 -2.570214e+00 -3.695368e+00 -1.808579e+00 9.937339e-01 2.360669e+00 2.342486e+00 1.557321e+00 9.926095e-01 9.971708e-01 8.805207e-01 3.734041e-01 1.887134e-01 1.112467e-01 3.530522e-02 1.112467e-01 1.887134e-01 3.734041e-01 8.805207e-01 9.971708e-01 9.926095e-01 1.557321e+00 2.342486e+00 2.360669e+00 9.937339e-01 -1.808579e+00 -3.695368e+00 -2.570214e+00 -1.330970e+00 -1.021019e+00 
-9.970234e-01 -1.196190e+00 -1.385640e+00 -2.079521e+00 -2.897639e+00 -2.520080e+00 -7.832398e-01 1.258143e+00 2.345454e+00 2.466499e+00 1.768885e+00 1.286783e+00 1.100759e+00 6.760502e-01 3.953468e-01 1.083158e-01 -9.082777e-02 1.083158e-01 3.953468e-01 6.760502e-01 1.100759e+00 1.286783e+00 1.768885e+00 2.466499e+00 2.345454e+00 1.258143e+00 -7.832398e-01 -2.520080e+00 -2.897639e+00 -2.079521e+00 -1.385640e+00 -1.196190e+00 
-1.045917e+00 -1.170662e+00 -1.279300e+00 -1.644489e+00 -2.105211e+00 -2.184639e+00 -1.555257e+00 -2.981831e-01 9.752198e-01 2.048305e+00 2.080604e+00 1.750614e+00 1.546034e+00 1.078707e+00 7.820519e-01 4.203474e-01 1.576352e-01 4.203474e-01 7.820519e-01 1.078707e+00 1.546034e+00 1.750614e+00 2.080604e+00 2.048305e+00 9.752198e-01 -2.981831e-01 -1.555257e+00 -2.184639e+00 -2.105211e+00 -1.644489e+00 -1.279300e+00 -1.170662e+00 
-1.002224e+00 -1.083131e+00 -1.126257e+00 -1.279876e+00 -1.452961e+00 -1.497746e+00 -1.392466e+00 -8.498039e-01 8.512052e-02 1.041233e+00 1.311406e+00 1.376139e+00 1.489371e+00 1.336025e+00 1.157505e+00 9.571606e-01 8.587877e-01 9.571606e-01 1.157505e+00 1.336025e+00 1.489371e+00 1.376139e+00 1.311406e+00 1.041233e+00 8.512052e-02 -8.498039e-01 -1.392466e+00 -1.497746e+00 -1.452961e+00 -1.279876e+00 -1.126257e+00 -1.083131e+00 
-8.975600e-01 -9.427478e-01 -9.512813e-01 -1.004275e+00 -1.021213e+00 -9.317671e-01 -7.696733e-01 -5.558082e-01 -3.949398e-01 -2.985798e-02 3.851294e-01 7.988232e-01 1.174711e+00 1.299031e+00 1.289040e+00 1.366602e+00 1.474013e+00 1.366602e+00 1.289040e+00 1.299031e+00 1.174711e+00 7.988232e-01 3.851294e-01 -2.985798e-02 -3.949398e-01 -5.558082e-01 -7.696733e-01 -9.317671e-01 -1.021213e+00 -1.004275e+00 -9.512813e-01 -9.427478e-01 
-7.702741e-01 -7.948331e-01 -7.829049e-01 -7.832538e-01 -7.456764e-01 -6.227336e-01 -4.463409e-01 -1.594691e-01 1.317726e-01 3.141097e-01 2.648029e-01 2.211645e-01 4.153713e-01 7.112320e-01 9.335583e-01 1.113783e+00 1.229108e+00 1.113783e+00 9.335583e-01 7.112320e-01 4.153713e-01 2.211645e-01 2.648029e-01 3.141097e-01 1.317726e-01 -1.594691e-01 -4.463409e-01 -6.227336e-01 -7.456764e-01 -7.832538e-01 -7.829049e-01 -7.948331e-01 
-6.425908e-01 -6.547088e-01 -6.359783e-01 -6.185882e-01 -5.670095e-01 -4.610899e-01 -3.198983e-01 -1.235945e-01 5.698408e-02 2.349224e-01 3.277150e-01 3.497990e-01 3.809093e-01 5.025597e-01 6.807431e-01 7.707003e-01 7.956599e-01 7.707003e-01 6.807431e-01 5.025597e-01 3.809093e-01 3.497990e-01 3.277150e-01 2.349224e-01 5.698408e-02 -1.235945e-01 -3.198983e-01 -4.610899e-01 -5.670095e-01 -6.185882e-01 -6.359783e-01 -6.547088e-01 
-5.119635e-01 -5.165138e-01 -4.950646e-01 -4.675937e-01 -4.137463e-01 -3.214472e-01 -2.027276e-01 -4.973736e-02 9.424473e-02 2.186101e-01 2.658204e-01 2.615505e-01 2.280920e-01 2.366084e-01 4.184555e-01 6.385231e-01 7.218155e-01 6.385231e-01 4.184555e-01 2.366084e-01 2.280920e-01 2.615505e-01 2.658204e-01 2.186101e-01 9.424473e-02 -4.973736e-02 -2.027276e-01 -3.214472e-01 -4.137463e-01 -4.675937e-01 -4.950646e-01 -5.165138e-01 
-3.995550e-01 -4.010249e-01 -3.826683e-01 -3.586528e-01 -3.152673e-01 -2.494328e-01 -1.669876e-01 -6.642873e-02 2.189182e-02 1.174337e-01 1.867716e-01 2.231663e-01 2.122701e-01 1.652487e-01 2.762743e-01 5.696906e-01 7.349857e-01 5.696906e-01 2.762743e-01 1.652487e-01 2.122701e-01 2.231663e-01 1.867716e-01 1.174337e-01 2.189182e-02 -6.642873e-02 -1.669876e-01 -2.494328e-01 -3.152673e-01 -3.586528e-01 -3.826683e-01 -4.010249e-01 
-2.863448e-01 -2.857819e-01 -2.705526e-01 -2.491446e-01 -2.141789e-01 -1.644659e-01 -1.044547e-01 -3.453533e-02 2.523460e-02 8.085517e-02 1.118215e-01 1.287943e-01 1.213585e-01 7.164988e-02 1.324333e-01 4.526284e-01 6.830213e-01 4.526284e-01 1.324333e-01 7.164988e-02 1.213585e-01 1.287943e-01 1.118215e-01 8.085517e-02 2.523460e-02 -3.453533e-02 -1.044547e-01 -1.644659e-01 -2.141789e-01 -2.491446e-01 -2.705526e-01 -2.857819e-01 
-1.894163e-01 -1.888054e-01 -1.788353e-01 -1.650239e-01 -1.427625e-01 -1.123478e-01 -7.631154e-02 -3.377785e-02 3.202650e-03 4.165049e-02 6.975435e-02 9.050252e-02 9.969926e-02 8.874359e-02 9.699394e-02 2.790583e-01 4.459344e-01 2.790583e-01 9.699394e-02 8.874359e-02 9.969926e-02 9.050252e-02 6.975435e-02 4.165049e-02 3.202650e-03 -3.377785e-02 -7.631154e-02 -1.123478e-01 -1.427625e-01 -1.650239e-01 -1.788353e-01 -1.888054e-01 
-9.164498e-02 -9.106931e-02 -8.582750e-02 -7.831398e-02 -6.669461e-02 -5.119567e-02 -3.324263e-02 -1.278640e-02 4.746648e-03 2.133952e-02 3.214656e-02 4.126813e-02 4.843638e-02 5.419089e-02 5.631031e-02 1.165668e-01 1.798947e-01 1.165668e-01 5.631031e-02 5.419089e-02 4.843638e-02 4.126813e-02 3.214656e-02 2.133952e-02 4.746648e-03 -1.278640e-02 -3.324263e-02 -5.119567e-02 -6.669461e-02 -7.831398e-02 -8.582750e-02 -9.106931e-02 
