# vtk DataFile Version 2.0
Comment goes here
ASCII

DATASET STRUCTURED_POINTS
FIELD FieldData 1
TIME 1 1 double
0.32000000
DIMENSIONS    32   32   1

ORIGIN    0.000   0.000   0.000
SPACING   0.03125 0.03125   1.000

POINT_DATA   1024
SCALARS uY double
LOOKUP_TABLE default

-2.081688e-15 -4.365956e-16 -3.193346e-15 -1.186866e-15 -3.255214e-15 -1.239870e-15 -3.395835e-15 -1.064767e-15 -1.740527e-15 -1.010374e-16 1.491815e-15 -1.905053e-15 -5.706264e-15 -1.942229e-14 -2.546563e-14 -3.528522e-14 1.845481e-14 3.799373e-14 1.666455e-14 1.350235e-14 1.036234e-14 5.268278e-15 2.886559e-15 3.711562e-15 2.031468e-15 3.834374e-15 1.685502e-15 2.867519e-15 6.118173e-16 2.183797e-15 -5.184649e-16 8.173056e-16 
3.156144e-02 3.360820e-02 3.732624e-02 4.487333e-02 5.477094e-02 6.841340e-02 8.617191e-02 1.081855e-01 1.352884e-01 1.617268e-01 1.788004e-01 1.589174e-01 7.980376e-02 -7.685063e-02 -2.854910e-01 -4.988741e-01 -6.049028e-01 -4.988741e-01 -2.854910e-01 -7.685063e-02 7.980376e-02 1.589174e-01 1.788004e-01 1.617268e-01 1.352884e-01 1.081855e-01 8.617191e-02 6.841340e-02 5.477094e-02 4.487333e-02 3.732624e-02 3.360820e-02 
5.947611e-02 6.390142e-02 7.087550e-02 8.605305e-02 1.053398e-01 1.323294e-01 1.675430e-01 2.105970e-01 2.647566e-01 3.161524e-01 3.531443e-01 3.131473e-01 1.627676e-01 -1.703890e-01 -6.111102e-01 -9.517916e-01 -1.086109e+00 -9.517916e-01 -6.111102e-01 -1.703890e-01 1.627676e-01 3.131473e-01 3.531443e-01 3.161524e-01 2.647566e-01 2.105970e-01 1.675430e-01 1.323294e-01 1.053398e-01 8.605305e-02 7.087550e-02 6.390142e-02 
8.327819e-02 8.979725e-02 1.008937e-01 1.234729e-01 1.517709e-01 1.893266e-01 2.353320e-01 2.879925e-01 3.464407e-01 3.932793e-01 4.036732e-01 2.970558e-01 3.600721e-02 -3.494866e-01 -7.064491e-01 -1.031438e+00 -1.218615e+00 -1.031438e+00 -7.064491e-01 -3.494866e-01 3.600721e-02 2.970558e-01 4.036732e-01 3.932793e-01 3.464407e-01 2.879925e-01 2.353320e-01 1.893266e-01 1.517709e-01 1.234729e-01 1.008937e-01 8.979725e-02 
9.666752e-02 1.064772e-01 1.204468e-01 1.511165e-01 1.868992e-01 2.347017e-01 2.915344e-01 3.546841e-01 4.260831e-01 4.869039e-01 5.211800e-01 4.172129e-01 1.193163e-01 -5.091002e-01 -1.075437e+00 -1.241996e+00 -1.276712e+00 -1.241996e+00 -1.075437e+00 -5.091002e-01 1.193163e-01 4.172129e-01 5.211800e-01 4.869039e-01 4.260831e-01 3.546841e-01 2.915344e-01 2.347017e-01 1.868992e-01 1.511165e-01 1.204468e-01 1.064772e-01 
1.011802e-01 1.143116e-01 1.350161e-01 1.762649e-01 2.242180e-01 2.834318e-01 3.504202e-01 4.206089e-01 4.910801e-01 5.430591e-01 4.788612e-01 -4.887174e-02 -9.625683e-01 -1.326442e+00 -6.688036e-01 -1.623627e-01 -1.976278e-01 -1.623627e-01 -6.688036e-01 -1.326442e+00 -9.625683e-01 -4.887174e-02 4.788612e-01 5.430591e-01 4.910801e-01 4.206089e-01 3.504202e-01 2.834318e-01 2.242180e-01 1.762649e-01 1.350161e-01 1.143116e-01 
8.979278e-02 1.089816e-01 1.351966e-01 1.895234e-01 2.457227e-01 3.150609e-01 3.905375e-01 4.665355e-01 5.296166e-01 4.947285e-01 7.781041e-02 -8.327327e-01 -1.001494e+00 -2.526339e-01 6.017830e-04 -4.894633e-01 -8.457761e-01 -4.894633e-01 6.017830e-04 -2.526339e-01 -1.001494e+00 -8.327327e-01 7.781041e-02 4.947285e-01 5.296166e-01 4.665355e-01 3.905375e-01 3.150609e-01 2.457227e-01 1.895234e-01 1.351966e-01 1.089816e-01 
5.923267e-02 8.604092e-02 1.273733e-01 2.031269e-01 2.832636e-01 3.725718e-01 4.770546e-01 5.741038e-01 5.628114e-01 3.230412e-01 -1.888664e-01 -4.548487e-01 9.415143e-02 1.849901e-01 -6.904429e-01 -1.289026e+00 -1.389923e+00 -1.289026e+00 -6.904429e-01 1.849901e-01 9.415143e-02 -4.548487e-01 -1.888664e-01 3.230412e-01 5.628114e-01 5.741038e-01 4.770546e-01 3.725718e-01 2.832636e-01 2.031269e-01 1.273733e-01 8.604092e-02 
7.540255e-03 4.735495e-02 1.056429e-01 2.102676e-01 3.061165e-01 4.199612e-01 5.451951e-01 5.653584e-01 3.662500e-01 1.231989e-01 -8.783077e-02 -2.141496e-01 -4.405783e-01 -9.093823e-01 -7.748193e-01 -2.426092e-01 -4.749239e-02 -2.426092e-01 -7.748193e-01 -9.093823e-01 -4.405783e-01 -2.141496e-01 -8.783077e-02 1.231989e-01 3.662500e-01 5.653584e-01 5.451951e-01 4.199612e-01 3.061165e-01 2.102676e-01 1.056429e-01 4.735495e-02 
-8.730940e-02 -3.007102e-02 6.033185e-02 2.099073e-01 3.531858e-01 5.076577e-01 6.863845e-01 5.148474e-01 4.008680e-01 1.905564e-01 -2.737105e-01 -4.457451e-01 -7.870441e-01 -9.416231e-01 -4.869721e-01 -5.529491e-03 1.812227e-01 -5.529491e-03 -4.869721e-01 -9.416231e-01 -7.870441e-01 -4.457451e-01 -2.737105e-01 1.905564e-01 4.008680e-01 5.148474e-01 6.863845e-01 5.076577e-01 3.531858e-01 2.099073e-01 6.033185e-02 -3.007102e-02 
-2.066793e-01 -1.261203e-01 8.318571e-03 2.295849e-01 4.148179e-01 6.193453e-01 6.595653e-01 3.705345e-01 3.866273e-01 -4.443395e-02 -4.424342e-01 -3.619485e-01 -8.246952e-01 -9.306575e-01 -3.589922e-01 2.436957e-01 5.202646e-01 2.436957e-01 -3.589922e-01 -9.306575e-01 -8.246952e-01 -3.619485e-01 -4.424342e-01 -4.443395e-02 3.866273e-01 3.705345e-01 6.595653e-01 6.193453e-01 4.148179e-01 2.295849e-01 8.318571e-03 -1.261203e-01 
-3.877373e-01 -2.840532e-01 -1.093619e-01 1.906548e-01 4.025894e-01 6.585859e-01 5.237661e-01 6.201907e-01 4.574306e-01 -4.171198e-01 1.735303e-04 -8.800288e-02 -7.923419e-01 -7.514125e-01 -4.274468e-01 7.115693e-02 2.781189e-01 7.115693e-02 -4.274468e-01 -7.514125e-01 -7.923419e-01 -8.800288e-02 1.735303e-04 -4.171198e-01 4.574306e-01 6.201907e-01 5.237661e-01 6.585859e-01 4.025894e-01 1.906548e-01 -1.093619e-01 -2.840532e-01 
-5.562458e-01 -4.466656e-01 -2.407894e-01 1.334663e-01 4.722084e-01 7.185913e-01 5.763716e-01 8.995592e-01 2.860923e-01 -6.966490e-01 2.823049e-01 1.043774e-01 -6.181263e-01 -6.096159e-01 -4.955825e-01 -1.030636e-01 3.128769e-02 -1.030636e-01 -4.955825e-01 -6.096159e-01 -6.181263e-01 1.043774e-01 2.823049e-01 -6.966490e-01 2.860923e-01 8.995592e-01 5.763716e-01 7.185913e-01 4.722084e-01 1.334663e-01 -2.407894e-01 -4.466656e-01 
-7.213744e-01 -6.177834e-01 -4.133342e-01 2.321866e-03 3.816668e-01 6.040632e-01 7.826268e-01 8.862580e-01 3.382987e-03 -3.220274e-01 7.201617e-01 1.865618e-01 -5.298051e-01 -5.212661e-01 -5.051747e-01 -2.181280e-01 -1.576742e-01 -2.181280e-01 -5.051747e-01 -5.212661e-01 -5.298051e-01 1.865618e-01 7.201617e-01 -3.220274e-01 3.382987e-03 8.862580e-01 7.826268e-01 6.040632e-01 3.816668e-01 2.321866e-03 -4.133342e-01 -6.177834e-01 
-7.490083e-01 -6.869016e-01 -5.533575e-01 -2.167231e-01 2.481345e-01 8.229292e-01 1.262032e+00 8.247653e-01 -3.375204e-01 -3.374809e-01 6.093988e-01 1.984374e-01 -3.421041e-01 -3.728103e-01 -4.082567e-01 -2.322159e-01 -2.076452e-01 -2.322159e-01 -4.082567e-01 -3.728103e-01 -3.421041e-01 1.984374e-01 6.093988e-01 -3.374809e-01 -3.375204e-01 8.247653e-01 1.262032e+00 8.229292e-01 2.481345e-01 -2.167231e-01 -5.533575e-01 -6.869016e-01 
-6.349772e-01 -6.035692e-01 -4.887076e-01 -1.546507e-01 3.105596e-01 7.824871e-01 8.521796e-01 2.705340e-01 -2.962484e-01 -7.498566e-02 4.029102e-01 1.493053e-01 -1.439726e-01 -2.078375e-01 -2.429493e-01 -1.612834e-01 -1.525656e-01 -1.612834e-01 -2.429493e-01 -2.078375e-01 -1.439726e-01 1.493053e-01 4.029102e-01 -7.498566e-02 -2.962484e-01 2.705340e-01 8.521796e-01 7.824871e-01 3.105596e-01 -1.546507e-01 -4.887076e-01 -6.035692e-01 
5.684947e-15 -8.118894e-15 -1.682791e-14 -3.417372e-14 -3.343078e-14 -9.965405e-15 -5.754499e-14 -5.365106e-14 8.715104e-14 1.230486e-13 2.910848e-14 3.754226e-15 3.913635e-15 -5.802676e-15 -4.224929e-15 -1.020897e-14 -1.049512e-14 -1.579917e-14 -2.385873e-14 -2.897018e-14 -4.574510e-14 -4.249718e-14 -3.948108e-14 -2.844501e-15 5.229248e-14 5.150005e-14 2.153141e-14 2.989947e-14 3.087189e-14 7.518772e-15 9.886657e-15 5.847893e-15 
6.349772e-01 6.035692e-01 4.887076e-01 1.546507e-01 -3.105596e-01 -7.824871e-01 -8.521796e-01 -2.705340e-01 2.962484e-01 7.498566e-02 -4.029102e-01 -1.493053e-01 1.439726e-01 2.078375e-01 2.429493e-01 1.612834e-01 1.525656e-01 1.612834e-01 2.429493e-01 2.078375e-01 1.439726e-01 -1.493053e-01 -4.029102e-01 7.498566e-02 2.962484e-01 -2.705340e-01 -8.521796e-01 -7.824871e-01 -3.105596e-01 1.546507e-01 4.887076e-01 6.035692e-01 
7.490083e-01 6.869016e-01 5.533575e-01 2.167231e-01 -2.481345e-01 -8.229292e-01 -1.262032e+00 -8.247653e-01 3.375204e-01 3.374809e-01 -6.093988e-01 -1.984374e-01 3.421041e-01 3.728103e-01 4.082567e-01 2.322159e-01 2.076452e-01 2.322159e-01 4.082567e-01 3.728103e-01 3.421041e-01 -1.984374e-01 -6.093988e-01 3.374809e-01 3.375204e-01 -8.247653e-01 -1.262032e+00 -8.229292e-01 -2.481345e-01 2.167231e-01 5.533575e-01 6.869016e-01 
7.213744e-01 6.177834e-01 4.133342e-01 -2.321866e-03 -3.816668e-01 -6.040632e-01 -7.826268e-01 -8.862580e-01 -3.382987e-03 3.220274e-01 -7.201617e-01 -1.865618e-01 5.298051e-01 5.212661e-01 5.051747e-01 2.181280e-01 1.576742e-01 2.181280e-01 5.051747e-01 5.212661e-01 5.298051e-01 -1.865618e-01 -7.201617e-01 3.220274e-01 -3.382987e-03 -8.862580e-01 -7.826268e-01 -6.040632e-01 -3.816668e-01 -2.321866e-03 4.133342e-01 6.177834e-01 
5.562458e-01 4.466656e-01 2.407894e-01 -1.334663e-01 -4.722084e-01 -7.185913e-01 -5.763716e-01 -8.995592e-01 -2.860923e-01 6.966490e-01 -2.823049e-01 -1.043774e-01 6.181263e-01 6.096159e-01 4.955825e-01 1.030636e-01 -3.128769e-02 1.030636e-01 4.955825e-01 6.096159e-01 6.181263e-01 -1.043774e-01 -2.823049e-01 6.966490e-01 -2.860923e-01 -8.995592e-01 -5.763716e-01 -7.185913e-01 -4.722084e-01 -1.334663e-01 2.407894e-01 4.466656e-01 
3.877373e-01 2.840532e-01 1.093619e-01 -1.906548e-01 -4.025894e-01 -6.585859e-01 -5.237661e-01 -6.201907e-01 -4.574306e-01 4.171198e-01 -1.735303e-04 8.800288e-02 7.923419e-01 7.514125e-01 4.274468e-01 -7.115693e-02 -2.781189e-01 -7.115693e-02 4.274468e-01 7.514125e-01 7.923419e-01 8.800288e-02 -1.735303e-04 4.171198e-01 -4.574306e-01 -6.201907e-01 -5.237661e-01 -6.585859e-01 -4.025894e-01 -1.906548e-01 1.093619e-01 2.840532e-01 
2.066793e-01 1.261203e-01 -8.318571e-03 -2.295849e-01 -4.148179e-01 -6.193453e-01 -6.595653e-01 -3.705345e-01 -3.866273e-01 4.443395e-02 4.424342e-01 3.619485e-01 8.246952e-01 9.306575e-01 3.589922e-01 -2.436957e-01 -5.202646e-01 -2.436957e-01 3.589922e-01 9.306575e-01 8.246952e-01 3.619485e-01 4.424342e-01 4.443395e-02 -3.866273e-01 -3.705345e-01 -6.595653e-01 -6.193453e-01 -4.148179e-01 -2.295849e-01 -8.318571e-03 1.261203e-01 
8.730940e-02 3.007102e-02 -6.033185e-02 -2.099073e-01 -3.531858e-01 -5.076577e-01 -6.863845e-01 -5.148474e-01 -4.008680e-01 -1.905564e-01 2.737105e-01 4.457451e-01 7.870441e-01 9.416231e-01 4.869721e-01 5.529491e-03 -1.812227e-01 5.529491e-03 4.869721e-01 9.416231e-01 7.870441e-01 4.457451e-01 2.737105e-01 -1.905564e-01 -4.008680e-01 -5.148474e-01 -6.863845e-01 -5.076577e-01 -3.531858e-01 -2.099073e-01 -6.033185e-02 3.007102e-02 
-7.540255e-03 -4.735495e-02 -1.056429e-01 -2.102676e-01 -3.061165e-01 -4.199612e-01 -5.451951e-01 -5.653584e-01 -3.662500e-01 -1.231989e-01 8.783077e-02 2.141496e-01 4.405783e-01 9.093823e-01 7.748193e-01 2.426092e-01 4.749239e-02 2.426092e-01 7.748193e-01 9.093823e-01 4.405783e-01 2.141496e-01 8.783077e-02 -1.231989e-01 -3.662500e-01 -5.653584e-01 -5.451951e-01 -4.199612e-01 -3.061165e-01 -2.102676e-01 -1.056429e-01 -4.735495e-02 
-5.923267e-02 -8.604092e-02 -1.273733e-01 -2.031269e-01 -2.832636e-01 -3.725718e-01 -4.770546e-01 -5.741038e-01 -5.628114e-01 -3.230412e-01 1.888664e-01 4.548487e-01 -9.415143e-02 -1.849901e-01 6.904429e-01 1.289026e+00 1.389923e+00 1.289026e+00 6.904429e-01 -1.849901e-01 -9.415143e-02 4.548487e-01 1.888664e-01 -3.230412e-01 -5.628114e-01 -5.741038e-01 -4.770546e-01 -3.725718e-01 -2.832636e-01 -2.031269e-01 -1.273733e-01 -8.604092e-02 
-8.979278e-02 -1.089816e-01 -1.351966e-01 -1.895234e-01 -2.457227e-01 -3.150609e-01 -3.905375e-01 -4.665355e-01 -5.296166e-01 -4.947285e-01 -7.781041e-02 8.327327e-01 1.001494e+00 2.526339e-01 -6.017830e-04 4.894633e-01 8.457761e-01 4.894633e-01 -6.017830e-04 2.526339e-01 1.001494e+00 8.327327e-01 -7.781041e-02 -4.947285e-01 -5.296166e-01 -4.665355e-01 -3.905375e-01 -3.150609e-01 -2.457227e-01 -1.895234e-01 -1.351966e-01 -1.089816e-01 
-1.011802e-01 -1.143116e-01 -1.350161e-01 -1.762649e-01 -2.242180e-01 -2.834318e-01 -3.504202e-01 -4.206089e-01 -4.910801e-01 -5.430591e-01 -4.788612e-01 4.887174e-02 9.625683e-01 1.326442e+00 6.688036e-01 1.623627e-01 1.976278e-01 1.623627e-01 6.688036e-01 1.326442e+00 9.625683e-01 4.887174e-02 -4.788612e-01 -5.430591e-01 -4.910801e-01 -4.206089e-01 -3.504202e-01 -2.834318e-01 -2.242180e-01 -1.762649e-01 -1.350161e-01 -1.143116e-01 
-9.666752e-02 -1.064772e-01 -1.204468e-01 -1.511165e-01 -1.868992e-01 -2.347017e-01 -2.915344e-01 -3.546841e-01 -4.260831e-01 -4.869039e-01 -5.211800e-01 -4.172129e-01 -1.193163e-01 5.091002e-01 1.075437e+00 1.241996e+00 1.276712e+00 1.241996e+00 1.075437e+00 5.091002e-01 -1.193163e-01 -4.172129e-01 -5.211800e-01 -4.869039e-01 -4.260831e-01 -3.546841e-01 -2.915344e-01 -2.347017e-01 -1.868992e-01 -1.511165e-01 -1.204468e-01 -1.064772e-01 
-8.327819e-02 -8.979725e-02 -1.008937e-01 -1.234729e-01 -1.517709e-01 -1.893266e-01 -2.353320e-01 -2.879925e-01 -3.464407e-01 -3.932793e-01 -4.036732e-01 -2.970558e-01 -3.600721e-02 3.494866e-01 7.064491e-01 1.031438e+00 1.218615e+00 1.031438e+00 7.064491e-01 3.494866e-01 -3.600721e-02 -2.970558e-01 -4.036732e-01 -3.932793e-01 -3.464407e-01 -2.879925e-01 -2.353320e-01 -1.893266e-01 -1.517709e-01 -1.234729e-01 -1.008937e-01 -8.979725e-02 
-5.947611e-02 -6.390142e-02 -7.087550e-02 -8.605305e-02 -1.053398e-01 -1.323294e-01 -1.675430e-01 -2.105970e-01 -2.647566e-01 -3.161524e-01 -3.531443e-01 -3.131473e-01 -1.627676e-01 1.703890e-01 6.111102e-01 9.517916e-01 1.086109e+00 9.517916e-01 6.111102e-01 1.703890e-01 -1.627676e-01 -3.131473e-01 -3.531443e-01 -3.161524e-01 -2.647566e-01 -2.105970e-01 -1.675430e-01 -1.323294e-01 -1.053398e-01 -8.605305e-02 -7.087550e-02 -6.390142e-02 
-3.156144e-02 -3.360820e-02 -3.732624e-02 -4.487333e-02 -5.477094e-02 -6.841340e-02 -8.617191e-02 -1.081855e-01 -1.352884e-01 -1.617268e-01 -1.788004e-01 -1.589174e-01 -7.980376e-02 7.685063e-02 2.854910e-01 4.988741e-01 6.049028e-01 4.988741e-01 2.854910e-01 7.685063e-02 -7.980376e-02 -1.589174e-01 -1.788004e-01 -1.617268e-01 -1.352884e-01 -1.081855e-01 -8.617191e-02 -6.841340e-02 -5.477094e-02 -4.487333e-02 -3.732624e-02 -3.360820e-02 
