# vtk DataFile Version 2.0
Comment goes here
ASCII

DATASET STRUCTURED_POINTS
FIELD FieldData 1
TIME 1 1 double
0.34000000
DIMENSIONS    32   32   1

ORIGIN    0.000   0.000   0.000
SPACING   0.03125 0.03125   1.000

POINT_DATA   1024
SCALARS uY double
LOOKUP_TABLE default

-1.363965e-15 -1.336266e-15 -2.366827e-15 -1.861110e-15 -2.131136e-15 -2.341257e-15 -2.288740e-15 -2.818059e-15 -9.314141e-16 -1.718921e-15 9.357299e-16 -5.062742e-15 -8.492483e-15 -2.340325e-14 -1.625384e-14 -3.587298e-14 5.569519e-15 4.539214e-14 1.101814e-14 2.640874e-14 2.006138e-14 9.042354e-15 6.542150e-15 2.888463e-15 2.113529e-15 2.127039e-15 8.508016e-16 1.228959e-15 1.276092e-16 7.897947e-16 -2.679849e-16 2.405156e-16 
-6.324520e-02 -6.287887e-02 -6.038929e-02 -5.646088e-02 -4.963750e-02 -3.788402e-02 -2.099974e-02 8.945364e-03 4.596450e-02 1.022156e-01 1.505306e-01 1.910609e-01 1.663050e-01 8.604353e-02 -4.118228e-02 -2.310417e-01 -3.179375e-01 -2.310417e-01 -4.118228e-02 8.604353e-02 1.663050e-01 1.910609e-01 1.505306e-01 1.022156e-01 4.596450e-02 8.945364e-03 -2.099974e-02 -3.788402e-02 -4.963750e-02 -5.646088e-02 -6.038929e-02 -6.287887e-02 
-1.299449e-01 -1.288528e-01 -1.242985e-01 -1.163651e-01 -1.031414e-01 -8.008466e-02 -4.623483e-02 1.283680e-02 8.978403e-02 2.040395e-01 3.179263e-01 4.092398e-01 3.888156e-01 1.927512e-01 -1.800780e-01 -4.935647e-01 -5.556015e-01 -4.935647e-01 -1.800780e-01 1.927512e-01 3.888156e-01 4.092398e-01 3.179263e-01 2.040395e-01 8.978403e-02 1.283680e-02 -4.623483e-02 -8.008466e-02 -1.031414e-01 -1.163651e-01 -1.242985e-01 -1.288528e-01 
-1.952052e-01 -1.946855e-01 -1.883232e-01 -1.803116e-01 -1.654774e-01 -1.423328e-01 -1.089261e-01 -4.780692e-02 2.479865e-02 1.486488e-01 2.563140e-01 3.688195e-01 2.924031e-01 2.246797e-01 1.916449e-01 -1.770111e-01 -4.096629e-01 -1.770111e-01 1.916449e-01 2.246797e-01 2.924031e-01 3.688195e-01 2.563140e-01 1.486488e-01 2.479865e-02 -4.780692e-02 -1.089261e-01 -1.423328e-01 -1.654774e-01 -1.803116e-01 -1.883232e-01 -1.946855e-01 
-2.703764e-01 -2.690668e-01 -2.620535e-01 -2.532388e-01 -2.383206e-01 -2.160726e-01 -1.834261e-01 -1.194698e-01 -3.925759e-02 1.202429e-01 3.116996e-01 5.486257e-01 6.397165e-01 3.810330e-01 -1.540053e-01 -1.920535e-01 1.216706e-01 -1.920535e-01 -1.540053e-01 3.810330e-01 6.397165e-01 5.486257e-01 3.116996e-01 1.202429e-01 -3.925759e-02 -1.194698e-01 -1.834261e-01 -2.160726e-01 -2.383206e-01 -2.532388e-01 -2.620535e-01 -2.690668e-01 
-3.389600e-01 -3.383140e-01 -3.279535e-01 -3.212532e-01 -3.073960e-01 -2.987781e-01 -2.830961e-01 -2.522264e-01 -2.251068e-01 -1.307135e-01 -2.413782e-02 -5.630799e-02 -7.469767e-01 -6.472684e-01 9.275419e-01 2.044861e+00 2.313210e+00 2.044861e+00 9.275419e-01 -6.472684e-01 -7.469767e-01 -5.630799e-02 -2.413782e-02 -1.307135e-01 -2.251068e-01 -2.522264e-01 -2.830961e-01 -2.987781e-01 -3.073960e-01 -3.212532e-01 -3.279535e-01 -3.383140e-01 
-4.229311e-01 -4.196331e-01 -4.068947e-01 -3.993690e-01 -3.900276e-01 -3.980748e-01 -4.064129e-01 -4.215049e-01 -4.931686e-01 -5.010184e-01 -5.107117e-01 -7.589481e-01 -2.466092e-01 1.638717e+00 2.212261e+00 1.259832e+00 9.060574e-01 1.259832e+00 2.212261e+00 1.638717e+00 -2.466092e-01 -7.589481e-01 -5.107117e-01 -5.010184e-01 -4.931686e-01 -4.215049e-01 -4.064129e-01 -3.980748e-01 -3.900276e-01 -3.993690e-01 -4.068947e-01 -4.196331e-01 
-4.952994e-01 -4.885576e-01 -4.631958e-01 -4.488575e-01 -4.301274e-01 -4.542911e-01 -4.750702e-01 -5.696187e-01 -8.225023e-01 -8.831330e-01 -3.166625e-01 6.602537e-01 1.830443e+00 2.273137e+00 9.562633e-01 -8.893255e-02 -6.299705e-02 -8.893255e-02 9.562633e-01 2.273137e+00 1.830443e+00 6.602537e-01 -3.166625e-01 -8.831330e-01 -8.225023e-01 -5.696187e-01 -4.750702e-01 -4.542911e-01 -4.301274e-01 -4.488575e-01 -4.631958e-01 -4.885576e-01 
-5.891137e-01 -5.719327e-01 -5.316277e-01 -5.001247e-01 -4.737945e-01 -5.139141e-01 -5.547440e-01 -8.308301e-01 -1.178956e+00 -6.730543e-01 6.315085e-01 1.308122e+00 1.123244e+00 9.329006e-01 6.864239e-01 8.488333e-01 1.185005e+00 8.488333e-01 6.864239e-01 9.329006e-01 1.123244e+00 1.308122e+00 6.315085e-01 -6.730543e-01 -1.178956e+00 -8.308301e-01 -5.547440e-01 -5.139141e-01 -4.737945e-01 -5.001247e-01 -5.316277e-01 -5.719327e-01 
-6.784532e-01 -6.454596e-01 -5.706902e-01 -4.983724e-01 -4.288924e-01 -4.632645e-01 -4.789494e-01 -9.637297e-01 -8.869202e-01 1.279504e-01 1.012830e+00 1.433443e+00 8.123551e-01 2.948045e-01 3.765287e-01 7.146288e-01 1.005931e+00 7.146288e-01 3.765287e-01 2.948045e-01 8.123551e-01 1.433443e+00 1.012830e+00 1.279504e-01 -8.869202e-01 -9.637297e-01 -4.789494e-01 -4.632645e-01 -4.288924e-01 -4.983724e-01 -5.706902e-01 -6.454596e-01 
-7.930998e-01 -7.356155e-01 -6.201580e-01 -4.782086e-01 -3.754746e-01 -3.894850e-01 -4.980220e-01 -1.021278e+00 -5.123583e-01 3.543726e-01 8.717772e-01 1.377770e+00 3.671653e-01 -4.349126e-02 5.159220e-01 9.359359e-01 1.295397e+00 9.359359e-01 5.159220e-01 -4.349126e-02 3.671653e-01 1.377770e+00 8.717772e-01 3.543726e-01 -5.123583e-01 -1.021278e+00 -4.980220e-01 -3.894850e-01 -3.754746e-01 -4.782086e-01 -6.201580e-01 -7.356155e-01 
-9.121425e-01 -8.290861e-01 -6.688386e-01 -4.334301e-01 -2.925249e-01 -2.412654e-01 -4.480468e-01 -6.020182e-01 -4.125589e-02 5.279437e-01 1.262195e+00 1.137556e+00 2.552822e-02 -1.372338e-01 2.017212e-01 5.775340e-01 8.345859e-01 5.775340e-01 2.017212e-01 -1.372338e-01 2.552822e-02 1.137556e+00 1.262195e+00 5.279437e-01 -4.125589e-02 -6.020182e-01 -4.480468e-01 -2.412654e-01 -2.925249e-01 -4.334301e-01 -6.688386e-01 -8.290861e-01 
-1.020090e+00 -9.213679e-01 -7.240119e-01 -3.871227e-01 -1.607029e-01 -2.506604e-02 -2.669597e-01 -9.910112e-02 7.578285e-02 5.875247e-02 1.283937e+00 1.021524e+00 -5.459175e-02 -5.398861e-02 6.972883e-02 4.063698e-01 5.737242e-01 4.063698e-01 6.972883e-02 -5.398861e-02 -5.459175e-02 1.021524e+00 1.283937e+00 5.875247e-02 7.578285e-02 -9.910112e-02 -2.669597e-01 -2.506604e-02 -1.607029e-01 -3.871227e-01 -7.240119e-01 -9.213679e-01 
-1.083618e+00 -9.805011e-01 -7.634216e-01 -3.586707e-01 -8.357698e-02 1.109235e-01 -3.060636e-02 2.098423e-01 1.765712e-01 7.539371e-02 1.409518e+00 8.943720e-01 -1.382200e-01 -8.201268e-02 -1.231450e-01 1.306530e-01 1.893801e-01 1.306530e-01 -1.231450e-01 -8.201268e-02 -1.382200e-01 8.943720e-01 1.409518e+00 7.539371e-02 1.765712e-01 2.098423e-01 -3.060636e-02 1.109235e-01 -8.357698e-02 -3.586707e-01 -7.634216e-01 -9.805011e-01 
-1.019407e+00 -9.375616e-01 -7.418941e-01 -3.500026e-01 1.057144e-02 3.911435e-01 3.854568e-01 2.996795e-01 2.394798e-02 4.944811e-02 1.124649e+00 6.124007e-01 -1.575992e-01 -9.111336e-02 -1.568284e-01 2.600567e-02 4.280002e-02 2.600567e-02 -1.568284e-01 -9.111336e-02 -1.575992e-01 6.124007e-01 1.124649e+00 4.944811e-02 2.394798e-02 2.996795e-01 3.854568e-01 3.911435e-01 1.057144e-02 -3.500026e-01 -7.418941e-01 -9.375616e-01 
-7.507459e-01 -6.837228e-01 -4.987773e-01 -1.586292e-01 1.454848e-01 4.010673e-01 2.682696e-01 2.631881e-02 1.128603e-02 2.190253e-01 6.892826e-01 3.103512e-01 -8.986281e-02 -7.328256e-02 -1.287342e-01 -4.112813e-02 -4.315156e-02 -4.112813e-02 -1.287342e-01 -7.328256e-02 -8.986281e-02 3.103512e-01 6.892826e-01 2.190253e-01 1.128603e-02 2.631881e-02 2.682696e-01 4.010673e-01 1.454848e-01 -1.586292e-01 -4.987773e-01 -6.837228e-01 
-1.773246e-17 -1.040013e-14 -2.219196e-14 -3.516540e-14 -2.988662e-14 -1.910985e-14 -5.398010e-14 -5.489082e-15 1.447868e-13 1.042188e-13 -7.814214e-15 1.524211e-14 4.068450e-15 -5.370895e-15 -6.904157e-15 -1.068470e-14 -1.125758e-14 -1.711480e-14 -2.282129e-14 -3.010166e-14 -4.132926e-14 -3.482546e-14 2.734528e-14 6.083054e-14 2.750521e-14 -1.310940e-14 -1.792281e-14 3.416274e-15 1.838709e-14 9.330849e-15 5.155388e-15 2.036197e-15 
7.507459e-01 6.837228e-01 4.987773e-01 1.586292e-01 -1.454848e-01 -4.010673e-01 -2.682696e-01 -2.631881e-02 -1.128603e-02 -2.190253e-01 -6.892826e-01 -3.103512e-01 8.986281e-02 7.328256e-02 1.287342e-01 4.112813e-02 4.315156e-02 4.112813e-02 1.287342e-01 7.328256e-02 8.986281e-02 -3.103512e-01 -6.892826e-01 -2.190253e-01 -1.128603e-02 -2.631881e-02 -2.682696e-01 -4.010673e-01 -1.454848e-01 1.586292e-01 4.987773e-01 6.837228e-01 
1.019407e+00 9.375616e-01 7.418941e-01 3.500026e-01 -1.057144e-02 -3.911435e-01 -3.854568e-01 -2.996795e-01 -2.394798e-02 -4.944811e-02 -1.124649e+00 -6.124007e-01 1.575992e-01 9.111336e-02 1.568284e-01 -2.600567e-02 -4.280002e-02 -2.600567e-02 1.568284e-01 9.111336e-02 1.575992e-01 -6.124007e-01 -1.124649e+00 -4.944811e-02 -2.394798e-02 -2.996795e-01 -3.854568e-01 -3.911435e-01 -1.057144e-02 3.500026e-01 7.418941e-01 9.375616e-01 
1.083618e+00 9.805011e-01 7.634216e-01 3.586707e-01 8.357698e-02 -1.109235e-01 3.060636e-02 -2.098423e-01 -1.765712e-01 -7.539371e-02 -1.409518e+00 -8.943720e-01 1.382200e-01 8.201268e-02 1.231450e-01 -1.306530e-01 -1.893801e-01 -1.306530e-01 1.231450e-01 8.201268e-02 1.382200e-01 -8.943720e-01 -1.409518e+00 -7.539371e-02 -1.765712e-01 -2.098423e-01 3.060636e-02 -1.109235e-01 8.357698e-02 3.586707e-01 7.634216e-01 9.805011e-01 
1.020090e+00 9.213679e-01 7.240119e-01 3.871227e-01 1.607029e-01 2.506604e-02 2.669597e-01 9.910112e-02 -7.578285e-02 -5.875247e-02 -1.283937e+00 -1.021524e+00 5.459175e-02 5.398861e-02 -6.972883e-02 -4.063698e-01 -5.737242e-01 -4.063698e-01 -6.972883e-02 5.398861e-02 5.459175e-02 -1.021524e+00 -1.283937e+00 -5.875247e-02 -7.578285e-02 9.910112e-02 2.669597e-01 2.506604e-02 1.607029e-01 3.871227e-01 7.240119e-01 9.213679e-01 
9.121425e-01 8.290861e-01 6.688386e-01 4.334301e-01 2.925249e-01 2.412654e-01 4.480468e-01 6.020182e-01 4.125589e-02 -5.279437e-01 -1.262195e+00 -1.137556e+00 -2.552822e-02 1.372338e-01 -2.017212e-01 -5.775340e-01 -8.345859e-01 -5.775340e-01 -2.017212e-01 1.372338e-01 -2.552822e-02 -1.137556e+00 -1.262195e+00 -5.279437e-01 4.125589e-02 6.020182e-01 4.480468e-01 2.412654e-01 2.925249e-01 4.334301e-01 6.688386e-01 8.290861e-01 
7.930998e-01 7.356155e-01 6.201580e-01 4.782086e-01 3.754746e-01 3.894850e-01 4.980220e-01 1.021278e+00 5.123583e-01 -3.543726e-01 -8.717772e-01 -1.377770e+00 -3.671653e-01 4.349126e-02 -5.159220e-01 -9.359359e-01 -1.295397e+00 -9.359359e-01 -5.159220e-01 4.349126e-02 -3.671653e-01 -1.377770e+00 -8.717772e-01 -3.543726e-01 5.123583e-01 1.021278e+00 4.980220e-01 3.894850e-01 3.754746e-01 4.782086e-01 6.201580e-01 7.356155e-01 
6.784532e-01 6.454596e-01 5.706902e-01 4.983724e-01 4.288924e-01 4.632645e-01 4.789494e-01 9.637297e-01 8.869202e-01 -1.279504e-01 -1.012830e+00 -1.433443e+00 -8.123551e-01 -2.948045e-01 -3.765287e-01 -7.146288e-01 -1.005931e+00 -7.146288e-01 -3.765287e-01 -2.948045e-01 -8.123551e-01 -1.433443e+00 -1.012830e+00 -1.279504e-01 8.869202e-01 9.637297e-01 4.789494e-01 4.632645e-01 4.288924e-01 4.983724e-01 5.706902e-01 6.454596e-01 
5.891137e-01 5.719327e-01 5.316277e-01 5.001247e-01 4.737945e-01 5.139141e-01 5.547440e-01 8.308301e-01 1.178956e+00 6.730543e-01 -6.315085e-01 -1.308122e+00 -1.123244e+00 -9.329006e-01 -6.864239e-01 -8.488333e-01 -1.185005e+00 -8.488333e-01 -6.864239e-01 -9.329006e-01 -1.123244e+00 -1.308122e+00 -6.315085e-01 6.730543e-01 1.178956e+00 8.308301e-01 5.547440e-01 5.139141e-01 4.737945e-01 5.001247e-01 5.316277e-01 5.719327e-01 
4.952994e-01 4.885576e-01 4.631958e-01 4.488575e-01 4.301274e-01 4.542911e-01 4.750702e-01 5.696187e-01 8.225023e-01 8.831330e-01 3.166625e-01 -6.602537e-01 -1.830443e+00 -2.273137e+00 -9.562633e-01 8.893255e-02 6.299705e-02 8.893255e-02 -9.562633e-01 -2.273137e+00 -1.830443e+00 -6.602537e-01 3.166625e-01 8.831330e-01 8.225023e-01 5.696187e-01 4.750702e-01 4.542911e-01 4.301274e-01 4.488575e-01 4.631958e-01 4.885576e-01 
4.229311e-01 4.196331e-01 4.068947e-01 3.993690e-01 3.900276e-01 3.980748e-01 4.064129e-01 4.215049e-01 4.931686e-01 5.010184e-01 5.107117e-01 7.589481e-01 2.466092e-01 -1.638717e+00 -2.212261e+00 -1.259832e+00 -9.060574e-01 -1.259832e+00 -2.212261e+00 -1.638717e+00 2.466092e-01 7.589481e-01 5.107117e-01 5.010184e-01 4.931686e-01 4.215049e-01 4.064129e-01 3.980748e-01 3.900276e-01 3.993690e-01 4.068947e-01 4.196331e-01 
3.389600e-01 3.383140e-01 3.279535e-01 3.212532e-01 3.073960e-01 2.987781e-01 2.830961e-01 2.522264e-01 2.251068e-01 1.307135e-01 2.413782e-02 5.630799e-02 7.469767e-01 6.472684e-01 -9.275419e-01 -2.044861e+00 -2.313210e+00 -2.044861e+00 -9.275419e-01 6.472684e-01 7.469767e-01 5.630799e-02 2.413782e-02 1.307135e-01 2.251068e-01 2.522264e-01 2.830961e-01 2.987781e-01 3.073960e-01 3.212532e-01 3.279535e-01 3.383140e-01 
2.703764e-01 2.690668e-01 2.620535e-01 2.532388e-01 2.383206e-01 2.160726e-01 1.834261e-01 1.194698e-01 3.925759e-02 -1.202429e-01 -3.116996e-01 -5.486257e-01 -6.397165e-01 -3.810330e-01 1.540053e-01 1.920535e-01 -1.216706e-01 1.920535e-01 1.540053e-01 -3.810330e-01 -6.397165e-01 -5.486257e-01 -3.116996e-01 -1.202429e-01 3.925759e-02 1.194698e-01 1.834261e-01 2.160726e-01 2.383206e-01 2.532388e-01 2.620535e-01 2.690668e-01 
1.952052e-01 1.946855e-01 1.883232e-01 1.803116e-01 1.654774e-01 1.423328e-01 1.089261e-01 4.780692e-02 -2.479865e-02 -1.486488e-01 -2.563140e-01 -3.688195e-01 -2.924031e-01 -2.246797e-01 -1.916449e-01 1.770111e-01 4.096629e-01 1.770111e-01 -1.916449e-01 -2.246797e-01 -2.924031e-01 -3.688195e-01 -2.563140e-01 -1.486488e-01 -2.479865e-02 4.780692e-02 1.089261e-01 1.423328e-01 1.654774e-01 1.803116e-01 1.883232e-01 1.946855e-01 
1.299449e-01 1.288528e-01 1.242985e-01 1.163651e-01 1.031414e-01 8.008466e-02 4.623483e-02 -1.283680e-02 -8.978403e-02 -2.040395e-01 -3.179263e-01 -4.092398e-01 -3.888156e-01 -1.927512e-01 1.800780e-01 4.935647e-01 5.556015e-01 4.935647e-01 1.800780e-01 -1.927512e-01 -3.888156e-01 -4.092398e-01 -3.179263e-01 -2.040395e-01 -8.978403e-02 -1.283680e-02 4.623483e-02 8.008466e-02 1.031414e-01 1.163651e-01 1.242985e-01 1.288528e-01 
6.324520e-02 6.287887e-02 6.038929e-02 5.646088e-02 4.963750e-02 3.788402e-02 2.099974e-02 -8.945364e-03 -4.596450e-02 -1.022156e-01 -1.505306e-01 -1.910609e-01 -1.663050e-01 -8.604353e-02 4.118228e-02 2.310417e-01 3.179375e-01 2.310417e-01 4.118228e-02 -8.604353e-02 -1.663050e-01 -1.910609e-01 -1.505306e-01 -1.022156e-01 -4.596450e-02 -8.945364e-03 2.099974e-02 3.788402e-02 4.963750e-02 5.646088e-02 6.038929e-02 6.287887e-02 
