# vtk DataFile Version 2.0
Comment goes here
ASCII

DATASET STRUCTURED_POINTS
FIELD FieldData 1
TIME 1 1 double
1.00000000
DIMENSIONS    32   32   1

ORIGIN    0.000   0.000   0.000
SPACING   0.03125 0.03125   1.000

POINT_DATA   1024
SCALARS uY double
LOOKUP_TABLE default

-1.023443e-14 -1.072207e-14 -5.605531e-15 -4.144926e-15 3.478945e-15 4.851508e-15 1.284481e-14 1.305904e-14 2.183771e-14 2.383659e-14 4.049137e-14 4.457619e-14 6.690766e-14 5.383774e-14 6.109924e-14 5.774235e-14 2.144970e-14 -1.022010e-14 -4.952116e-14 -6.802013e-14 -1.098603e-13 -9.329071e-14 -8.745606e-14 -6.178879e-14 -4.721614e-14 -3.560708e-14 -2.777136e-14 -2.517341e-14 -1.885458e-14 -1.723701e-14 -1.311398e-14 -1.306980e-14 
-4.650241e-02 -3.754997e-02 -1.651169e-02 1.782539e-02 5.853438e-02 1.033537e-01 1.462221e-01 1.798774e-01 2.003087e-01 1.990255e-01 1.735854e-01 1.152758e-01 1.722062e-02 -1.220934e-01 -2.933318e-01 -4.557145e-01 -5.255532e-01 -4.557145e-01 -2.933318e-01 -1.220934e-01 1.722062e-02 1.152758e-01 1.735854e-01 1.990255e-01 2.003087e-01 1.798774e-01 1.462221e-01 1.033537e-01 5.853438e-02 1.782539e-02 -1.651169e-02 -3.754997e-02 
-1.102094e-01 -9.231918e-02 -5.104383e-02 1.558946e-02 9.272545e-02 1.768391e-01 2.563455e-01 3.189749e-01 3.576147e-01 3.563236e-01 3.147562e-01 2.153511e-01 5.144975e-02 -1.812787e-01 -4.876581e-01 -8.094802e-01 -9.581700e-01 -8.094802e-01 -4.876581e-01 -1.812787e-01 5.144975e-02 2.153511e-01 3.147562e-01 3.563236e-01 3.576147e-01 3.189749e-01 2.563455e-01 1.768391e-01 9.272545e-02 1.558946e-02 -5.104383e-02 -9.231918e-02 
-1.945777e-01 -1.667876e-01 -1.041978e-01 -4.881115e-03 1.067659e-01 2.256957e-01 3.375969e-01 4.250308e-01 4.825720e-01 4.859256e-01 4.388647e-01 3.229201e-01 1.177604e-01 -1.945299e-01 -6.250422e-01 -1.093374e+00 -1.314062e+00 -1.093374e+00 -6.250422e-01 -1.945299e-01 1.177604e-01 3.229201e-01 4.388647e-01 4.859256e-01 4.825720e-01 4.250308e-01 3.375969e-01 2.256957e-01 1.067659e-01 -4.881115e-03 -1.041978e-01 -1.667876e-01 
-3.211632e-01 -2.826208e-01 -1.980577e-01 -6.694981e-02 7.314724e-02 2.170244e-01 3.464404e-01 4.456471e-01 5.120126e-01 5.179734e-01 4.832642e-01 3.748012e-01 2.007238e-01 -4.756772e-02 -5.065042e-01 -1.158308e+00 -1.500890e+00 -1.158308e+00 -5.065042e-01 -4.756772e-02 2.007238e-01 3.748012e-01 4.832642e-01 5.179734e-01 5.120126e-01 4.456471e-01 3.464404e-01 2.170244e-01 7.314724e-02 -6.694981e-02 -1.980577e-01 -2.826208e-01 
-4.771599e-01 -4.250272e-01 -3.139641e-01 -1.446356e-01 2.817003e-02 1.980392e-01 3.462981e-01 4.555063e-01 5.400985e-01 5.591106e-01 5.541460e-01 5.031502e-01 3.537195e-01 5.826318e-02 -5.034867e-01 -1.204407e+00 -1.532803e+00 -1.204407e+00 -5.034867e-01 5.826318e-02 3.537195e-01 5.031502e-01 5.541460e-01 5.591106e-01 5.400985e-01 4.555063e-01 3.462981e-01 1.980392e-01 2.817003e-02 -1.446356e-01 -3.139641e-01 -4.250272e-01 
-6.775412e-01 -6.104170e-01 -4.700152e-01 -2.598075e-01 -5.633462e-02 1.338095e-01 2.839288e-01 3.856710e-01 4.560571e-01 4.582836e-01 4.612251e-01 3.485254e-01 2.883512e-01 4.316701e-01 2.094049e-02 -8.877352e-01 -1.290765e+00 -8.877352e-01 2.094049e-02 4.316701e-01 2.883512e-01 3.485254e-01 4.612251e-01 4.582836e-01 4.560571e-01 3.856710e-01 2.839288e-01 1.338095e-01 -5.633462e-02 -2.598075e-01 -4.700152e-01 -6.104170e-01 
-8.946348e-01 -8.091797e-01 -6.359887e-01 -3.768031e-01 -1.374737e-01 7.871917e-02 2.375715e-01 3.307388e-01 4.130002e-01 4.006477e-01 4.533616e-01 5.401098e-01 5.532877e-01 1.538972e-01 -5.508219e-01 -3.181299e-01 2.287614e-01 -3.181299e-01 -5.508219e-01 1.538972e-01 5.532877e-01 5.401098e-01 4.533616e-01 4.006477e-01 4.130002e-01 3.307388e-01 2.375715e-01 7.871917e-02 -1.374737e-01 -3.768031e-01 -6.359887e-01 -8.091797e-01 
-1.126510e+00 -1.023182e+00 -8.157697e-01 -5.074048e-01 -2.341204e-01 3.579936e-03 1.556958e-01 2.315644e-01 2.655903e-01 3.055326e-01 2.646797e-01 -3.299176e-01 -6.855826e-01 -5.561497e-02 8.545201e-01 1.375442e+00 1.516484e+00 1.375442e+00 8.545201e-01 -5.561497e-02 -6.855826e-01 -3.299176e-01 2.646797e-01 3.055326e-01 2.655903e-01 2.315644e-01 1.556958e-01 3.579936e-03 -2.341204e-01 -5.074048e-01 -8.157697e-01 -1.023182e+00 
-1.336186e+00 -1.214171e+00 -9.767696e-01 -6.173552e-01 -3.185043e-01 -5.692990e-02 7.815392e-02 1.211817e-01 1.966648e-01 9.665661e-02 -3.687581e-01 -3.163895e-01 8.116187e-01 1.306361e+00 1.033127e+00 6.806470e-01 4.251215e-01 6.806470e-01 1.033127e+00 1.306361e+00 8.116187e-01 -3.163895e-01 -3.687581e-01 9.665661e-02 1.966648e-01 1.211817e-01 7.815392e-02 -5.692990e-02 -3.185043e-01 -6.173552e-01 -9.767696e-01 -1.214171e+00 
-1.506754e+00 -1.371356e+00 -1.107479e+00 -7.042916e-01 -3.806728e-01 -1.063438e-01 1.474268e-02 -3.546303e-02 2.554833e-01 3.326777e-01 3.104980e-01 7.989524e-01 1.024841e+00 5.888135e-01 3.253417e-01 4.970113e-01 6.212457e-01 4.970113e-01 3.253417e-01 5.888135e-01 1.024841e+00 7.989524e-01 3.104980e-01 3.326777e-01 2.554833e-01 -3.546303e-02 1.474268e-02 -1.063438e-01 -3.806728e-01 -7.042916e-01 -1.107479e+00 -1.371356e+00 
-1.601091e+00 -1.458179e+00 -1.182788e+00 -7.486354e-01 -4.311288e-01 -1.366049e-01 -1.318924e-01 9.719720e-02 9.801250e-01 5.788501e-01 1.196206e-01 4.960092e-01 4.953107e-01 4.699592e-01 5.028646e-01 7.014032e-01 8.968670e-01 7.014032e-01 5.028646e-01 4.699592e-01 4.953107e-01 4.960092e-01 1.196206e-01 5.788501e-01 9.801250e-01 9.719720e-02 -1.318924e-01 -1.366049e-01 -4.311288e-01 -7.486354e-01 -1.182788e+00 -1.458179e+00 
-1.600636e+00 -1.460555e+00 -1.184888e+00 -7.313692e-01 -4.083787e-01 -2.279476e-02 -3.099229e-02 6.533061e-01 1.113490e+00 -1.453188e-01 2.870454e-01 7.878445e-01 4.066249e-01 3.940682e-01 3.081364e-01 5.248192e-01 6.185598e-01 5.248192e-01 3.081364e-01 3.940682e-01 4.066249e-01 7.878445e-01 2.870454e-01 -1.453188e-01 1.113490e+00 6.533061e-01 -3.099229e-02 -2.279476e-02 -4.083787e-01 -7.313692e-01 -1.184888e+00 -1.460555e+00 
-1.462808e+00 -1.340646e+00 -1.082028e+00 -6.591130e-01 -3.108970e-01 9.163237e-02 3.026769e-01 1.211702e+00 7.128589e-01 -6.259686e-01 7.504117e-01 7.286615e-01 -5.386963e-02 1.926805e-01 1.837555e-01 4.010516e-01 4.569922e-01 4.010516e-01 1.837555e-01 1.926805e-01 -5.386963e-02 7.286615e-01 7.504117e-01 -6.259686e-01 7.128589e-01 1.211702e+00 3.026769e-01 9.163237e-02 -3.108970e-01 -6.591130e-01 -1.082028e+00 -1.340646e+00 
-1.171941e+00 -1.085491e+00 -8.748790e-01 -5.521741e-01 -2.165475e-01 6.764810e-02 4.730775e-01 9.886187e-01 -1.717493e-01 -5.245592e-01 1.072964e+00 6.884861e-01 6.986026e-02 1.738273e-01 1.104213e-01 2.436443e-01 2.456456e-01 2.436443e-01 1.104213e-01 1.738273e-01 6.986026e-02 6.884861e-01 1.072964e+00 -5.245592e-01 -1.717493e-01 9.886187e-01 4.730775e-01 6.764810e-02 -2.165475e-01 -5.521741e-01 -8.748790e-01 -1.085491e+00 
-6.749020e-01 -6.244565e-01 -4.930930e-01 -2.971086e-01 -7.688303e-02 8.633885e-02 4.288187e-01 6.596532e-01 -2.055588e-01 -2.234035e-01 7.217877e-01 2.727978e-01 -9.524856e-02 2.794937e-02 8.971537e-03 9.822941e-02 9.731293e-02 9.822941e-02 8.971537e-03 2.794937e-02 -9.524856e-02 2.727978e-01 7.217877e-01 -2.234035e-01 -2.055588e-01 6.596532e-01 4.288187e-01 8.633885e-02 -7.688303e-02 -2.971086e-01 -4.930930e-01 -6.244565e-01 
-4.071246e-15 -4.588650e-14 -9.286969e-14 -1.255638e-13 -1.283188e-13 -8.250990e-14 1.008276e-14 1.401066e-13 7.796442e-14 1.242896e-14 1.145211e-13 8.484574e-14 1.094698e-13 4.250017e-14 4.327184e-14 -8.078459e-15 -3.876235e-14 -7.540811e-14 -1.615122e-13 -1.825643e-13 -3.133239e-13 -1.757735e-13 7.212637e-14 4.140715e-13 2.893811e-13 -2.604937e-13 -3.695950e-13 -1.067198e-13 1.205054e-13 1.786267e-13 1.296062e-13 4.904770e-14 
6.749020e-01 6.244565e-01 4.930930e-01 2.971086e-01 7.688303e-02 -8.633885e-02 -4.288187e-01 -6.596532e-01 2.055588e-01 2.234035e-01 -7.217877e-01 -2.727978e-01 9.524856e-02 -2.794937e-02 -8.971537e-03 -9.822941e-02 -9.731293e-02 -9.822941e-02 -8.971537e-03 -2.794937e-02 9.524856e-02 -2.727978e-01 -7.217877e-01 2.234035e-01 2.055588e-01 -6.596532e-01 -4.288187e-01 -8.633885e-02 7.688303e-02 2.971086e-01 4.930930e-01 6.244565e-01 
1.171941e+00 1.085491e+00 8.748790e-01 5.521741e-01 2.165475e-01 -6.764810e-02 -4.730775e-01 -9.886187e-01 1.717493e-01 5.245592e-01 -1.072964e+00 -6.884861e-01 -6.986026e-02 -1.738273e-01 -1.104213e-01 -2.436443e-01 -2.456456e-01 -2.436443e-01 -1.104213e-01 -1.738273e-01 -6.986026e-02 -6.884861e-01 -1.072964e+00 5.245592e-01 1.717493e-01 -9.886187e-01 -4.730775e-01 -6.764810e-02 2.165475e-01 5.521741e-01 8.748790e-01 1.085491e+00 
1.462808e+00 1.340646e+00 1.082028e+00 6.591130e-01 3.108970e-01 -9.163237e-02 -3.026769e-01 -1.211702e+00 -7.128589e-01 6.259686e-01 -7.504117e-01 -7.286615e-01 5.386963e-02 -1.926805e-01 -1.837555e-01 -4.010516e-01 -4.569922e-01 -4.010516e-01 -1.837555e-01 -1.926805e-01 5.386963e-02 -7.286615e-01 -7.504117e-01 6.259686e-01 -7.128589e-01 -1.211702e+00 -3.026769e-01 -9.163237e-02 3.108970e-01 6.591130e-01 1.082028e+00 1.340646e+00 
1.600636e+00 1.460555e+00 1.184888e+00 7.313692e-01 4.083787e-01 2.279476e-02 3.099229e-02 -6.533061e-01 -1.113490e+00 1.453188e-01 -2.870454e-01 -7.878445e-01 -4.066249e-01 -3.940682e-01 -3.081364e-01 -5.248192e-01 -6.185598e-01 -5.248192e-01 -3.081364e-01 -3.940682e-01 -4.066249e-01 -7.878445e-01 -2.870454e-01 1.453188e-01 -1.113490e+00 -6.533061e-01 3.099229e-02 2.279476e-02 4.083787e-01 7.313692e-01 1.184888e+00 1.460555e+00 
1.601091e+00 1.458179e+00 1.182788e+00 7.486354e-01 4.311288e-01 1.366049e-01 1.318924e-01 -9.719720e-02 -9.801250e-01 -5.788501e-01 -1.196206e-01 -4.960092e-01 -4.953107e-01 -4.699592e-01 -5.028646e-01 -7.014032e-01 -8.968670e-01 -7.014032e-01 -5.028646e-01 -4.699592e-01 -4.953107e-01 -4.960092e-01 -1.196206e-01 -5.788501e-01 -9.801250e-01 -9.719720e-02 1.318924e-01 1.366049e-01 4.311288e-01 7.486354e-01 1.182788e+00 1.458179e+00 
1.506754e+00 1.371356e+00 1.107479e+00 7.042916e-01 3.806728e-01 1.063438e-01 -1.474268e-02 3.546303e-02 -2.554833e-01 -3.326777e-01 -3.104980e-01 -7.989524e-01 -1.024841e+00 -5.888135e-01 -3.253417e-01 -4.970113e-01 -6.212457e-01 -4.970113e-01 -3.253417e-01 -5.888135e-01 -1.024841e+00 -7.989524e-01 -3.104980e-01 -3.326777e-01 -2.554833e-01 3.546303e-02 -1.474268e-02 1.063438e-01 3.806728e-01 7.042916e-01 1.107479e+00 1.371356e+00 
1.336186e+00 1.214171e+00 9.767696e-01 6.173552e-01 3.185043e-01 5.692990e-02 -7.815392e-02 -1.211817e-01 -1.966648e-01 -9.665661e-02 3.687581e-01 3.163895e-01 -8.116187e-01 -1.306361e+00 -1.033127e+00 -6.806470e-01 -4.251215e-01 -6.806470e-01 -1.033127e+00 -1.306361e+00 -8.116187e-01 3.163895e-01 3.687581e-01 -9.665661e-02 -1.966648e-01 -1.211817e-01 -7.815392e-02 5.692990e-02 3.185043e-01 6.173552e-01 9.767696e-01 1.214171e+00 
1.126510e+00 1.023182e+00 8.157697e-01 5.074048e-01 2.341204e-01 -3.579936e-03 -1.556958e-01 -2.315644e-01 -2.655903e-01 -3.055326e-01 -2.646797e-01 3.299176e-01 6.855826e-01 5.561497e-02 -8.545201e-01 -1.375442e+00 -1.516484e+00 -1.375442e+00 -8.545201e-01 5.561497e-02 6.855826e-01 3.299176e-01 -2.646797e-01 -3.055326e-01 -2.655903e-01 -2.315644e-01 -1.556958e-01 -3.579936e-03 2.341204e-01 5.074048e-01 8.157697e-01 1.023182e+00 
8.946348e-01 8.091797e-01 6.359887e-01 3.768031e-01 1.374737e-01 -7.871917e-02 -2.375715e-01 -3.307388e-01 -4.130002e-01 -4.006477e-01 -4.533616e-01 -5.401098e-01 -5.532877e-01 -1.538972e-01 5.508219e-01 3.181299e-01 -2.287614e-01 3.181299e-01 5.508219e-01 -1.538972e-01 -5.532877e-01 -5.401098e-01 -4.533616e-01 -4.006477e-01 -4.130002e-01 -3.307388e-01 -2.375715e-01 -7.871917e-02 1.374737e-01 3.768031e-01 6.359887e-01 8.091797e-01 
6.775412e-01 6.104170e-01 4.700152e-01 2.598075e-01 5.633462e-02 -1.338095e-01 -2.839288e-01 -3.856710e-01 -4.560571e-01 -4.582836e-01 -4.612251e-01 -3.485254e-01 -2.883512e-01 -4.316701e-01 -2.094049e-02 8.877352e-01 1.290765e+00 8.877352e-01 -2.094049e-02 -4.316701e-01 -2.883512e-01 -3.485254e-01 -4.612251e-01 -4.582836e-01 -4.560571e-01 -3.856710e-01 -2.839288e-01 -1.338095e-01 5.633462e-02 2.598075e-01 4.700152e-01 6.104170e-01 
4.771599e-01 4.250272e-01 3.139641e-01 1.446356e-01 -2.817003e-02 -1.980392e-01 -3.462981e-01 -4.555063e-01 -5.400985e-01 -5.591106e-01 -5.541460e-01 -5.031502e-01 -3.537195e-01 -5.826318e-02 5.034867e-01 1.204407e+00 1.532803e+00 1.204407e+00 5.034867e-01 -5.826318e-02 -3.537195e-01 -5.031502e-01 -5.541460e-01 -5.591106e-01 -5.400985e-01 -4.555063e-01 -3.462981e-01 -1.980392e-01 -2.817003e-02 1.446356e-01 3.139641e-01 4.250272e-01 
3.211632e-01 2.826208e-01 1.980577e-01 6.694981e-02 -7.314724e-02 -2.170244e-01 -3.464404e-01 -4.456471e-01 -5.120126e-01 -5.179734e-01 -4.832642e-01 -3.748012e-01 -2.007238e-01 4.756772e-02 5.065042e-01 1.158308e+00 1.500890e+00 1.158308e+00 5.065042e-01 4.756772e-02 -2.007238e-01 -3.748012e-01 -4.832642e-01 -5.179734e-01 -5.120126e-01 -4.456471e-01 -3.464404e-01 -2.170244e-01 -7.314724e-02 6.694981e-02 1.980577e-01 2.826208e-01 
1.945777e-01 1.667876e-01 1.041978e-01 4.881115e-03 -1.067659e-01 -2.256957e-01 -3.375969e-01 -4.250308e-01 -4.825720e-01 -4.859256e-01 -4.388647e-01 -3.229201e-01 -1.177604e-01 1.945299e-01 6.250422e-01 1.093374e+00 1.314062e+00 1.093374e+00 6.250422e-01 1.945299e-01 -1.177604e-01 -3.229201e-01 -4.388647e-01 -4.859256e-01 -4.825720e-01 -4.250308e-01 -3.375969e-01 -2.256957e-01 -1.067659e-01 4.881115e-03 1.041978e-01 1.667876e-01 
1.102094e-01 9.231918e-02 5.104383e-02 -1.558946e-02 -9.272545e-02 -1.768391e-01 -2.563455e-01 -3.189749e-01 -3.576147e-01 -3.563236e-01 -3.147562e-01 -2.153511e-01 -5.144975e-02 1.812787e-01 4.876581e-01 8.094802e-01 9.581700e-01 8.094802e-01 4.876581e-01 1.812787e-01 -5.144975e-02 -2.153511e-01 -3.147562e-01 -3.563236e-01 -3.576147e-01 -3.189749e-01 -2.563455e-01 -1.768391e-01 -9.272545e-02 -1.558946e-02 5.104383e-02 9.231918e-02 
4.650241e-02 3.754997e-02 1.651169e-02 -1.782539e-02 -5.853438e-02 -1.033537e-01 -1.462221e-01 -1.798774e-01 -2.003087e-01 -1.990255e-01 -1.735854e-01 -1.152758e-01 -1.722062e-02 1.220934e-01 2.933318e-01 4.557145e-01 5.255532e-01 4.557145e-01 2.933318e-01 1.220934e-01 -1.722062e-02 -1.152758e-01 -1.735854e-01 -1.990255e-01 -2.003087e-01 -1.798774e-01 -1.462221e-01 -1.033537e-01 -5.853438e-02 -1.782539e-02 1.651169e-02 3.754997e-02 
