# vtk DataFile Version 2.0
Comment goes here
ASCII

DATASET STRUCTURED_POINTS
FIELD FieldData 1
TIME 1 1 double
0.60000000
DIMENSIONS    32   32   1

ORIGIN    0.000   0.000   0.000
SPACING   0.03125 0.03125   1.000

POINT_DATA   1024
SCALARS uY double
LOOKUP_TABLE default

-4.313137e-15 -2.600488e-15 -4.622623e-15 -2.179516e-16 -2.576777e-15 5.804945e-15 1.801576e-15 1.336983e-14 7.401656e-15 1.717304e-14 2.728638e-15 7.501053e-15 -9.367391e-15 -7.145484e-15 -1.834778e-14 -1.606755e-14 6.144612e-15 1.000575e-14 1.093139e-14 5.167258e-15 1.012796e-14 -2.646403e-15 1.128106e-15 -1.315970e-14 -5.128046e-15 -1.362866e-14 -4.726270e-15 -8.825241e-15 -3.299187e-15 -5.603746e-15 -3.236075e-15 -4.120249e-15 
6.610225e-02 6.633684e-02 8.008560e-02 9.227704e-02 1.158977e-01 1.352715e-01 1.645331e-01 1.845575e-01 2.060996e-01 2.008734e-01 1.777405e-01 1.113083e-01 6.577605e-03 -1.466680e-01 -3.743981e-01 -6.439565e-01 -8.191742e-01 -6.439565e-01 -3.743981e-01 -1.466680e-01 6.577605e-03 1.113083e-01 1.777405e-01 2.008734e-01 2.060996e-01 1.845575e-01 1.645331e-01 1.352715e-01 1.158977e-01 9.227704e-02 8.008560e-02 6.633684e-02 
1.228192e-01 1.235835e-01 1.512313e-01 1.755153e-01 2.207461e-01 2.561643e-01 3.079867e-01 3.405396e-01 3.757973e-01 3.614800e-01 3.190496e-01 1.988023e-01 1.401008e-02 -2.709657e-01 -7.074405e-01 -1.185119e+00 -1.485580e+00 -1.185119e+00 -7.074405e-01 -2.709657e-01 1.401008e-02 1.988023e-01 3.190496e-01 3.614800e-01 3.757973e-01 3.405396e-01 3.079867e-01 2.561643e-01 2.207461e-01 1.755153e-01 1.512313e-01 1.235835e-01 
1.726161e-01 1.751804e-01 2.193778e-01 2.584862e-01 3.272119e-01 3.769963e-01 4.474585e-01 4.827726e-01 5.222237e-01 4.844470e-01 4.177517e-01 2.249537e-01 -5.792043e-02 -4.388944e-01 -1.015339e+00 -1.563942e+00 -1.894144e+00 -1.563942e+00 -1.015339e+00 -4.388944e-01 -5.792043e-02 2.249537e-01 4.177517e-01 4.844470e-01 5.222237e-01 4.827726e-01 4.474585e-01 3.769963e-01 3.272119e-01 2.584862e-01 2.193778e-01 1.751804e-01 
1.948687e-01 2.007344e-01 2.641737e-01 3.211471e-01 4.127047e-01 4.751955e-01 5.550212e-01 5.827757e-01 6.076637e-01 5.232563e-01 4.180707e-01 1.721216e-01 -1.279110e-01 -5.578680e-01 -1.220423e+00 -1.717363e+00 -2.013469e+00 -1.717363e+00 -1.220423e+00 -5.578680e-01 -1.279110e-01 1.721216e-01 4.180707e-01 5.232563e-01 6.076637e-01 5.827757e-01 5.550212e-01 4.751955e-01 4.127047e-01 3.211471e-01 2.641737e-01 2.007344e-01 
1.993737e-01 2.126626e-01 3.036582e-01 3.891027e-01 5.145361e-01 5.970362e-01 6.937754e-01 7.155738e-01 7.281921e-01 5.960090e-01 4.785668e-01 9.136637e-02 -3.803314e-01 -8.715781e-01 -1.469994e+00 -1.730173e+00 -1.936181e+00 -1.730173e+00 -1.469994e+00 -8.715781e-01 -3.803314e-01 9.136637e-02 4.785668e-01 5.960090e-01 7.281921e-01 7.155738e-01 6.937754e-01 5.970362e-01 5.145361e-01 3.891027e-01 3.036582e-01 2.126626e-01 
1.589239e-01 1.828307e-01 3.096818e-01 4.331339e-01 5.988648e-01 7.107240e-01 8.251824e-01 8.532915e-01 8.456837e-01 6.088360e-01 3.876263e-01 -1.006979e-01 -5.231788e-01 -1.027731e+00 -1.590535e+00 -1.660387e+00 -1.865574e+00 -1.660387e+00 -1.590535e+00 -1.027731e+00 -5.231788e-01 -1.006979e-01 3.876263e-01 6.088360e-01 8.456837e-01 8.532915e-01 8.251824e-01 7.107240e-01 5.988648e-01 4.331339e-01 3.096818e-01 1.828307e-01 
8.451499e-02 1.270021e-01 3.032706e-01 4.848515e-01 7.140073e-01 8.746933e-01 1.029741e+00 1.077355e+00 1.065180e+00 8.352485e-01 6.919979e-01 -2.428277e-01 -1.276391e+00 -1.688331e+00 -1.733198e+00 -1.467992e+00 -1.673731e+00 -1.467992e+00 -1.733198e+00 -1.688331e+00 -1.276391e+00 -2.428277e-01 6.919979e-01 8.352485e-01 1.065180e+00 1.077355e+00 1.029741e+00 8.746933e-01 7.140073e-01 4.848515e-01 3.032706e-01 1.270021e-01 
-4.216498e-02 2.059780e-02 2.567709e-01 5.051940e-01 8.077468e-01 1.034520e+00 1.248560e+00 1.440451e+00 1.483500e+00 7.940117e-01 -2.644859e-01 -1.292995e+00 -1.519238e+00 -1.286171e+00 -1.207964e+00 -1.215609e+00 -1.567613e+00 -1.215609e+00 -1.207964e+00 -1.286171e+00 -1.519238e+00 -1.292995e+00 -2.644859e-01 7.940117e-01 1.483500e+00 1.440451e+00 1.248560e+00 1.034520e+00 8.077468e-01 5.051940e-01 2.567709e-01 2.059780e-02 
-2.107902e-01 -1.186994e-01 1.831526e-01 5.175149e-01 9.256813e-01 1.260357e+00 1.601675e+00 1.836015e+00 1.378970e+00 1.616618e-01 -7.360571e-01 -9.394588e-01 -8.120643e-01 -1.066963e+00 -1.510798e+00 -1.650426e+00 -1.850328e+00 -1.650426e+00 -1.510798e+00 -1.066963e+00 -8.120643e-01 -9.394588e-01 -7.360571e-01 1.616618e-01 1.378970e+00 1.836015e+00 1.601675e+00 1.260357e+00 9.256813e-01 5.175149e-01 1.831526e-01 -1.186994e-01 
-4.051801e-01 -2.916315e-01 7.623934e-02 4.786156e-01 9.856609e-01 1.389558e+00 1.769866e+00 2.242085e+00 1.322295e+00 -2.372254e-01 -5.853305e-01 -9.855338e-01 -1.462927e+00 -1.565079e+00 -1.415058e+00 -1.030789e+00 -9.763134e-01 -1.030789e+00 -1.415058e+00 -1.565079e+00 -1.462927e+00 -9.855338e-01 -5.853305e-01 -2.372254e-01 1.322295e+00 2.242085e+00 1.769866e+00 1.389558e+00 9.856609e-01 4.786156e-01 7.623934e-02 -2.916315e-01 
-6.180340e-01 -4.797045e-01 -8.198177e-02 3.691263e-01 9.430318e-01 1.351425e+00 2.058190e+00 2.607339e+00 7.391367e-01 -9.758317e-01 -1.059479e+00 -1.485606e+00 -1.432031e+00 -1.060443e+00 -7.074572e-01 -3.263045e-01 -3.007853e-01 -3.263045e-01 -7.074572e-01 -1.060443e+00 -1.432031e+00 -1.485606e+00 -1.059479e+00 -9.758317e-01 7.391367e-01 2.607339e+00 2.058190e+00 1.351425e+00 9.430318e-01 3.691263e-01 -8.198177e-02 -4.797045e-01 
-7.724289e-01 -6.316156e-01 -2.201659e-01 2.348898e-01 9.395842e-01 1.263848e+00 2.744133e+00 2.440952e+00 -5.367835e-01 -1.120243e+00 -7.507812e-01 -8.018624e-01 -7.981480e-01 -8.622244e-01 -7.632058e-01 -5.237434e-01 -4.568361e-01 -5.237434e-01 -7.632058e-01 -8.622244e-01 -7.981480e-01 -8.018624e-01 -7.507812e-01 -1.120243e+00 -5.367835e-01 2.440952e+00 2.744133e+00 1.263848e+00 9.395842e-01 2.348898e-01 -2.201659e-01 -6.316156e-01 
-8.519356e-01 -7.094594e-01 -3.857592e-01 9.424585e-02 5.773066e-01 1.344097e+00 3.318241e+00 1.425683e+00 -1.227772e+00 -4.286110e-01 -3.472975e-01 -6.613675e-01 -8.077507e-01 -7.366894e-01 -5.621580e-01 -3.278989e-01 -2.776853e-01 -3.278989e-01 -5.621580e-01 -7.366894e-01 -8.077507e-01 -6.613675e-01 -3.472975e-01 -4.286110e-01 -1.227772e+00 1.425683e+00 3.318241e+00 1.344097e+00 5.773066e-01 9.424585e-02 -3.857592e-01 -7.094594e-01 
-7.693289e-01 -6.384091e-01 -4.727266e-01 -2.915290e-02 1.425338e-01 1.735417e+00 3.000324e+00 1.895258e-01 -8.815009e-01 4.580643e-03 -2.370096e-01 -3.814177e-01 -5.450533e-01 -5.395475e-01 -4.676699e-01 -3.409961e-01 -3.084664e-01 -3.409961e-01 -4.676699e-01 -5.395475e-01 -5.450533e-01 -3.814177e-01 -2.370096e-01 4.580643e-03 -8.815009e-01 1.895258e-01 3.000324e+00 1.735417e+00 1.425338e-01 -2.915290e-02 -4.727266e-01 -6.384091e-01 
-4.697168e-01 -4.049212e-01 -3.406078e-01 -1.103636e-01 4.156758e-02 1.322444e+00 1.592596e+00 -2.771293e-01 -2.934792e-01 1.706993e-01 -9.565927e-02 -2.158482e-01 -3.382678e-01 -3.143831e-01 -2.553334e-01 -1.704983e-01 -1.519149e-01 -1.704983e-01 -2.553334e-01 -3.143831e-01 -3.382678e-01 -2.158482e-01 -9.565927e-02 1.706993e-01 -2.934792e-01 -2.771293e-01 1.592596e+00 1.322444e+00 4.156758e-02 -1.103636e-01 -3.406078e-01 -4.049212e-01 
1.531008e-14 1.190779e-14 9.074372e-15 4.809759e-15 -9.268500e-15 2.828877e-14 -2.947426e-14 -5.509525e-14 2.946131e-14 5.908126e-14 3.179703e-14 3.235557e-14 3.506289e-15 1.921169e-14 -8.723715e-15 2.733136e-15 -1.599388e-14 -1.678685e-14 -2.264321e-14 -3.711996e-14 -4.294057e-14 -5.517756e-14 -4.679330e-14 1.435712e-14 1.710687e-13 1.398066e-14 -1.051515e-13 -8.556558e-14 -2.403019e-14 2.473055e-14 2.944802e-14 2.329531e-14 
4.697168e-01 4.049212e-01 3.406078e-01 1.103636e-01 -4.156758e-02 -1.322444e+00 -1.592596e+00 2.771293e-01 2.934792e-01 -1.706993e-01 9.565927e-02 2.158482e-01 3.382678e-01 3.143831e-01 2.553334e-01 1.704983e-01 1.519149e-01 1.704983e-01 2.553334e-01 3.143831e-01 3.382678e-01 2.158482e-01 9.565927e-02 -1.706993e-01 2.934792e-01 2.771293e-01 -1.592596e+00 -1.322444e+00 -4.156758e-02 1.103636e-01 3.406078e-01 4.049212e-01 
7.693289e-01 6.384091e-01 4.727266e-01 2.915290e-02 -1.425338e-01 -1.735417e+00 -3.000324e+00 -1.895258e-01 8.815009e-01 -4.580643e-03 2.370096e-01 3.814177e-01 5.450533e-01 5.395475e-01 4.676699e-01 3.409961e-01 3.084664e-01 3.409961e-01 4.676699e-01 5.395475e-01 5.450533e-01 3.814177e-01 2.370096e-01 -4.580643e-03 8.815009e-01 -1.895258e-01 -3.000324e+00 -1.735417e+00 -1.425338e-01 2.915290e-02 4.727266e-01 6.384091e-01 
8.519356e-01 7.094594e-01 3.857592e-01 -9.424585e-02 -5.773066e-01 -1.344097e+00 -3.318241e+00 -1.425683e+00 1.227772e+00 4.286110e-01 3.472975e-01 6.613675e-01 8.077507e-01 7.366894e-01 5.621580e-01 3.278989e-01 2.776853e-01 3.278989e-01 5.621580e-01 7.366894e-01 8.077507e-01 6.613675e-01 3.472975e-01 4.286110e-01 1.227772e+00 -1.425683e+00 -3.318241e+00 -1.344097e+00 -5.773066e-01 -9.424585e-02 3.857592e-01 7.094594e-01 
7.724289e-01 6.316156e-01 2.201659e-01 -2.348898e-01 -9.395842e-01 -1.263848e+00 -2.744133e+00 -2.440952e+00 5.367835e-01 1.120243e+00 7.507812e-01 8.018624e-01 7.981480e-01 8.622244e-01 7.632058e-01 5.237434e-01 4.568361e-01 5.237434e-01 7.632058e-01 8.622244e-01 7.981480e-01 8.018624e-01 7.507812e-01 1.120243e+00 5.367835e-01 -2.440952e+00 -2.744133e+00 -1.263848e+00 -9.395842e-01 -2.348898e-01 2.201659e-01 6.316156e-01 
6.180340e-01 4.797045e-01 8.198177e-02 -3.691263e-01 -9.430318e-01 -1.351425e+00 -2.058190e+00 -2.607339e+00 -7.391367e-01 9.758317e-01 1.059479e+00 1.485606e+00 1.432031e+00 1.060443e+00 7.074572e-01 3.263045e-01 3.007853e-01 3.263045e-01 7.074572e-01 1.060443e+00 1.432031e+00 1.485606e+00 1.059479e+00 9.758317e-01 -7.391367e-01 -2.607339e+00 -2.058190e+00 -1.351425e+00 -9.430318e-01 -3.691263e-01 8.198177e-02 4.797045e-01 
4.051801e-01 2.916315e-01 -7.623934e-02 -4.786156e-01 -9.856609e-01 -1.389558e+00 -1.769866e+00 -2.242085e+00 -1.322295e+00 2.372254e-01 5.853305e-01 9.855338e-01 1.462927e+00 1.565079e+00 1.415058e+00 1.030789e+00 9.763134e-01 1.030789e+00 1.415058e+00 1.565079e+00 1.462927e+00 9.855338e-01 5.853305e-01 2.372254e-01 -1.322295e+00 -2.242085e+00 -1.769866e+00 -1.389558e+00 -9.856609e-01 -4.786156e-01 -7.623934e-02 2.916315e-01 
2.107902e-01 1.186994e-01 -1.831526e-01 -5.175149e-01 -9.256813e-01 -1.260357e+00 -1.601675e+00 -1.836015e+00 -1.378970e+00 -1.616618e-01 7.360571e-01 9.394588e-01 8.120643e-01 1.066963e+00 1.510798e+00 1.650426e+00 1.850328e+00 1.650426e+00 1.510798e+00 1.066963e+00 8.120643e-01 9.394588e-01 7.360571e-01 -1.616618e-01 -1.378970e+00 -1.836015e+00 -1.601675e+00 -1.260357e+00 -9.256813e-01 -5.175149e-01 -1.831526e-01 1.186994e-01 
4.216498e-02 -2.059780e-02 -2.567709e-01 -5.051940e-01 -8.077468e-01 -1.034520e+00 -1.248560e+00 -1.440451e+00 -1.483500e+00 -7.940117e-01 2.644859e-01 1.292995e+00 1.519238e+00 1.286171e+00 1.207964e+00 1.215609e+00 1.567613e+00 1.215609e+00 1.207964e+00 1.286171e+00 1.519238e+00 1.292995e+00 2.644859e-01 -7.940117e-01 -1.483500e+00 -1.440451e+00 -1.248560e+00 -1.034520e+00 -8.077468e-01 -5.051940e-01 -2.567709e-01 -2.059780e-02 
-8.451499e-02 -1.270021e-01 -3.032706e-01 -4.848515e-01 -7.140073e-01 -8.746933e-01 -1.029741e+00 -1.077355e+00 -1.065180e+00 -8.352485e-01 -6.919979e-01 2.428277e-01 1.276391e+00 1.688331e+00 1.733198e+00 1.467992e+00 1.673731e+00 1.467992e+00 1.733198e+00 1.688331e+00 1.276391e+00 2.428277e-01 -6.919979e-01 -8.352485e-01 -1.065180e+00 -1.077355e+00 -1.029741e+00 -8.746933e-01 -7.140073e-01 -4.848515e-01 -3.032706e-01 -1.270021e-01 
-1.589239e-01 -1.828307e-01 -3.096818e-01 -4.331339e-01 -5.988648e-01 -7.107240e-01 -8.251824e-01 -8.532915e-01 -8.456837e-01 -6.088360e-01 -3.876263e-01 1.006979e-01 5.231788e-01 1.027731e+00 1.590535e+00 1.660387e+00 1.865574e+00 1.660387e+00 1.590535e+00 1.027731e+00 5.231788e-01 1.006979e-01 -3.876263e-01 -6.088360e-01 -8.456837e-01 -8.532915e-01 -8.251824e-01 -7.107240e-01 -5.988648e-01 -4.331339e-01 -3.096818e-01 -1.828307e-01 
-1.993737e-01 -2.126626e-01 -3.036582e-01 -3.891027e-01 -5.145361e-01 -5.970362e-01 -6.937754e-01 -7.155738e-01 -7.281921e-01 -5.960090e-01 -4.785668e-01 -9.136637e-02 3.803314e-01 8.715781e-01 1.469994e+00 1.730173e+00 1.936181e+00 1.730173e+00 1.469994e+00 8.715781e-01 3.803314e-01 -9.136637e-02 -4.785668e-01 -5.960090e-01 -7.281921e-01 -7.155738e-01 -6.937754e-01 -5.970362e-01 -5.145361e-01 -3.891027e-01 -3.036582e-01 -2.126626e-01 
-1.948687e-01 -2.007344e-01 -2.641737e-01 -3.211471e-01 -4.127047e-01 -4.751955e-01 -5.550212e-01 -5.827757e-01 -6.076637e-01 -5.232563e-01 -4.180707e-01 -1.721216e-01 1.279110e-01 5.578680e-01 1.220423e+00 1.717363e+00 2.013469e+00 1.717363e+00 1.220423e+00 5.578680e-01 1.279110e-01 -1.721216e-01 -4.180707e-01 -5.232563e-01 -6.076637e-01 -5.827757e-01 -5.550212e-01 -4.751955e-01 -4.127047e-01 -3.211471e-01 -2.641737e-01 -2.007344e-01 
-1.726161e-01 -1.751804e-01 -2.193778e-01 -2.584862e-01 -3.272119e-01 -3.769963e-01 -4.474585e-01 -4.827726e-01 -5.222237e-01 -4.844470e-01 -4.177517e-01 -2.249537e-01 5.792043e-02 4.388944e-01 1.015339e+00 1.563942e+00 1.894144e+00 1.563942e+00 1.015339e+00 4.388944e-01 5.792043e-02 -2.249537e-01 -4.177517e-01 -4.844470e-01 -5.222237e-01 -4.827726e-01 -4.474585e-01 -3.769963e-01 -3.272119e-01 -2.584862e-01 -2.193778e-01 -1.751804e-01 
-1.228192e-01 -1.235835e-01 -1.512313e-01 -1.755153e-01 -2.207461e-01 -2.561643e-01 -3.079867e-01 -3.405396e-01 -3.757973e-01 -3.614800e-01 -3.190496e-01 -1.988023e-01 -1.401008e-02 2.709657e-01 7.074405e-01 1.185119e+00 1.485580e+00 1.185119e+00 7.074405e-01 2.709657e-01 -1.401008e-02 -1.988023e-01 -3.190496e-01 -3.614800e-01 -3.757973e-01 -3.405396e-01 -3.079867e-01 -2.561643e-01 -2.207461e-01 -1.755153e-01 -1.512313e-01 -1.235835e-01 
-6.610225e-02 -6.633684e-02 -8.008560e-02 -9.227704e-02 -1.158977e-01 -1.352715e-01 -1.645331e-01 -1.845575e-01 -2.060996e-01 -2.008734e-01 -1.777405e-01 -1.113083e-01 -6.577605e-03 1.466680e-01 3.743981e-01 6.439565e-01 8.191742e-01 6.439565e-01 3.743981e-01 1.466680e-01 -6.577605e-03 -1.113083e-01 -1.777405e-01 -2.008734e-01 -2.060996e-01 -1.845575e-01 -1.645331e-01 -1.352715e-01 -1.158977e-01 -9.227704e-02 -8.008560e-02 -6.633684e-02 
