# vtk DataFile Version 2.0
Comment goes here
ASCII

DATASET STRUCTURED_POINTS
FIELD FieldData 1
TIME 1 1 double
0.92000000
DIMENSIONS    32   32   1

ORIGIN    0.000   0.000   0.000
SPACING   0.03125 0.03125   1.000

POINT_DATA   1024
SCALARS uY double
LOOKUP_TABLE default

-5.671262e-15 -7.602808e-15 -7.655563e-15 -5.377852e-15 -5.574016e-15 -9.980332e-16 -4.648422e-15 1.314495e-15 -6.375969e-15 4.665198e-15 -6.840740e-15 7.733377e-15 -5.482294e-15 8.764336e-15 1.431263e-15 2.560371e-14 1.862346e-14 1.148714e-14 7.644153e-15 -1.810334e-14 -7.652878e-15 -1.994141e-14 -2.851910e-16 -9.149696e-15 2.073779e-15 -6.984170e-15 -1.663326e-15 -7.627655e-15 -2.957373e-15 -6.284966e-15 -3.091645e-15 -6.027414e-15 
3.172008e-02 3.977386e-02 5.942114e-02 9.067900e-02 1.282519e-01 1.678569e-01 2.052864e-01 2.284251e-01 2.349875e-01 2.108381e-01 1.593180e-01 7.385468e-02 -4.646447e-02 -2.013769e-01 -4.003200e-01 -6.100508e-01 -7.126810e-01 -6.100508e-01 -4.003200e-01 -2.013769e-01 -4.646447e-02 7.385468e-02 1.593180e-01 2.108381e-01 2.349875e-01 2.284251e-01 2.052864e-01 1.678569e-01 1.282519e-01 9.067900e-02 5.942114e-02 3.977386e-02 
4.799117e-02 6.427709e-02 1.031728e-01 1.642720e-01 2.357803e-01 3.099049e-01 3.788535e-01 4.206700e-01 4.322130e-01 3.871789e-01 2.942730e-01 1.384328e-01 -7.665386e-02 -3.557191e-01 -7.355300e-01 -1.129017e+00 -1.312209e+00 -1.129017e+00 -7.355300e-01 -3.557191e-01 -7.665386e-02 1.384328e-01 2.942730e-01 3.871789e-01 4.322130e-01 4.206700e-01 3.788535e-01 3.099049e-01 2.357803e-01 1.642720e-01 1.031728e-01 6.427709e-02 
4.429478e-02 7.012051e-02 1.298811e-01 2.224165e-01 3.267354e-01 4.321933e-01 5.290782e-01 5.850676e-01 6.019093e-01 5.347074e-01 4.050797e-01 1.852794e-01 -1.251708e-01 -5.102099e-01 -1.023164e+00 -1.519575e+00 -1.732992e+00 -1.519575e+00 -1.023164e+00 -5.102099e-01 -1.251708e-01 1.852794e-01 4.050797e-01 5.347074e-01 6.019093e-01 5.850676e-01 5.290782e-01 4.321933e-01 3.267354e-01 2.224165e-01 1.298811e-01 7.012051e-02 
7.337554e-04 3.759877e-02 1.201798e-01 2.453545e-01 3.789700e-01 5.084583e-01 6.219613e-01 6.817172e-01 6.952924e-01 6.048478e-01 4.475528e-01 1.782087e-01 -1.611486e-01 -5.573840e-01 -1.152857e+00 -1.698801e+00 -1.900636e+00 -1.698801e+00 -1.152857e+00 -5.573840e-01 -1.611486e-01 1.782087e-01 4.475528e-01 6.048478e-01 6.952924e-01 6.817172e-01 6.219613e-01 5.084583e-01 3.789700e-01 2.453545e-01 1.201798e-01 3.759877e-02 
-7.535471e-02 -2.398937e-02 8.748527e-02 2.548684e-01 4.243545e-01 5.839575e-01 7.187279e-01 7.844945e-01 8.076076e-01 6.937489e-01 5.293077e-01 2.078972e-01 -2.629723e-01 -7.482833e-01 -1.330334e+00 -1.752694e+00 -1.872998e+00 -1.752694e+00 -1.330334e+00 -7.482833e-01 -2.629723e-01 2.078972e-01 5.293077e-01 6.937489e-01 8.076076e-01 7.844945e-01 7.187279e-01 5.839575e-01 4.243545e-01 2.548684e-01 8.748527e-02 -2.398937e-02 
-1.997459e-01 -1.312182e-01 1.422926e-02 2.307561e-01 4.395631e-01 6.293851e-01 7.795697e-01 8.437821e-01 8.626808e-01 7.245172e-01 5.224336e-01 7.697082e-02 -3.985534e-01 -7.253205e-01 -1.261081e+00 -1.648873e+00 -1.717939e+00 -1.648873e+00 -1.261081e+00 -7.253205e-01 -3.985534e-01 7.697082e-02 5.224336e-01 7.245172e-01 8.626808e-01 8.437821e-01 7.795697e-01 6.293851e-01 4.395631e-01 2.307561e-01 1.422926e-02 -1.312182e-01 
-3.543339e-01 -2.651489e-01 -7.962606e-02 1.993699e-01 4.577791e-01 6.981152e-01 8.794130e-01 9.648749e-01 1.017444e+00 8.501297e-01 7.511530e-01 2.195189e-01 -7.504358e-01 -1.335412e+00 -1.531835e+00 -1.331447e+00 -1.133450e+00 -1.331447e+00 -1.531835e+00 -1.335412e+00 -7.504358e-01 2.195189e-01 7.511530e-01 8.501297e-01 1.017444e+00 9.648749e-01 8.794130e-01 6.981152e-01 4.577791e-01 1.993699e-01 -7.962606e-02 -2.651489e-01 
-5.410842e-01 -4.294052e-01 -2.007968e-01 1.458511e-01 4.586151e-01 7.537375e-01 9.705858e-01 1.068866e+00 1.159702e+00 1.008293e+00 4.703311e-01 -7.744818e-01 -1.530700e+00 -1.058952e+00 -7.462430e-01 -7.139093e-01 -6.219040e-01 -7.139093e-01 -7.462430e-01 -1.058952e+00 -1.530700e+00 -7.744818e-01 4.703311e-01 1.008293e+00 1.159702e+00 1.068866e+00 9.705858e-01 7.537375e-01 4.586151e-01 1.458511e-01 -2.007968e-01 -4.294052e-01 
-7.357819e-01 -6.020159e-01 -3.308785e-01 8.548484e-02 4.474387e-01 8.226241e-01 1.076166e+00 1.278047e+00 1.366269e+00 7.560867e-01 -2.030342e-01 -7.243827e-01 -4.713441e-01 -1.646617e-01 -7.473787e-01 -1.451182e+00 -1.538693e+00 -1.451182e+00 -7.473787e-01 -1.646617e-01 -4.713441e-01 -7.243827e-01 -2.030342e-01 7.560867e-01 1.366269e+00 1.278047e+00 1.076166e+00 8.226241e-01 4.474387e-01 8.548484e-02 -3.308785e-01 -6.020159e-01 
-9.253990e-01 -7.699195e-01 -4.614026e-01 1.992448e-02 4.297546e-01 8.955074e-01 1.211693e+00 1.379991e+00 1.621398e+00 7.873660e-01 -1.950013e-01 -2.559224e-01 -5.111279e-01 -9.223369e-01 -1.157378e+00 -1.134610e+00 -9.504708e-01 -1.134610e+00 -1.157378e+00 -9.223369e-01 -5.111279e-01 -2.559224e-01 -1.950013e-01 7.873660e-01 1.621398e+00 1.379991e+00 1.211693e+00 8.955074e-01 4.297546e-01 1.992448e-02 -4.614026e-01 -7.699195e-01 
-1.076143e+00 -9.114918e-01 -5.797175e-01 -7.072601e-02 3.531158e-01 8.824467e-01 1.149364e+00 1.626874e+00 2.072778e+00 4.076212e-01 -7.462637e-01 -8.102875e-01 -1.139400e+00 -8.235141e-01 -5.385112e-01 -3.009227e-01 -6.658927e-02 -3.009227e-01 -5.385112e-01 -8.235141e-01 -1.139400e+00 -8.102875e-01 -7.462637e-01 4.076212e-01 2.072778e+00 1.626874e+00 1.149364e+00 8.824467e-01 3.531158e-01 -7.072601e-02 -5.797175e-01 -9.114918e-01 
-1.158927e+00 -9.938574e-01 -6.708168e-01 -1.608445e-01 2.359389e-01 8.879029e-01 1.056525e+00 2.284403e+00 2.012140e+00 -7.302881e-01 -7.268221e-01 -3.192369e-01 -5.990764e-01 -5.244693e-01 -5.561632e-01 -4.436101e-01 -3.445241e-01 -4.436101e-01 -5.561632e-01 -5.244693e-01 -5.990764e-01 -3.192369e-01 -7.268221e-01 -7.302881e-01 2.012140e+00 2.284403e+00 1.056525e+00 8.879029e-01 2.359389e-01 -1.608445e-01 -6.708168e-01 -9.938574e-01 
-1.112139e+00 -9.745774e-01 -6.853187e-01 -2.627591e-01 1.479294e-01 6.786964e-01 1.127046e+00 2.659372e+00 1.141428e+00 -1.164369e+00 -1.628868e-01 -2.270774e-01 -5.303739e-01 -4.574121e-01 -3.998824e-01 -2.518737e-01 -1.637436e-01 -2.518737e-01 -3.998824e-01 -4.574121e-01 -5.303739e-01 -2.270774e-01 -1.628868e-01 -1.164369e+00 1.141428e+00 2.659372e+00 1.127046e+00 6.786964e-01 1.479294e-01 -2.627591e-01 -6.853187e-01 -9.745774e-01 
-9.123493e-01 -8.251346e-01 -6.087693e-01 -3.539838e-01 3.299242e-02 2.936940e-01 1.424280e+00 2.464236e+00 2.995760e-01 -7.547719e-01 5.817131e-02 -2.088740e-01 -3.091843e-01 -3.497540e-01 -3.285907e-01 -2.654121e-01 -2.246007e-01 -2.654121e-01 -3.285907e-01 -3.497540e-01 -3.091843e-01 -2.088740e-01 5.817131e-02 -7.547719e-01 2.995760e-01 2.464236e+00 1.424280e+00 2.936940e-01 3.299242e-02 -3.539838e-01 -6.087693e-01 -8.251346e-01 
-5.214279e-01 -4.824381e-01 -3.767712e-01 -2.667743e-01 -2.606071e-02 1.553560e-01 1.144775e+00 1.365509e+00 -2.078356e-01 -2.736568e-01 1.668478e-01 -1.453429e-01 -2.060838e-01 -2.213175e-01 -1.822929e-01 -1.313357e-01 -1.037298e-01 -1.313357e-01 -1.822929e-01 -2.213175e-01 -2.060838e-01 -1.453429e-01 1.668478e-01 -2.736568e-01 -2.078356e-01 1.365509e+00 1.144775e+00 1.553560e-01 -2.606071e-02 -2.667743e-01 -3.767712e-01 -4.824381e-01 
-1.264488e-14 -2.347519e-14 -4.719255e-14 -6.988809e-14 -7.612764e-14 -8.470031e-14 -2.503231e-14 7.815988e-14 2.005568e-14 1.655530e-14 1.115917e-14 -3.238487e-15 1.445161e-14 2.889795e-14 4.409504e-15 9.208306e-15 1.691074e-16 -2.145143e-14 6.854017e-16 -2.934996e-14 1.468007e-14 5.130693e-14 5.697301e-14 2.436935e-13 3.572246e-15 -2.890872e-13 -2.690552e-14 4.756258e-14 2.877342e-14 2.328466e-14 4.847679e-15 -6.007486e-15 
5.214279e-01 4.824381e-01 3.767712e-01 2.667743e-01 2.606071e-02 -1.553560e-01 -1.144775e+00 -1.365509e+00 2.078356e-01 2.736568e-01 -1.668478e-01 1.453429e-01 2.060838e-01 2.213175e-01 1.822929e-01 1.313357e-01 1.037298e-01 1.313357e-01 1.822929e-01 2.213175e-01 2.060838e-01 1.453429e-01 -1.668478e-01 2.736568e-01 2.078356e-01 -1.365509e+00 -1.144775e+00 -1.553560e-01 2.606071e-02 2.667743e-01 3.767712e-01 4.824381e-01 
9.123493e-01 8.251346e-01 6.087693e-01 3.539838e-01 -3.299242e-02 -2.936940e-01 -1.424280e+00 -2.464236e+00 -2.995760e-01 7.547719e-01 -5.817131e-02 2.088740e-01 3.091843e-01 3.497540e-01 3.285907e-01 2.654121e-01 2.246007e-01 2.654121e-01 3.285907e-01 3.497540e-01 3.091843e-01 2.088740e-01 -5.817131e-02 7.547719e-01 -2.995760e-01 -2.464236e+00 -1.424280e+00 -2.936940e-01 -3.299242e-02 3.539838e-01 6.087693e-01 8.251346e-01 
1.112139e+00 9.745774e-01 6.853187e-01 2.627591e-01 -1.479294e-01 -6.786964e-01 -1.127046e+00 -2.659372e+00 -1.141428e+00 1.164369e+00 1.628868e-01 2.270774e-01 5.303739e-01 4.574121e-01 3.998824e-01 2.518737e-01 1.637436e-01 2.518737e-01 3.998824e-01 4.574121e-01 5.303739e-01 2.270774e-01 1.628868e-01 1.164369e+00 -1.141428e+00 -2.659372e+00 -1.127046e+00 -6.786964e-01 -1.479294e-01 2.627591e-01 6.853187e-01 9.745774e-01 
1.158927e+00 9.938574e-01 6.708168e-01 1.608445e-01 -2.359389e-01 -8.879029e-01 -1.056525e+00 -2.284403e+00 -2.012140e+00 7.302881e-01 7.268221e-01 3.192369e-01 5.990764e-01 5.244693e-01 5.561632e-01 4.436101e-01 3.445241e-01 4.436101e-01 5.561632e-01 5.244693e-01 5.990764e-01 3.192369e-01 7.268221e-01 7.302881e-01 -2.012140e+00 -2.284403e+00 -1.056525e+00 -8.879029e-01 -2.359389e-01 1.608445e-01 6.708168e-01 9.938574e-01 
1.076143e+00 9.114918e-01 5.797175e-01 7.072601e-02 -3.531158e-01 -8.824467e-01 -1.149364e+00 -1.626874e+00 -2.072778e+00 -4.076212e-01 7.462637e-01 8.102875e-01 1.139400e+00 8.235141e-01 5.385112e-01 3.009227e-01 6.658927e-02 3.009227e-01 5.385112e-01 8.235141e-01 1.139400e+00 8.102875e-01 7.462637e-01 -4.076212e-01 -2.072778e+00 -1.626874e+00 -1.149364e+00 -8.824467e-01 -3.531158e-01 7.072601e-02 5.797175e-01 9.114918e-01 
9.253990e-01 7.699195e-01 4.614026e-01 -1.992448e-02 -4.297546e-01 -8.955074e-01 -1.211693e+00 -1.379991e+00 -1.621398e+00 -7.873660e-01 1.950013e-01 2.559224e-01 5.111279e-01 9.223369e-01 1.157378e+00 1.134610e+00 9.504708e-01 1.134610e+00 1.157378e+00 9.223369e-01 5.111279e-01 2.559224e-01 1.950013e-01 -7.873660e-01 -1.621398e+00 -1.379991e+00 -1.211693e+00 -8.955074e-01 -4.297546e-01 -1.992448e-02 4.614026e-01 7.699195e-01 
7.357819e-01 6.020159e-01 3.308785e-01 -8.548484e-02 -4.474387e-01 -8.226241e-01 -1.076166e+00 -1.278047e+00 -1.366269e+00 -7.560867e-01 2.030342e-01 7.243827e-01 4.713441e-01 1.646617e-01 7.473787e-01 1.451182e+00 1.538693e+00 1.451182e+00 7.473787e-01 1.646617e-01 4.713441e-01 7.243827e-01 2.030342e-01 -7.560867e-01 -1.366269e+00 -1.278047e+00 -1.076166e+00 -8.226241e-01 -4.474387e-01 -8.548484e-02 3.308785e-01 6.020159e-01 
5.410842e-01 4.294052e-01 2.007968e-01 -1.458511e-01 -4.586151e-01 -7.537375e-01 -9.705858e-01 -1.068866e+00 -1.159702e+00 -1.008293e+00 -4.703311e-01 7.744818e-01 1.530700e+00 1.058952e+00 7.462430e-01 7.139093e-01 6.219040e-01 7.139093e-01 7.462430e-01 1.058952e+00 1.530700e+00 7.744818e-01 -4.703311e-01 -1.008293e+00 -1.159702e+00 -1.068866e+00 -9.705858e-01 -7.537375e-01 -4.586151e-01 -1.458511e-01 2.007968e-01 4.294052e-01 
3.543339e-01 2.651489e-01 7.962606e-02 -1.993699e-01 -4.577791e-01 -6.981152e-01 -8.794130e-01 -9.648749e-01 -1.017444e+00 -8.501297e-01 -7.511530e-01 -2.195189e-01 7.504358e-01 1.335412e+00 1.531835e+00 1.331447e+00 1.133450e+00 1.331447e+00 1.531835e+00 1.335412e+00 7.504358e-01 -2.195189e-01 -7.511530e-01 -8.501297e-01 -1.017444e+00 -9.648749e-01 -8.794130e-01 -6.981152e-01 -4.577791e-01 -1.993699e-01 7.962606e-02 2.651489e-01 
1.997459e-01 1.312182e-01 -1.422926e-02 -2.307561e-01 -4.395631e-01 -6.293851e-01 -7.795697e-01 -8.437821e-01 -8.626808e-01 -7.245172e-01 -5.224336e-01 -7.697082e-02 3.985534e-01 7.253205e-01 1.261081e+00 1.648873e+00 1.717939e+00 1.648873e+00 1.261081e+00 7.253205e-01 3.985534e-01 -7.697082e-02 -5.224336e-01 -7.245172e-01 -8.626808e-01 -8.437821e-01 -7.795697e-01 -6.293851e-01 -4.395631e-01 -2.307561e-01 -1.422926e-02 1.312182e-01 
7.535471e-02 2.398937e-02 -8.748527e-02 -2.548684e-01 -4.243545e-01 -5.839575e-01 -7.187279e-01 -7.844945e-01 -8.076076e-01 -6.937489e-01 -5.293077e-01 -2.078972e-01 2.629723e-01 7.482833e-01 1.330334e+00 1.752694e+00 1.872998e+00 1.752694e+00 1.330334e+00 7.482833e-01 2.629723e-01 -2.078972e-01 -5.293077e-01 -6.937489e-01 -8.076076e-01 -7.844945e-01 -7.187279e-01 -5.839575e-01 -4.243545e-01 -2.548684e-01 -8.748527e-02 2.398937e-02 
-7.337554e-04 -3.759877e-02 -1.201798e-01 -2.453545e-01 -3.789700e-01 -5.084583e-01 -6.219613e-01 -6.817172e-01 -6.952924e-01 -6.048478e-01 -4.475528e-01 -1.782087e-01 1.611486e-01 5.573840e-01 1.152857e+00 1.698801e+00 1.900636e+00 1.698801e+00 1.152857e+00 5.573840e-01 1.611486e-01 -1.782087e-01 -4.475528e-01 -6.048478e-01 -6.952924e-01 -6.817172e-01 -6.219613e-01 -5.084583e-01 -3.789700e-01 -2.453545e-01 -1.201798e-01 -3.759877e-02 
-4.429478e-02 -7.012051e-02 -1.298811e-01 -2.224165e-01 -3.267354e-01 -4.321933e-01 -5.290782e-01 -5.850676e-01 -6.019093e-01 -5.347074e-01 -4.050797e-01 -1.852794e-01 1.251708e-01 5.102099e-01 1.023164e+00 1.519575e+00 1.732992e+00 1.519575e+00 1.023164e+00 5.102099e-01 1.251708e-01 -1.852794e-01 -4.050797e-01 -5.347074e-01 -6.019093e-01 -5.850676e-01 -5.290782e-01 -4.321933e-01 -3.267354e-01 -2.224165e-01 -1.298811e-01 -7.012051e-02 
-4.799117e-02 -6.427709e-02 -1.031728e-01 -1.642720e-01 -2.357803e-01 -3.099049e-01 -3.788535e-01 -4.206700e-01 -4.322130e-01 -3.871789e-01 -2.942730e-01 -1.384328e-01 7.665386e-02 3.557191e-01 7.355300e-01 1.129017e+00 1.312209e+00 1.129017e+00 7.355300e-01 3.557191e-01 7.665386e-02 -1.384328e-01 -2.942730e-01 -3.871789e-01 -4.322130e-01 -4.206700e-01 -3.788535e-01 -3.099049e-01 -2.357803e-01 -1.642720e-01 -1.031728e-01 -6.427709e-02 
-3.172008e-02 -3.977386e-02 -5.942114e-02 -9.067900e-02 -1.282519e-01 -1.678569e-01 -2.052864e-01 -2.284251e-01 -2.349875e-01 -2.108381e-01 -1.593180e-01 -7.385468e-02 4.646447e-02 2.013769e-01 4.003200e-01 6.100508e-01 7.126810e-01 6.100508e-01 4.003200e-01 2.013769e-01 4.646447e-02 -7.385468e-02 -1.593180e-01 -2.108381e-01 -2.349875e-01 -2.284251e-01 -2.052864e-01 -1.678569e-01 -1.282519e-01 -9.067900e-02 -5.942114e-02 -3.977386e-02 
