# vtk DataFile Version 2.0
Comment goes here
ASCII

DATASET STRUCTURED_POINTS
FIELD FieldData 1
TIME 1 1 double
0.84000000
DIMENSIONS    32   32   1

ORIGIN    0.000   0.000   0.000
SPACING   0.03125 0.03125   1.000

POINT_DATA   1024
SCALARS uY double
LOOKUP_TABLE default

1.086421e-16 -2.219087e-15 -5.587818e-15 -3.579197e-15 -7.436232e-15 -2.893572e-15 -9.120773e-15 -4.083882e-15 -1.170753e-14 -3.749035e-15 -4.979113e-15 1.929952e-15 7.663682e-15 1.408778e-15 9.911660e-16 8.461837e-15 5.347617e-15 -3.250692e-14 -7.513704e-15 -2.265264e-15 -7.085983e-15 1.141381e-14 1.108290e-14 1.625275e-14 1.692189e-14 1.335827e-14 1.430146e-14 9.670524e-15 1.107437e-14 7.517332e-15 7.426127e-15 3.199058e-15 
-6.108010e-02 -5.382533e-02 -3.652622e-02 -7.896898e-03 2.856883e-02 7.042773e-02 1.163139e-01 1.559111e-01 1.889453e-01 2.009246e-01 1.921124e-01 1.463985e-01 5.479093e-02 -8.503059e-02 -2.614303e-01 -4.269091e-01 -5.044697e-01 -4.269091e-01 -2.614303e-01 -8.503059e-02 5.479093e-02 1.463985e-01 1.921124e-01 2.009246e-01 1.889453e-01 1.559111e-01 1.163139e-01 7.042773e-02 2.856883e-02 -7.896898e-03 -3.652622e-02 -5.382533e-02 
-1.345536e-01 -1.198613e-01 -8.588303e-02 -3.027374e-02 3.879657e-02 1.167315e-01 2.025877e-01 2.760130e-01 3.415218e-01 3.660267e-01 3.616775e-01 2.894354e-01 1.406767e-01 -9.801701e-02 -4.536592e-01 -8.000546e-01 -9.568821e-01 -8.000546e-01 -4.536592e-01 -9.801701e-02 1.406767e-01 2.894354e-01 3.616775e-01 3.660267e-01 3.415218e-01 2.760130e-01 2.025877e-01 1.167315e-01 3.879657e-02 -3.027374e-02 -8.588303e-02 -1.198613e-01 
-2.284865e-01 -2.056267e-01 -1.547741e-01 -7.316037e-02 2.340062e-02 1.293351e-01 2.434712e-01 3.408041e-01 4.297499e-01 4.668393e-01 4.695647e-01 3.929288e-01 2.135457e-01 -7.336168e-02 -4.916668e-01 -9.777585e-01 -1.238096e+00 -9.777585e-01 -4.916668e-01 -7.336168e-02 2.135457e-01 3.929288e-01 4.695647e-01 4.668393e-01 4.297499e-01 3.408041e-01 2.434712e-01 1.293351e-01 2.340062e-02 -7.316037e-02 -1.547741e-01 -2.056267e-01 
-3.543688e-01 -3.217602e-01 -2.529399e-01 -1.449330e-01 -2.564850e-02 9.899712e-02 2.290533e-01 3.362223e-01 4.470626e-01 4.979685e-01 5.518581e-01 5.153685e-01 4.127276e-01 1.771230e-01 -4.336642e-01 -1.158986e+00 -1.502529e+00 -1.158986e+00 -4.336642e-01 1.771230e-01 4.127276e-01 5.153685e-01 5.518581e-01 4.979685e-01 4.470626e-01 3.362223e-01 2.290533e-01 9.899712e-02 -2.564850e-02 -1.449330e-01 -2.529399e-01 -3.217602e-01 
-5.122894e-01 -4.673868e-01 -3.761329e-01 -2.364988e-01 -9.346993e-02 4.728766e-02 1.847143e-01 2.922201e-01 4.124222e-01 4.710768e-01 5.560254e-01 5.357817e-01 3.620452e-01 1.859769e-01 -1.645699e-01 -8.284576e-01 -1.249779e+00 -8.284576e-01 -1.645699e-01 1.859769e-01 3.620452e-01 5.357817e-01 5.560254e-01 4.710768e-01 4.124222e-01 2.922201e-01 1.847143e-01 4.728766e-02 -9.346993e-02 -2.364988e-01 -3.761329e-01 -4.673868e-01 
-7.071644e-01 -6.468476e-01 -5.294006e-01 -3.524678e-01 -1.870215e-01 -3.543050e-02 9.274179e-02 1.792246e-01 2.852430e-01 3.258042e-01 4.885323e-01 5.190144e-01 7.192090e-01 7.568982e-01 -1.123471e-01 -7.461955e-01 -8.067494e-01 -7.461955e-01 -1.123471e-01 7.568982e-01 7.192090e-01 5.190144e-01 4.885323e-01 3.258042e-01 2.852430e-01 1.792246e-01 9.274179e-02 -3.543050e-02 -1.870215e-01 -3.524678e-01 -5.294006e-01 -6.468476e-01 
-9.274370e-01 -8.489976e-01 -6.993904e-01 -4.764414e-01 -2.819781e-01 -1.151495e-01 5.144585e-03 6.875111e-02 1.638407e-01 2.166371e-01 5.217469e-01 5.390095e-01 -1.046865e-01 -6.055169e-01 7.494314e-02 1.221708e+00 1.568196e+00 1.221708e+00 7.494314e-02 -6.055169e-01 -1.046865e-01 5.390095e-01 5.217469e-01 2.166371e-01 1.638407e-01 6.875111e-02 5.144585e-03 -1.151495e-01 -2.819781e-01 -4.764414e-01 -6.993904e-01 -8.489976e-01 
-1.160026e+00 -1.061600e+00 -8.780403e-01 -6.035769e-01 -3.826235e-01 -2.032486e-01 -1.176398e-01 -1.078984e-01 -1.121796e-01 -8.162008e-02 -5.745545e-02 -5.513896e-01 -2.330063e-01 1.158791e+00 1.756302e+00 1.450543e+00 1.209311e+00 1.450543e+00 1.756302e+00 1.158791e+00 -2.330063e-01 -5.513896e-01 -5.745545e-02 -8.162008e-02 -1.121796e-01 -1.078984e-01 -1.176398e-01 -2.032486e-01 -3.826235e-01 -6.035769e-01 -8.780403e-01 -1.061600e+00 
-1.382723e+00 -1.265319e+00 -1.047745e+00 -7.188466e-01 -4.710050e-01 -2.783371e-01 -2.309464e-01 -3.185263e-01 -3.063158e-01 -2.939914e-01 8.022647e-02 7.544646e-01 1.537283e+00 1.597297e+00 9.125757e-01 5.232592e-01 4.345762e-01 5.232592e-01 9.125757e-01 1.597297e+00 1.537283e+00 7.544646e-01 8.022647e-02 -2.939914e-01 -3.063158e-01 -3.185263e-01 -2.309464e-01 -2.783371e-01 -4.710050e-01 -7.188466e-01 -1.047745e+00 -1.265319e+00 
-1.562768e+00 -1.429437e+00 -1.180879e+00 -7.971665e-01 -5.225565e-01 -3.103172e-01 -3.145218e-01 -4.178339e-01 2.794054e-02 3.470426e-01 6.468802e-01 9.881596e-01 9.690881e-01 7.049045e-01 6.356689e-01 9.146482e-01 1.039527e+00 9.146482e-01 6.356689e-01 7.049045e-01 9.690881e-01 9.881596e-01 6.468802e-01 3.470426e-01 2.794054e-02 -4.178339e-01 -3.145218e-01 -3.103172e-01 -5.225565e-01 -7.971665e-01 -1.180879e+00 -1.429437e+00 
-1.679276e+00 -1.537742e+00 -1.267443e+00 -8.378593e-01 -5.501340e-01 -2.905209e-01 -3.813568e-01 -7.939779e-02 7.044188e-01 3.379947e-01 5.282545e-01 9.589505e-01 7.701183e-01 6.831744e-01 6.141281e-01 7.654007e-01 8.433043e-01 7.654007e-01 6.141281e-01 6.831744e-01 7.701183e-01 9.589505e-01 5.282545e-01 3.379947e-01 7.044188e-01 -7.939779e-02 -3.813568e-01 -2.905209e-01 -5.501340e-01 -8.378593e-01 -1.267443e+00 -1.537742e+00 
-1.692731e+00 -1.551532e+00 -1.268722e+00 -8.085114e-01 -4.951804e-01 -1.657882e-01 -2.170686e-01 6.296012e-01 9.742310e-01 -2.880424e-01 6.945076e-01 1.138763e+00 3.568132e-01 3.623761e-01 4.230121e-01 6.831337e-01 7.575465e-01 6.831337e-01 4.230121e-01 3.623761e-01 3.568132e-01 1.138763e+00 6.945076e-01 -2.880424e-01 9.742310e-01 6.296012e-01 -2.170686e-01 -1.657882e-01 -4.951804e-01 -8.085114e-01 -1.268722e+00 -1.551532e+00 
-1.577043e+00 -1.452356e+00 -1.172866e+00 -7.376362e-01 -3.880226e-01 -6.368480e-02 1.244994e-01 1.006774e+00 4.091182e-01 -5.030955e-01 1.128875e+00 9.288926e-01 1.581634e-01 3.440650e-01 2.865822e-01 4.770404e-01 4.843444e-01 4.770404e-01 2.865822e-01 3.440650e-01 1.581634e-01 9.288926e-01 1.128875e+00 -5.030955e-01 4.091182e-01 1.006774e+00 1.244994e-01 -6.368480e-02 -3.880226e-01 -7.376362e-01 -1.172866e+00 -1.452356e+00 
-1.282575e+00 -1.185130e+00 -9.407712e-01 -5.744926e-01 -2.136008e-01 6.798358e-02 4.369516e-01 9.394023e-01 -1.399428e-01 -3.416292e-01 1.214354e+00 6.207911e-01 9.790944e-03 1.821061e-01 1.328835e-01 2.909684e-01 2.832451e-01 2.909684e-01 1.328835e-01 1.821061e-01 9.790944e-03 6.207911e-01 1.214354e+00 -3.416292e-01 -1.399428e-01 9.394023e-01 4.369516e-01 6.798358e-02 -2.136008e-01 -5.744926e-01 -9.407712e-01 -1.185130e+00 
-7.540145e-01 -6.901536e-01 -5.203842e-01 -2.775903e-01 -3.379458e-02 1.230978e-01 3.478775e-01 4.571983e-01 -2.178380e-01 -7.777356e-02 7.282926e-01 2.701248e-01 -2.600620e-02 7.079442e-02 4.274625e-02 1.243022e-01 1.122277e-01 1.243022e-01 4.274625e-02 7.079442e-02 -2.600620e-02 2.701248e-01 7.282926e-01 -7.777356e-02 -2.178380e-01 4.571983e-01 3.478775e-01 1.230978e-01 -3.379458e-02 -2.775903e-01 -5.203842e-01 -6.901536e-01 
-1.937143e-15 6.242737e-15 -1.119802e-14 -3.836933e-14 -5.456267e-14 -4.251184e-14 -3.432888e-14 -5.627125e-14 -3.292415e-14 6.900566e-15 9.091082e-15 -1.734319e-14 -8.757095e-15 -1.572200e-14 -3.759954e-15 2.180097e-15 -2.387345e-15 1.433003e-14 -7.886789e-15 9.437285e-15 -1.785171e-14 1.928364e-14 -6.706903e-14 -5.332567e-15 1.902001e-13 1.465353e-13 9.205371e-14 4.378984e-14 1.051470e-14 -2.726566e-14 -3.771010e-14 -2.396829e-14 
7.540145e-01 6.901536e-01 5.203842e-01 2.775903e-01 3.379458e-02 -1.230978e-01 -3.478775e-01 -4.571983e-01 2.178380e-01 7.777356e-02 -7.282926e-01 -2.701248e-01 2.600620e-02 -7.079442e-02 -4.274625e-02 -1.243022e-01 -1.122277e-01 -1.243022e-01 -4.274625e-02 -7.079442e-02 2.600620e-02 -2.701248e-01 -7.282926e-01 7.777356e-02 2.178380e-01 -4.571983e-01 -3.478775e-01 -1.230978e-01 3.379458e-02 2.775903e-01 5.203842e-01 6.901536e-01 
1.282575e+00 1.185130e+00 9.407712e-01 5.744926e-01 2.136008e-01 -6.798358e-02 -4.369516e-01 -9.394023e-01 1.399428e-01 3.416292e-01 -1.214354e+00 -6.207911e-01 -9.790944e-03 -1.821061e-01 -1.328835e-01 -2.909684e-01 -2.832451e-01 -2.909684e-01 -1.328835e-01 -1.821061e-01 -9.790944e-03 -6.207911e-01 -1.214354e+00 3.416292e-01 1.399428e-01 -9.394023e-01 -4.369516e-01 -6.798358e-02 2.136008e-01 5.744926e-01 9.407712e-01 1.185130e+00 
1.577043e+00 1.452356e+00 1.172866e+00 7.376362e-01 3.880226e-01 6.368480e-02 -1.244994e-01 -1.006774e+00 -4.091182e-01 5.030955e-01 -1.128875e+00 -9.288926e-01 -1.581634e-01 -3.440650e-01 -2.865822e-01 -4.770404e-01 -4.843444e-01 -4.770404e-01 -2.865822e-01 -3.440650e-01 -1.581634e-01 -9.288926e-01 -1.128875e+00 5.030955e-01 -4.091182e-01 -1.006774e+00 -1.244994e-01 6.368480e-02 3.880226e-01 7.376362e-01 1.172866e+00 1.452356e+00 
1.692731e+00 1.551532e+00 1.268722e+00 8.085114e-01 4.951804e-01 1.657882e-01 2.170686e-01 -6.296012e-01 -9.742310e-01 2.880424e-01 -6.945076e-01 -1.138763e+00 -3.568132e-01 -3.623761e-01 -4.230121e-01 -6.831337e-01 -7.575465e-01 -6.831337e-01 -4.230121e-01 -3.623761e-01 -3.568132e-01 -1.138763e+00 -6.945076e-01 2.880424e-01 -9.742310e-01 -6.296012e-01 2.170686e-01 1.657882e-01 4.951804e-01 8.085114e-01 1.268722e+00 1.551532e+00 
1.679276e+00 1.537742e+00 1.267443e+00 8.378593e-01 5.501340e-01 2.905209e-01 3.813568e-01 7.939779e-02 -7.044188e-01 -3.379947e-01 -5.282545e-01 -9.589505e-01 -7.701183e-01 -6.831744e-01 -6.141281e-01 -7.654007e-01 -8.433043e-01 -7.654007e-01 -6.141281e-01 -6.831744e-01 -7.701183e-01 -9.589505e-01 -5.282545e-01 -3.379947e-01 -7.044188e-01 7.939779e-02 3.813568e-01 2.905209e-01 5.501340e-01 8.378593e-01 1.267443e+00 1.537742e+00 
1.562768e+00 1.429437e+00 1.180879e+00 7.971665e-01 5.225565e-01 3.103172e-01 3.145218e-01 4.178339e-01 -2.794054e-02 -3.470426e-01 -6.468802e-01 -9.881596e-01 -9.690881e-01 -7.049045e-01 -6.356689e-01 -9.146482e-01 -1.039527e+00 -9.146482e-01 -6.356689e-01 -7.049045e-01 -9.690881e-01 -9.881596e-01 -6.468802e-01 -3.470426e-01 -2.794054e-02 4.178339e-01 3.145218e-01 3.103172e-01 5.225565e-01 7.971665e-01 1.180879e+00 1.429437e+00 
1.382723e+00 1.265319e+00 1.047745e+00 7.188466e-01 4.710050e-01 2.783371e-01 2.309464e-01 3.185263e-01 3.063158e-01 2.939914e-01 -8.022647e-02 -7.544646e-01 -1.537283e+00 -1.597297e+00 -9.125757e-01 -5.232592e-01 -4.345762e-01 -5.232592e-01 -9.125757e-01 -1.597297e+00 -1.537283e+00 -7.544646e-01 -8.022647e-02 2.939914e-01 3.063158e-01 3.185263e-01 2.309464e-01 2.783371e-01 4.710050e-01 7.188466e-01 1.047745e+00 1.265319e+00 
1.160026e+00 1.061600e+00 8.780403e-01 6.035769e-01 3.826235e-01 2.032486e-01 1.176398e-01 1.078984e-01 1.121796e-01 8.162008e-02 5.745545e-02 5.513896e-01 2.330063e-01 -1.158791e+00 -1.756302e+00 -1.450543e+00 -1.209311e+00 -1.450543e+00 -1.756302e+00 -1.158791e+00 2.330063e-01 5.513896e-01 5.745545e-02 8.162008e-02 1.121796e-01 1.078984e-01 1.176398e-01 2.032486e-01 3.826235e-01 6.035769e-01 8.780403e-01 1.061600e+00 
9.274370e-01 8.489976e-01 6.993904e-01 4.764414e-01 2.819781e-01 1.151495e-01 -5.144585e-03 -6.875111e-02 -1.638407e-01 -2.166371e-01 -5.217469e-01 -5.390095e-01 1.046865e-01 6.055169e-01 -7.494314e-02 -1.221708e+00 -1.568196e+00 -1.221708e+00 -7.494314e-02 6.055169e-01 1.046865e-01 -5.390095e-01 -5.217469e-01 -2.166371e-01 -1.638407e-01 -6.875111e-02 -5.144585e-03 1.151495e-01 2.819781e-01 4.764414e-01 6.993904e-01 8.489976e-01 
7.071644e-01 6.468476e-01 5.294006e-01 3.524678e-01 1.870215e-01 3.543050e-02 -9.274179e-02 -1.792246e-01 -2.852430e-01 -3.258042e-01 -4.885323e-01 -5.190144e-01 -7.192090e-01 -7.568982e-01 1.123471e-01 7.461955e-01 8.067494e-01 7.461955e-01 1.123471e-01 -7.568982e-01 -7.192090e-01 -5.190144e-01 -4.885323e-01 -3.258042e-01 -2.852430e-01 -1.792246e-01 -9.274179e-02 3.543050e-02 1.870215e-01 3.524678e-01 5.294006e-01 6.468476e-01 
5.122894e-01 4.673868e-01 3.761329e-01 2.364988e-01 9.346993e-02 -4.728766e-02 -1.847143e-01 -2.922201e-01 -4.124222e-01 -4.710768e-01 -5.560254e-01 -5.357817e-01 -3.620452e-01 -1.859769e-01 1.645699e-01 8.284576e-01 1.249779e+00 8.284576e-01 1.645699e-01 -1.859769e-01 -3.620452e-01 -5.357817e-01 -5.560254e-01 -4.710768e-01 -4.124222e-01 -2.922201e-01 -1.847143e-01 -4.728766e-02 9.346993e-02 2.364988e-01 3.761329e-01 4.673868e-01 
3.543688e-01 3.217602e-01 2.529399e-01 1.449330e-01 2.564850e-02 -9.899712e-02 -2.290533e-01 -3.362223e-01 -4.470626e-01 -4.979685e-01 -5.518581e-01 -5.153685e-01 -4.127276e-01 -1.771230e-01 4.336642e-01 1.158986e+00 1.502529e+00 1.158986e+00 4.336642e-01 -1.771230e-01 -4.127276e-01 -5.153685e-01 -5.518581e-01 -4.979685e-01 -4.470626e-01 -3.362223e-01 -2.290533e-01 -9.899712e-02 2.564850e-02 1.449330e-01 2.529399e-01 3.217602e-01 
2.284865e-01 2.056267e-01 1.547741e-01 7.316037e-02 -2.340062e-02 -1.293351e-01 -2.434712e-01 -3.408041e-01 -4.297499e-01 -4.668393e-01 -4.695647e-01 -3.929288e-01 -2.135457e-01 7.336168e-02 4.916668e-01 9.777585e-01 1.238096e+00 9.777585e-01 4.916668e-01 7.336168e-02 -2.135457e-01 -3.929288e-01 -4.695647e-01 -4.668393e-01 -4.297499e-01 -3.408041e-01 -2.434712e-01 -1.293351e-01 -2.340062e-02 7.316037e-02 1.547741e-01 2.056267e-01 
1.345536e-01 1.198613e-01 8.588303e-02 3.027374e-02 -3.879657e-02 -1.167315e-01 -2.025877e-01 -2.760130e-01 -3.415218e-01 -3.660267e-01 -3.616775e-01 -2.894354e-01 -1.406767e-01 9.801701e-02 4.536592e-01 8.000546e-01 9.568821e-01 8.000546e-01 4.536592e-01 9.801701e-02 -1.406767e-01 -2.894354e-01 -3.616775e-01 -3.660267e-01 -3.415218e-01 -2.760130e-01 -2.025877e-01 -1.167315e-01 -3.879657e-02 3.027374e-02 8.588303e-02 1.198613e-01 
6.108010e-02 5.382533e-02 3.652622e-02 7.896898e-03 -2.856883e-02 -7.042773e-02 -1.163139e-01 -1.559111e-01 -1.889453e-01 -2.009246e-01 -1.921124e-01 -1.463985e-01 -5.479093e-02 8.503059e-02 2.614303e-01 4.269091e-01 5.044697e-01 4.269091e-01 2.614303e-01 8.503059e-02 -5.479093e-02 -1.463985e-01 -1.921124e-01 -2.009246e-01 -1.889453e-01 -1.559111e-01 -1.163139e-01 -7.042773e-02 -2.856883e-02 7.896898e-03 3.652622e-02 5.382533e-02 
