# vtk DataFile Version 2.0
Comment goes here
ASCII

DATASET STRUCTURED_POINTS
FIELD FieldData 1
TIME 1 1 double
0.96000000
DIMENSIONS    32   32   1

ORIGIN    0.000   0.000   0.000
SPACING   0.03125 0.03125   1.000

POINT_DATA   1024
SCALARS uY double
LOOKUP_TABLE default

-1.512402e-14 -1.032449e-14 -1.210540e-14 -7.056127e-15 -5.646500e-15 -1.428773e-15 1.400152e-15 4.286028e-15 9.431426e-15 1.341119e-14 2.259915e-14 2.923765e-14 3.986457e-14 3.809460e-14 3.558676e-14 4.062436e-14 4.465656e-14 1.745301e-14 2.765550e-14 -2.499528e-14 -4.301633e-14 -4.685478e-14 -4.486988e-14 -3.083416e-14 -3.059432e-14 -1.948668e-14 -2.508267e-14 -1.528889e-14 -2.146698e-14 -1.153631e-14 -1.681089e-14 -9.649310e-15 
-1.820293e-02 -1.144962e-02 9.934494e-03 4.108475e-02 8.027972e-02 1.218783e-01 1.599202e-01 1.886438e-01 1.980936e-01 1.893886e-01 1.522374e-01 9.134408e-02 -8.293850e-03 -1.454136e-01 -3.144176e-01 -4.754764e-01 -5.373052e-01 -4.754764e-01 -3.144176e-01 -1.454136e-01 -8.293850e-03 9.134408e-02 1.522374e-01 1.893886e-01 1.980936e-01 1.886438e-01 1.599202e-01 1.218783e-01 8.027972e-02 4.108475e-02 9.934494e-03 -1.144962e-02 
-4.852999e-02 -3.513122e-02 7.231961e-03 6.759780e-02 1.429125e-01 2.213526e-01 2.942612e-01 3.496161e-01 3.715703e-01 3.596566e-01 2.954401e-01 1.875713e-01 1.124261e-05 -2.561065e-01 -5.899871e-01 -8.945567e-01 -9.943505e-01 -8.945567e-01 -5.899871e-01 -2.561065e-01 1.124261e-05 1.875713e-01 2.954401e-01 3.596566e-01 3.715703e-01 3.496161e-01 2.942612e-01 2.213526e-01 1.429125e-01 6.759780e-02 7.231961e-03 -3.513122e-02 
-1.067379e-01 -8.623947e-02 -2.248572e-02 6.582995e-02 1.724832e-01 2.800782e-01 3.766774e-01 4.484052e-01 4.699492e-01 4.482295e-01 3.534911e-01 2.120046e-01 -1.868814e-02 -3.196151e-01 -6.902299e-01 -1.048693e+00 -1.175656e+00 -1.048693e+00 -6.902299e-01 -3.196151e-01 -1.868814e-02 2.120046e-01 3.534911e-01 4.482295e-01 4.699492e-01 4.484052e-01 3.766774e-01 2.800782e-01 1.724832e-01 6.582995e-02 -2.248572e-02 -8.623947e-02 
-1.939762e-01 -1.656050e-01 -7.880294e-02 3.689823e-02 1.719765e-01 3.005921e-01 4.152443e-01 4.976001e-01 5.284192e-01 5.141788e-01 4.313068e-01 3.067975e-01 5.974928e-02 -2.735700e-01 -7.694453e-01 -1.216892e+00 -1.322919e+00 -1.216892e+00 -7.694453e-01 -2.735700e-01 5.974928e-02 3.067975e-01 4.313068e-01 5.141788e-01 5.284192e-01 4.976001e-01 4.152443e-01 3.005921e-01 1.719765e-01 3.689823e-02 -7.880294e-02 -1.656050e-01 
-3.251586e-01 -2.869652e-01 -1.722413e-01 -2.437652e-02 1.410946e-01 2.881619e-01 4.121839e-01 4.953394e-01 5.137465e-01 4.912593e-01 3.793067e-01 2.308541e-01 -5.911898e-02 -3.284395e-01 -5.602565e-01 -8.658333e-01 -9.842713e-01 -8.658333e-01 -5.602565e-01 -3.284395e-01 -5.911898e-02 2.308541e-01 3.793067e-01 4.912593e-01 5.137465e-01 4.953394e-01 4.121839e-01 2.881619e-01 1.410946e-01 -2.437652e-02 -1.722413e-01 -2.869652e-01 
-4.848913e-01 -4.349331e-01 -2.885026e-01 -1.047757e-01 9.244725e-02 2.522678e-01 3.793453e-01 4.490122e-01 4.605494e-01 4.413537e-01 4.023083e-01 3.485347e-01 1.068862e-01 -1.301690e-01 -5.635722e-01 -8.212906e-01 -6.940322e-01 -8.212906e-01 -5.635722e-01 -1.301690e-01 1.068862e-01 3.485347e-01 4.023083e-01 4.413537e-01 4.605494e-01 4.490122e-01 3.793453e-01 2.522678e-01 9.244725e-02 -1.047757e-01 -2.885026e-01 -4.349331e-01 
-6.854379e-01 -6.215586e-01 -4.367186e-01 -2.087136e-01 3.146871e-02 2.122294e-01 3.521812e-01 4.127080e-01 4.033638e-01 3.786403e-01 2.195975e-01 -1.277002e-01 -8.856408e-01 -9.782769e-01 2.900264e-02 9.326717e-01 1.258929e+00 9.326717e-01 2.900264e-02 -9.782769e-01 -8.856408e-01 -1.277002e-01 2.195975e-01 3.786403e-01 4.033638e-01 4.127080e-01 3.521812e-01 2.122294e-01 3.146871e-02 -2.087136e-01 -4.367186e-01 -6.215586e-01 
-8.875089e-01 -8.079240e-01 -5.839141e-01 -3.090713e-01 -2.805389e-02 1.666622e-01 3.001466e-01 3.064095e-01 2.003036e-01 6.869117e-02 -3.418177e-01 -7.734488e-01 -6.129937e-01 8.105631e-01 1.363438e+00 5.381181e-01 2.932909e-01 5.381181e-01 1.363438e+00 8.105631e-01 -6.129937e-01 -7.734488e-01 -3.418177e-01 6.869117e-02 2.003036e-01 3.064095e-01 3.001466e-01 1.666622e-01 -2.805389e-02 -3.090713e-01 -5.839141e-01 -8.079240e-01 
-1.105254e+00 -1.009884e+00 -7.459776e-01 -4.227589e-01 -9.193171e-02 1.259051e-01 2.972939e-01 2.838277e-01 2.328794e-01 7.559683e-02 -2.731504e-01 1.951688e-01 1.034806e+00 1.385142e+00 4.255662e-01 -6.329974e-01 -6.537181e-01 -6.329974e-01 4.255662e-01 1.385142e+00 1.034806e+00 1.951688e-01 -2.731504e-01 7.559683e-02 2.328794e-01 2.838277e-01 2.972939e-01 1.259051e-01 -9.193171e-02 -4.227589e-01 -7.459776e-01 -1.009884e+00 
-1.270748e+00 -1.160470e+00 -8.632811e-01 -4.914978e-01 -1.131496e-01 1.423200e-01 3.568023e-01 2.612225e-01 2.218060e-01 3.541918e-01 1.318313e-01 2.933978e-01 4.141918e-01 2.979847e-01 1.627822e-01 3.028508e-01 6.487822e-01 3.028508e-01 1.627822e-01 2.979847e-01 4.141918e-01 2.933978e-01 1.318313e-01 3.541918e-01 2.218060e-01 2.612225e-01 3.568023e-01 1.423200e-01 -1.131496e-01 -4.914978e-01 -8.632811e-01 -1.160470e+00 
-1.406741e+00 -1.287652e+00 -9.790094e-01 -5.799095e-01 -1.848650e-01 8.442312e-02 3.080407e-01 1.315177e-01 8.666255e-01 9.569544e-01 -2.099255e-01 2.569467e-01 5.007371e-01 2.281236e-01 1.719219e-01 2.095955e-01 4.596906e-01 2.095955e-01 1.719219e-01 2.281236e-01 5.007371e-01 2.569467e-01 -2.099255e-01 9.569544e-01 8.666255e-01 1.315177e-01 3.080407e-01 8.442312e-02 -1.848650e-01 -5.799095e-01 -9.790094e-01 -1.287652e+00 
-1.420769e+00 -1.302005e+00 -1.003596e+00 -5.907471e-01 -1.807755e-01 1.863844e-01 4.688291e-01 5.514677e-01 1.207767e+00 2.495998e-01 -5.227981e-01 6.222610e-01 3.079438e-01 -3.135143e-06 1.849283e-01 2.830419e-01 4.961711e-01 2.830419e-01 1.849283e-01 -3.135143e-06 3.079438e-01 6.222610e-01 -5.227981e-01 2.495998e-01 1.207767e+00 5.514677e-01 4.688291e-01 1.863844e-01 -1.807755e-01 -5.907471e-01 -1.003596e+00 -1.302005e+00 
-1.338562e+00 -1.232809e+00 -9.865753e-01 -6.026331e-01 -2.470926e-01 2.185749e-01 3.796130e-01 9.585441e-01 1.248310e+00 -2.583628e-01 1.838336e-02 7.869577e-01 1.056145e-01 1.846343e-02 4.525521e-02 1.112645e-01 2.115452e-01 1.112645e-01 4.525521e-02 1.846343e-02 1.056145e-01 7.869577e-01 1.838336e-02 -2.583628e-01 1.248310e+00 9.585441e-01 3.796130e-01 2.185749e-01 -2.470926e-01 -6.026331e-01 -9.865753e-01 -1.232809e+00 
-1.072066e+00 -9.971105e-01 -8.357385e-01 -5.474845e-01 -2.812638e-01 1.940553e-01 3.931823e-01 1.249772e+00 1.028804e+00 -5.311868e-01 2.570818e-01 5.133865e-01 -9.138326e-02 2.810377e-02 -2.327817e-03 9.046456e-02 1.353558e-01 9.046456e-02 -2.327817e-03 2.810377e-02 -9.138326e-02 5.133865e-01 2.570818e-01 -5.311868e-01 1.028804e+00 1.249772e+00 3.931823e-01 1.940553e-01 -2.812638e-01 -5.474845e-01 -8.357385e-01 -9.971105e-01 
-6.343166e-01 -5.987125e-01 -5.209510e-01 -3.578890e-01 -1.730262e-01 1.580606e-01 3.447120e-01 7.813025e-01 4.204131e-01 -3.443455e-01 3.514999e-01 3.560884e-01 -7.401163e-02 -3.537502e-03 -4.193724e-02 9.032971e-03 2.091866e-02 9.032971e-03 -4.193724e-02 -3.537502e-03 -7.401163e-02 3.560884e-01 3.514999e-01 -3.443455e-01 4.204131e-01 7.813025e-01 3.447120e-01 1.580606e-01 -1.730262e-01 -3.578890e-01 -5.209510e-01 -5.987125e-01 
-1.486334e-15 -2.873528e-14 -4.902711e-14 -7.821793e-14 -8.811429e-14 -6.576957e-14 -2.138958e-14 1.164478e-13 1.679314e-13 -8.752886e-15 -3.822274e-15 -3.689341e-14 -8.046660e-15 -1.872326e-14 9.946785e-15 -1.888506e-14 -1.560300e-14 -3.648693e-14 -6.721881e-14 -6.492817e-14 -7.964633e-14 1.550668e-14 2.858249e-13 4.992535e-13 -2.334025e-13 -4.464035e-13 -1.142299e-13 5.794177e-14 1.344287e-13 7.553143e-14 5.033207e-14 4.766807e-15 
6.343166e-01 5.987125e-01 5.209510e-01 3.578890e-01 1.730262e-01 -1.580606e-01 -3.447120e-01 -7.813025e-01 -4.204131e-01 3.443455e-01 -3.514999e-01 -3.560884e-01 7.401163e-02 3.537502e-03 4.193724e-02 -9.032971e-03 -2.091866e-02 -9.032971e-03 4.193724e-02 3.537502e-03 7.401163e-02 -3.560884e-01 -3.514999e-01 3.443455e-01 -4.204131e-01 -7.813025e-01 -3.447120e-01 -1.580606e-01 1.730262e-01 3.578890e-01 5.209510e-01 5.987125e-01 
1.072066e+00 9.971105e-01 8.357385e-01 5.474845e-01 2.812638e-01 -1.940553e-01 -3.931823e-01 -1.249772e+00 -1.028804e+00 5.311868e-01 -2.570818e-01 -5.133865e-01 9.138326e-02 -2.810377e-02 2.327817e-03 -9.046456e-02 -1.353558e-01 -9.046456e-02 2.327817e-03 -2.810377e-02 9.138326e-02 -5.133865e-01 -2.570818e-01 5.311868e-01 -1.028804e+00 -1.249772e+00 -3.931823e-01 -1.940553e-01 2.812638e-01 5.474845e-01 8.357385e-01 9.971105e-01 
1.338562e+00 1.232809e+00 9.865753e-01 6.026331e-01 2.470926e-01 -2.185749e-01 -3.796130e-01 -9.585441e-01 -1.248310e+00 2.583628e-01 -1.838336e-02 -7.869577e-01 -1.056145e-01 -1.846343e-02 -4.525521e-02 -1.112645e-01 -2.115452e-01 -1.112645e-01 -4.525521e-02 -1.846343e-02 -1.056145e-01 -7.869577e-01 -1.838336e-02 2.583628e-01 -1.248310e+00 -9.585441e-01 -3.796130e-01 -2.185749e-01 2.470926e-01 6.026331e-01 9.865753e-01 1.232809e+00 
1.420769e+00 1.302005e+00 1.003596e+00 5.907471e-01 1.807755e-01 -1.863844e-01 -4.688291e-01 -5.514677e-01 -1.207767e+00 -2.495998e-01 5.227981e-01 -6.222610e-01 -3.079438e-01 3.135143e-06 -1.849283e-01 -2.830419e-01 -4.961711e-01 -2.830419e-01 -1.849283e-01 3.135143e-06 -3.079438e-01 -6.222610e-01 5.227981e-01 -2.495998e-01 -1.207767e+00 -5.514677e-01 -4.688291e-01 -1.863844e-01 1.807755e-01 5.907471e-01 1.003596e+00 1.302005e+00 
1.406741e+00 1.287652e+00 9.790094e-01 5.799095e-01 1.848650e-01 -8.442312e-02 -3.080407e-01 -1.315177e-01 -8.666255e-01 -9.569544e-01 2.099255e-01 -2.569467e-01 -5.007371e-01 -2.281236e-01 -1.719219e-01 -2.095955e-01 -4.596906e-01 -2.095955e-01 -1.719219e-01 -2.281236e-01 -5.007371e-01 -2.569467e-01 2.099255e-01 -9.569544e-01 -8.666255e-01 -1.315177e-01 -3.080407e-01 -8.442312e-02 1.848650e-01 5.799095e-01 9.790094e-01 1.287652e+00 
1.270748e+00 1.160470e+00 8.632811e-01 4.914978e-01 1.131496e-01 -1.423200e-01 -3.568023e-01 -2.612225e-01 -2.218060e-01 -3.541918e-01 -1.318313e-01 -2.933978e-01 -4.141918e-01 -2.979847e-01 -1.627822e-01 -3.028508e-01 -6.487822e-01 -3.028508e-01 -1.627822e-01 -2.979847e-01 -4.141918e-01 -2.933978e-01 -1.318313e-01 -3.541918e-01 -2.218060e-01 -2.612225e-01 -3.568023e-01 -1.423200e-01 1.131496e-01 4.914978e-01 8.632811e-01 1.160470e+00 
1.105254e+00 1.009884e+00 7.459776e-01 4.227589e-01 9.193171e-02 -1.259051e-01 -2.972939e-01 -2.838277e-01 -2.328794e-01 -7.559683e-02 2.731504e-01 -1.951688e-01 -1.034806e+00 -1.385142e+00 -4.255662e-01 6.329974e-01 6.537181e-01 6.329974e-01 -4.255662e-01 -1.385142e+00 -1.034806e+00 -1.951688e-01 2.731504e-01 -7.559683e-02 -2.328794e-01 -2.838277e-01 -2.972939e-01 -1.259051e-01 9.193171e-02 4.227589e-01 7.459776e-01 1.009884e+00 
8.875089e-01 8.079240e-01 5.839141e-01 3.090713e-01 2.805389e-02 -1.666622e-01 -3.001466e-01 -3.064095e-01 -2.003036e-01 -6.869117e-02 3.418177e-01 7.734488e-01 6.129937e-01 -8.105631e-01 -1.363438e+00 -5.381181e-01 -2.932909e-01 -5.381181e-01 -1.363438e+00 -8.105631e-01 6.129937e-01 7.734488e-01 3.418177e-01 -6.869117e-02 -2.003036e-01 -3.064095e-01 -3.001466e-01 -1.666622e-01 2.805389e-02 3.090713e-01 5.839141e-01 8.079240e-01 
6.854379e-01 6.215586e-01 4.367186e-01 2.087136e-01 -3.146871e-02 -2.122294e-01 -3.521812e-01 -4.127080e-01 -4.033638e-01 -3.786403e-01 -2.195975e-01 1.277002e-01 8.856408e-01 9.782769e-01 -2.900264e-02 -9.326717e-01 -1.258929e+00 -9.326717e-01 -2.900264e-02 9.782769e-01 8.856408e-01 1.277002e-01 -2.195975e-01 -3.786403e-01 -4.033638e-01 -4.127080e-01 -3.521812e-01 -2.122294e-01 -3.146871e-02 2.087136e-01 4.367186e-01 6.215586e-01 
4.848913e-01 4.349331e-01 2.885026e-01 1.047757e-01 -9.244725e-02 -2.522678e-01 -3.793453e-01 -4.490122e-01 -4.605494e-01 -4.413537e-01 -4.023083e-01 -3.485347e-01 -1.068862e-01 1.301690e-01 5.635722e-01 8.212906e-01 6.940322e-01 8.212906e-01 5.635722e-01 1.301690e-01 -1.068862e-01 -3.485347e-01 -4.023083e-01 -4.413537e-01 -4.605494e-01 -4.490122e-01 -3.793453e-01 -2.522678e-01 -9.244725e-02 1.047757e-01 2.885026e-01 4.349331e-01 
3.251586e-01 2.869652e-01 1.722413e-01 2.437652e-02 -1.410946e-01 -2.881619e-01 -4.121839e-01 -4.953394e-01 -5.137465e-01 -4.912593e-01 -3.793067e-01 -2.308541e-01 5.911898e-02 3.284395e-01 5.602565e-01 8.658333e-01 9.842713e-01 8.658333e-01 5.602565e-01 3.284395e-01 5.911898e-02 -2.308541e-01 -3.793067e-01 -4.912593e-01 -5.137465e-01 -4.953394e-01 -4.121839e-01 -2.881619e-01 -1.410946e-01 2.437652e-02 1.722413e-01 2.869652e-01 
1.939762e-01 1.656050e-01 7.880294e-02 -3.689823e-02 -1.719765e-01 -3.005921e-01 -4.152443e-01 -4.976001e-01 -5.284192e-01 -5.141788e-01 -4.313068e-01 -3.067975e-01 -5.974928e-02 2.735700e-01 7.694453e-01 1.216892e+00 1.322919e+00 1.216892e+00 7.694453e-01 2.735700e-01 -5.974928e-02 -3.067975e-01 -4.313068e-01 -5.141788e-01 -5.284192e-01 -4.976001e-01 -4.152443e-01 -3.005921e-01 -1.719765e-01 -3.689823e-02 7.880294e-02 1.656050e-01 
1.067379e-01 8.623947e-02 2.248572e-02 -6.582995e-02 -1.724832e-01 -2.800782e-01 -3.766774e-01 -4.484052e-01 -4.699492e-01 -4.482295e-01 -3.534911e-01 -2.120046e-01 1.868814e-02 3.196151e-01 6.902299e-01 1.048693e+00 1.175656e+00 1.048693e+00 6.902299e-01 3.196151e-01 1.868814e-02 -2.120046e-01 -3.534911e-01 -4.482295e-01 -4.699492e-01 -4.484052e-01 -3.766774e-01 -2.800782e-01 -1.724832e-01 -6.582995e-02 2.248572e-02 8.623947e-02 
4.852999e-02 3.513122e-02 -7.231961e-03 -6.759780e-02 -1.429125e-01 -2.213526e-01 -2.942612e-01 -3.496161e-01 -3.715703e-01 -3.596566e-01 -2.954401e-01 -1.875713e-01 -1.124261e-05 2.561065e-01 5.899871e-01 8.945567e-01 9.943505e-01 8.945567e-01 5.899871e-01 2.561065e-01 -1.124261e-05 -1.875713e-01 -2.954401e-01 -3.596566e-01 -3.715703e-01 -3.496161e-01 -2.942612e-01 -2.213526e-01 -1.429125e-01 -6.759780e-02 -7.231961e-03 3.513122e-02 
1.820293e-02 1.144962e-02 -9.934494e-03 -4.108475e-02 -8.027972e-02 -1.218783e-01 -1.599202e-01 -1.886438e-01 -1.980936e-01 -1.893886e-01 -1.522374e-01 -9.134408e-02 8.293850e-03 1.454136e-01 3.144176e-01 4.754764e-01 5.373052e-01 4.754764e-01 3.144176e-01 1.454136e-01 8.293850e-03 -9.134408e-02 -1.522374e-01 -1.893886e-01 -1.980936e-01 -1.886438e-01 -1.599202e-01 -1.218783e-01 -8.027972e-02 -4.108475e-02 -9.934494e-03 1.144962e-02 
