# vtk DataFile Version 2.0
Comment goes here
ASCII

DATASET STRUCTURED_POINTS
FIELD FieldData 1
TIME 1 1 double
0.68000000
DIMENSIONS    32   32   1

ORIGIN    0.000   0.000   0.000
SPACING   0.03125 0.03125   1.000

POINT_DATA   1024
SCALARS uY double
LOOKUP_TABLE default

-1.464717e-15 -6.651810e-15 -5.300066e-15 -7.888231e-15 -6.373704e-15 -6.478237e-15 -5.405276e-15 -3.438970e-15 -6.036388e-15 -3.330366e-15 -8.135186e-15 2.178838e-15 8.541355e-16 1.122827e-14 -3.670360e-15 3.797133e-15 -1.568911e-14 -8.606928e-15 -1.736257e-14 -1.143142e-14 -9.507319e-15 -1.083264e-15 1.290712e-14 3.928633e-15 1.394892e-14 1.211236e-15 9.976267e-15 9.255159e-17 7.523080e-15 -6.640675e-16 3.241134e-15 -3.376121e-15 
-7.739027e-02 -7.162973e-02 -6.009041e-02 -3.813252e-02 -1.086964e-02 2.669064e-02 6.907115e-02 1.187538e-01 1.627663e-01 1.993815e-01 2.079951e-01 1.827704e-01 1.055306e-01 -2.904184e-02 -1.992495e-01 -3.887923e-01 -4.729170e-01 -3.887923e-01 -1.992495e-01 -2.904184e-02 1.055306e-01 1.827704e-01 2.079951e-01 1.993815e-01 1.627663e-01 1.187538e-01 6.907115e-02 2.669064e-02 -1.086964e-02 -3.813252e-02 -6.009041e-02 -7.162973e-02 
-1.583303e-01 -1.465891e-01 -1.241790e-01 -8.144771e-02 -3.085940e-02 3.913526e-02 1.152726e-01 2.079936e-01 2.891378e-01 3.638686e-01 3.898301e-01 3.546849e-01 2.297824e-01 -4.230926e-02 -3.643573e-01 -6.953363e-01 -8.509238e-01 -6.953363e-01 -3.643573e-01 -4.230926e-02 2.297824e-01 3.546849e-01 3.898301e-01 3.638686e-01 2.891378e-01 2.079936e-01 1.152726e-01 3.913526e-02 -3.085940e-02 -8.144771e-02 -1.241790e-01 -1.465891e-01 
-2.639501e-01 -2.463425e-01 -2.126350e-01 -1.518828e-01 -8.239529e-02 8.036168e-03 1.053645e-01 2.209500e-01 3.254938e-01 4.284502e-01 4.768494e-01 4.750953e-01 3.649601e-01 1.203026e-01 -2.755563e-01 -8.546090e-01 -1.140212e+00 -8.546090e-01 -2.755563e-01 1.203026e-01 3.649601e-01 4.750953e-01 4.768494e-01 4.284502e-01 3.254938e-01 2.209500e-01 1.053645e-01 8.036168e-03 -8.239529e-02 -1.518828e-01 -2.126350e-01 -2.463425e-01 
-3.777021e-01 -3.528401e-01 -3.071091e-01 -2.277369e-01 -1.443455e-01 -3.968665e-02 6.474781e-02 1.963601e-01 3.133730e-01 4.636991e-01 5.612752e-01 6.406903e-01 5.810321e-01 1.798520e-01 -3.043212e-01 -8.603380e-01 -1.151602e+00 -8.603380e-01 -3.043212e-01 1.798520e-01 5.810321e-01 6.406903e-01 5.612752e-01 4.636991e-01 3.133730e-01 1.963601e-01 6.474781e-02 -3.968665e-02 -1.443455e-01 -2.277369e-01 -3.071091e-01 -3.528401e-01 
-5.358080e-01 -5.019478e-01 -4.395954e-01 -3.396246e-01 -2.416945e-01 -1.339792e-01 -3.195675e-02 8.373945e-02 1.904589e-01 3.372601e-01 4.455818e-01 5.562265e-01 6.252961e-01 7.282429e-01 3.363578e-01 -7.299174e-01 -1.233088e+00 -7.299174e-01 3.363578e-01 7.282429e-01 6.252961e-01 5.562265e-01 4.455818e-01 3.372601e-01 1.904589e-01 8.373945e-02 -3.195675e-02 -1.339792e-01 -2.416945e-01 -3.396246e-01 -4.395954e-01 -5.019478e-01 
-7.002724e-01 -6.545610e-01 -5.707176e-01 -4.450624e-01 -3.340434e-01 -2.283673e-01 -1.443302e-01 -5.331537e-02 1.994952e-02 2.126141e-01 3.869355e-01 8.500768e-01 9.525667e-01 7.876159e-02 -3.950488e-01 2.398535e-01 8.696492e-01 2.398535e-01 -3.950488e-01 7.876159e-02 9.525667e-01 8.500768e-01 3.869355e-01 2.126141e-01 1.994952e-02 -5.331537e-02 -1.443302e-01 -2.283673e-01 -3.340434e-01 -4.450624e-01 -5.707176e-01 -6.545610e-01 
-9.182162e-01 -8.563152e-01 -7.427434e-01 -5.804133e-01 -4.477693e-01 -3.448419e-01 -2.748527e-01 -2.433999e-01 -2.032647e-01 -6.955795e-02 6.912915e-02 -2.355188e-02 -6.054882e-01 -1.547905e-02 1.546743e+00 2.133559e+00 2.234708e+00 2.133559e+00 1.546743e+00 -1.547905e-02 -6.054882e-01 -2.355188e-02 6.912915e-02 -6.955795e-02 -2.032647e-01 -2.433999e-01 -2.748527e-01 -3.448419e-01 -4.477693e-01 -5.804133e-01 -7.427434e-01 -8.563152e-01 
-1.119552e+00 -1.040043e+00 -8.910577e-01 -6.864819e-01 -5.322342e-01 -4.460348e-01 -4.157818e-01 -5.237270e-01 -5.458482e-01 -5.189291e-01 -5.629639e-01 8.687364e-02 1.215653e+00 1.916946e+00 1.729712e+00 1.211397e+00 1.124593e+00 1.211397e+00 1.729712e+00 1.916946e+00 1.215653e+00 8.687364e-02 -5.629639e-01 -5.189291e-01 -5.458482e-01 -5.237270e-01 -4.157818e-01 -4.460348e-01 -5.322342e-01 -6.864819e-01 -8.910577e-01 -1.040043e+00 
-1.357673e+00 -1.257564e+00 -1.071215e+00 -8.092582e-01 -6.258267e-01 -5.318665e-01 -5.311919e-01 -7.493637e-01 -4.971609e-01 -1.039755e-01 2.958464e-01 1.247890e+00 1.540990e+00 1.136282e+00 8.819616e-01 1.067856e+00 1.370865e+00 1.067856e+00 8.819616e-01 1.136282e+00 1.540990e+00 1.247890e+00 2.958464e-01 -1.039755e-01 -4.971609e-01 -7.493637e-01 -5.311919e-01 -5.318665e-01 -6.258267e-01 -8.092582e-01 -1.071215e+00 -1.257564e+00 
-1.518014e+00 -1.401425e+00 -1.176787e+00 -8.540042e-01 -6.407925e-01 -5.317311e-01 -6.207713e-01 -8.049864e-01 -6.199554e-02 4.530504e-01 5.496523e-01 1.183894e+00 1.010925e+00 7.895598e-01 9.916323e-01 1.165643e+00 1.414286e+00 1.165643e+00 9.916323e-01 7.895598e-01 1.010925e+00 1.183894e+00 5.496523e-01 4.530504e-01 -6.199554e-02 -8.049864e-01 -6.207713e-01 -5.317311e-01 -6.407925e-01 -8.540042e-01 -1.176787e+00 -1.401425e+00 
-1.674134e+00 -1.545677e+00 -1.296370e+00 -9.157235e-01 -6.987535e-01 -5.318324e-01 -7.571092e-01 -3.270660e-01 7.068858e-01 3.672667e-01 6.922319e-01 1.404789e+00 8.496960e-01 5.591654e-01 7.334926e-01 9.890780e-01 1.213987e+00 9.890780e-01 7.334926e-01 5.591654e-01 8.496960e-01 1.404789e+00 6.922319e-01 3.672667e-01 7.068858e-01 -3.270660e-01 -7.571092e-01 -5.318324e-01 -6.987535e-01 -9.157235e-01 -1.296370e+00 -1.545677e+00 
-1.672831e+00 -1.541783e+00 -1.264357e+00 -8.316518e-01 -5.471942e-01 -2.851357e-01 -3.698816e-01 4.216912e-01 6.485266e-01 -1.329384e-01 1.084580e+00 1.134105e+00 2.646805e-01 4.266501e-01 5.476644e-01 8.090626e-01 9.447939e-01 8.090626e-01 5.476644e-01 4.266501e-01 2.646805e-01 1.134105e+00 1.084580e+00 -1.329384e-01 6.485266e-01 4.216912e-01 -3.698816e-01 -2.851357e-01 -5.471942e-01 -8.316518e-01 -1.264357e+00 -1.541783e+00 
-1.605778e+00 -1.489809e+00 -1.207304e+00 -7.898135e-01 -4.482281e-01 -2.046945e-01 -2.798167e-02 6.704879e-01 1.473292e-01 -4.893085e-02 1.521832e+00 9.571823e-01 1.710659e-01 3.529060e-01 3.405778e-01 5.526719e-01 6.111946e-01 5.526719e-01 3.405778e-01 3.529060e-01 1.710659e-01 9.571823e-01 1.521832e+00 -4.893085e-02 1.473292e-01 6.704879e-01 -2.798167e-02 -2.046945e-01 -4.482281e-01 -7.898135e-01 -1.207304e+00 -1.489809e+00 
-1.298100e+00 -1.203305e+00 -9.494197e-01 -5.684042e-01 -1.868757e-01 7.815752e-02 3.550457e-01 6.424486e-01 -1.512650e-01 4.252042e-02 1.280315e+00 5.224390e-01 -1.857990e-02 1.692785e-01 1.531358e-01 3.168653e-01 3.333878e-01 3.168653e-01 1.531358e-01 1.692785e-01 -1.857990e-02 5.224390e-01 1.280315e+00 4.252042e-02 -1.512650e-01 6.424486e-01 3.550457e-01 7.815752e-02 -1.868757e-01 -5.684042e-01 -9.494197e-01 -1.203305e+00 
-7.978282e-01 -7.332771e-01 -5.490901e-01 -2.856605e-01 -2.698523e-02 1.055243e-01 2.024723e-01 2.166846e-01 -1.450589e-01 2.135046e-01 7.772149e-01 2.723530e-01 1.160582e-02 7.220123e-02 5.841982e-02 1.386698e-01 1.406710e-01 1.386698e-01 5.841982e-02 7.220123e-02 1.160582e-02 2.723530e-01 7.772149e-01 2.135046e-01 -1.450589e-01 2.166846e-01 2.024723e-01 1.055243e-01 -2.698523e-02 -2.856605e-01 -5.490901e-01 -7.332771e-01 
2.310785e-14 3.162811e-14 3.484792e-14 4.043900e-14 3.675799e-14 4.008733e-14 4.180705e-14 -1.062336e-14 -1.400884e-13 -1.006358e-13 -2.581665e-15 -3.239224e-15 -1.842721e-14 -5.842947e-15 -1.824604e-14 -4.002709e-15 -1.941897e-14 -1.367505e-14 -2.225897e-14 -3.487287e-14 -3.114581e-14 -3.564777e-14 5.686956e-14 1.183082e-13 9.655522e-14 -4.306921e-14 -8.778203e-14 -5.711782e-14 -2.807326e-15 2.532233e-14 2.231677e-14 2.242902e-14 
7.978282e-01 7.332771e-01 5.490901e-01 2.856605e-01 2.698523e-02 -1.055243e-01 -2.024723e-01 -2.166846e-01 1.450589e-01 -2.135046e-01 -7.772149e-01 -2.723530e-01 -1.160582e-02 -7.220123e-02 -5.841982e-02 -1.386698e-01 -1.406710e-01 -1.386698e-01 -5.841982e-02 -7.220123e-02 -1.160582e-02 -2.723530e-01 -7.772149e-01 -2.135046e-01 1.450589e-01 -2.166846e-01 -2.024723e-01 -1.055243e-01 2.698523e-02 2.856605e-01 5.490901e-01 7.332771e-01 
1.298100e+00 1.203305e+00 9.494197e-01 5.684042e-01 1.868757e-01 -7.815752e-02 -3.550457e-01 -6.424486e-01 1.512650e-01 -4.252042e-02 -1.280315e+00 -5.224390e-01 1.857990e-02 -1.692785e-01 -1.531358e-01 -3.168653e-01 -3.333878e-01 -3.168653e-01 -1.531358e-01 -1.692785e-01 1.857990e-02 -5.224390e-01 -1.280315e+00 -4.252042e-02 1.512650e-01 -6.424486e-01 -3.550457e-01 -7.815752e-02 1.868757e-01 5.684042e-01 9.494197e-01 1.203305e+00 
1.605778e+00 1.489809e+00 1.207304e+00 7.898135e-01 4.482281e-01 2.046945e-01 2.798167e-02 -6.704879e-01 -1.473292e-01 4.893085e-02 -1.521832e+00 -9.571823e-01 -1.710659e-01 -3.529060e-01 -3.405778e-01 -5.526719e-01 -6.111946e-01 -5.526719e-01 -3.405778e-01 -3.529060e-01 -1.710659e-01 -9.571823e-01 -1.521832e+00 4.893085e-02 -1.473292e-01 -6.704879e-01 2.798167e-02 2.046945e-01 4.482281e-01 7.898135e-01 1.207304e+00 1.489809e+00 
1.672831e+00 1.541783e+00 1.264357e+00 8.316518e-01 5.471942e-01 2.851357e-01 3.698816e-01 -4.216912e-01 -6.485266e-01 1.329384e-01 -1.084580e+00 -1.134105e+00 -2.646805e-01 -4.266501e-01 -5.476644e-01 -8.090626e-01 -9.447939e-01 -8.090626e-01 -5.476644e-01 -4.266501e-01 -2.646805e-01 -1.134105e+00 -1.084580e+00 1.329384e-01 -6.485266e-01 -4.216912e-01 3.698816e-01 2.851357e-01 5.471942e-01 8.316518e-01 1.264357e+00 1.541783e+00 
1.674134e+00 1.545677e+00 1.296370e+00 9.157235e-01 6.987535e-01 5.318324e-01 7.571092e-01 3.270660e-01 -7.068858e-01 -3.672667e-01 -6.922319e-01 -1.404789e+00 -8.496960e-01 -5.591654e-01 -7.334926e-01 -9.890780e-01 -1.213987e+00 -9.890780e-01 -7.334926e-01 -5.591654e-01 -8.496960e-01 -1.404789e+00 -6.922319e-01 -3.672667e-01 -7.068858e-01 3.270660e-01 7.571092e-01 5.318324e-01 6.987535e-01 9.157235e-01 1.296370e+00 1.545677e+00 
1.518014e+00 1.401425e+00 1.176787e+00 8.540042e-01 6.407925e-01 5.317311e-01 6.207713e-01 8.049864e-01 6.199554e-02 -4.530504e-01 -5.496523e-01 -1.183894e+00 -1.010925e+00 -7.895598e-01 -9.916323e-01 -1.165643e+00 -1.414286e+00 -1.165643e+00 -9.916323e-01 -7.895598e-01 -1.010925e+00 -1.183894e+00 -5.496523e-01 -4.530504e-01 6.199554e-02 8.049864e-01 6.207713e-01 5.317311e-01 6.407925e-01 8.540042e-01 1.176787e+00 1.401425e+00 
1.357673e+00 1.257564e+00 1.071215e+00 8.092582e-01 6.258267e-01 5.318665e-01 5.311919e-01 7.493637e-01 4.971609e-01 1.039755e-01 -2.958464e-01 -1.247890e+00 -1.540990e+00 -1.136282e+00 -8.819616e-01 -1.067856e+00 -1.370865e+00 -1.067856e+00 -8.819616e-01 -1.136282e+00 -1.540990e+00 -1.247890e+00 -2.958464e-01 1.039755e-01 4.971609e-01 7.493637e-01 5.311919e-01 5.318665e-01 6.258267e-01 8.092582e-01 1.071215e+00 1.257564e+00 
1.119552e+00 1.040043e+00 8.910577e-01 6.864819e-01 5.322342e-01 4.460348e-01 4.157818e-01 5.237270e-01 5.458482e-01 5.189291e-01 5.629639e-01 -8.687364e-02 -1.215653e+00 -1.916946e+00 -1.729712e+00 -1.211397e+00 -1.124593e+00 -1.211397e+00 -1.729712e+00 -1.916946e+00 -1.215653e+00 -8.687364e-02 5.629639e-01 5.189291e-01 5.458482e-01 5.237270e-01 4.157818e-01 4.460348e-01 5.322342e-01 6.864819e-01 8.910577e-01 1.040043e+00 
9.182162e-01 8.563152e-01 7.427434e-01 5.804133e-01 4.477693e-01 3.448419e-01 2.748527e-01 2.433999e-01 2.032647e-01 6.955795e-02 -6.912915e-02 2.355188e-02 6.054882e-01 1.547905e-02 -1.546743e+00 -2.133559e+00 -2.234708e+00 -2.133559e+00 -1.546743e+00 1.547905e-02 6.054882e-01 2.355188e-02 -6.912915e-02 6.955795e-02 2.032647e-01 2.433999e-01 2.748527e-01 3.448419e-01 4.477693e-01 5.804133e-01 7.427434e-01 8.563152e-01 
7.002724e-01 6.545610e-01 5.707176e-01 4.450624e-01 3.340434e-01 2.283673e-01 1.443302e-01 5.331537e-02 -1.994952e-02 -2.126141e-01 -3.869355e-01 -8.500768e-01 -9.525667e-01 -7.876159e-02 3.950488e-01 -2.398535e-01 -8.696492e-01 -2.398535e-01 3.950488e-01 -7.876159e-02 -9.525667e-01 -8.500768e-01 -3.869355e-01 -2.126141e-01 -1.994952e-02 5.331537e-02 1.443302e-01 2.283673e-01 3.340434e-01 4.450624e-01 5.707176e-01 6.545610e-01 
5.358080e-01 5.019478e-01 4.395954e-01 3.396246e-01 2.416945e-01 1.339792e-01 3.195675e-02 -8.373945e-02 -1.904589e-01 -3.372601e-01 -4.455818e-01 -5.562265e-01 -6.252961e-01 -7.282429e-01 -3.363578e-01 7.299174e-01 1.233088e+00 7.299174e-01 -3.363578e-01 -7.282429e-01 -6.252961e-01 -5.562265e-01 -4.455818e-01 -3.372601e-01 -1.904589e-01 -8.373945e-02 3.195675e-02 1.339792e-01 2.416945e-01 3.396246e-01 4.395954e-01 5.019478e-01 
3.777021e-01 3.528401e-01 3.071091e-01 2.277369e-01 1.443455e-01 3.968665e-02 -6.474781e-02 -1.963601e-01 -3.133730e-01 -4.636991e-01 -5.612752e-01 -6.406903e-01 -5.810321e-01 -1.798520e-01 3.043212e-01 8.603380e-01 1.151602e+00 8.603380e-01 3.043212e-01 -1.798520e-01 -5.810321e-01 -6.406903e-01 -5.612752e-01 -4.636991e-01 -3.133730e-01 -1.963601e-01 -6.474781e-02 3.968665e-02 1.443455e-01 2.277369e-01 3.071091e-01 3.528401e-01 
2.639501e-01 2.463425e-01 2.126350e-01 1.518828e-01 8.239529e-02 -8.036168e-03 -1.053645e-01 -2.209500e-01 -3.254938e-01 -4.284502e-01 -4.768494e-01 -4.750953e-01 -3.649601e-01 -1.203026e-01 2.755563e-01 8.546090e-01 1.140212e+00 8.546090e-01 2.755563e-01 -1.203026e-01 -3.649601e-01 -4.750953e-01 -4.768494e-01 -4.284502e-01 -3.254938e-01 -2.209500e-01 -1.053645e-01 -8.036168e-03 8.239529e-02 1.518828e-01 2.126350e-01 2.463425e-01 
1.583303e-01 1.465891e-01 1.241790e-01 8.144771e-02 3.085940e-02 -3.913526e-02 -1.152726e-01 -2.079936e-01 -2.891378e-01 -3.638686e-01 -3.898301e-01 -3.546849e-01 -2.297824e-01 4.230926e-02 3.643573e-01 6.953363e-01 8.509238e-01 6.953363e-01 3.643573e-01 4.230926e-02 -2.297824e-01 -3.546849e-01 -3.898301e-01 -3.638686e-01 -2.891378e-01 -2.079936e-01 -1.152726e-01 -3.913526e-02 3.085940e-02 8.144771e-02 1.241790e-01 1.465891e-01 
7.739027e-02 7.162973e-02 6.009041e-02 3.813252e-02 1.086964e-02 -2.669064e-02 -6.907115e-02 -1.187538e-01 -1.627663e-01 -1.993815e-01 -2.079951e-01 -1.827704e-01 -1.055306e-01 2.904184e-02 1.992495e-01 3.887923e-01 4.729170e-01 3.887923e-01 1.992495e-01 2.904184e-02 -1.055306e-01 -1.827704e-01 -2.079951e-01 -1.993815e-01 -1.627663e-01 -1.187538e-01 -6.907115e-02 -2.669064e-02 1.086964e-02 3.813252e-02 6.009041e-02 7.162973e-02 
