# vtk DataFile Version 2.0
Comment goes here
ASCII

DATASET STRUCTURED_POINTS
FIELD FieldData 1
TIME 1 1 double
0.22000000
DIMENSIONS    32   32   1

ORIGIN    0.000   0.000   0.000
SPACING   0.03125 0.03125   1.000

POINT_DATA   1024
SCALARS uY double
LOOKUP_TABLE default

-2.164709e-15 -1.377382e-15 -4.325595e-15 -2.848461e-15 -5.442553e-15 -2.691764e-15 -6.335015e-15 -1.478056e-15 -5.475756e-15 -1.600373e-15 -1.631224e-15 -7.537983e-15 6.338534e-15 -1.040351e-14 -5.850441e-16 -4.533818e-14 -1.578839e-15 2.400288e-14 2.481563e-15 6.279138e-15 -2.734124e-16 4.828610e-15 1.401226e-15 6.172940e-15 1.253091e-15 7.446345e-15 1.739936e-15 5.687865e-15 1.119937e-15 3.678627e-15 -1.577849e-16 1.332938e-15 
-1.477851e-01 -1.466172e-01 -1.421447e-01 -1.348144e-01 -1.225580e-01 -1.052112e-01 -8.012310e-02 -4.618568e-02 -1.322054e-03 5.300391e-02 1.226973e-01 1.978923e-01 2.764840e-01 2.999065e-01 2.391251e-01 -1.179743e-01 -4.365321e-01 -1.179743e-01 2.391251e-01 2.999065e-01 2.764840e-01 1.978923e-01 1.226973e-01 5.300391e-02 -1.322054e-03 -4.618568e-02 -8.012310e-02 -1.052112e-01 -1.225580e-01 -1.348144e-01 -1.421447e-01 -1.466172e-01 
-2.983881e-01 -2.961680e-01 -2.876129e-01 -2.739124e-01 -2.501878e-01 -2.175017e-01 -1.683981e-01 -1.030293e-01 -1.532092e-02 8.931110e-02 2.247405e-01 3.795455e-01 5.376009e-01 6.235896e-01 5.665319e-01 -2.018348e-01 -9.163188e-01 -2.018348e-01 5.665319e-01 6.235896e-01 5.376009e-01 3.795455e-01 2.247405e-01 8.931110e-02 -1.532092e-02 -1.030293e-01 -1.683981e-01 -2.175017e-01 -2.501878e-01 -2.739124e-01 -2.876129e-01 -2.961680e-01 
-4.547995e-01 -4.517454e-01 -4.404758e-01 -4.221041e-01 -3.900746e-01 -3.441938e-01 -2.749392e-01 -1.771102e-01 -4.889412e-02 1.088712e-01 3.109212e-01 5.766799e-01 8.817786e-01 1.093275e+00 8.760243e-01 -3.836723e-01 -1.373881e+00 -3.836723e-01 8.760243e-01 1.093275e+00 8.817786e-01 5.766799e-01 3.109212e-01 1.088712e-01 -4.889412e-02 -1.771102e-01 -2.749392e-01 -3.441938e-01 -3.900746e-01 -4.221041e-01 -4.404758e-01 -4.517454e-01 
-6.186075e-01 -6.147359e-01 -6.018901e-01 -5.812203e-01 -5.429092e-01 -4.893613e-01 -4.010971e-01 -2.787322e-01 -1.143438e-01 7.659221e-02 3.185456e-01 6.331981e-01 9.690222e-01 1.494580e+00 1.240610e+00 -2.403206e-01 -1.117268e+00 -2.403206e-01 1.240610e+00 1.494580e+00 9.690222e-01 6.331981e-01 3.185456e-01 7.659221e-02 -1.143438e-01 -2.787322e-01 -4.010971e-01 -4.893613e-01 -5.429092e-01 -5.812203e-01 -6.018901e-01 -6.147359e-01 
-7.907206e-01 -7.864666e-01 -7.742164e-01 -7.546076e-01 -7.162471e-01 -6.601012e-01 -5.595570e-01 -4.198330e-01 -2.308699e-01 -1.550125e-02 2.449029e-01 5.984462e-01 1.298832e+00 1.804428e+00 9.732316e-01 2.336358e-01 3.185696e-01 2.336358e-01 9.732316e-01 1.804428e+00 1.298832e+00 5.984462e-01 2.449029e-01 -1.550125e-02 -2.308699e-01 -4.198330e-01 -5.595570e-01 -6.601012e-01 -7.162471e-01 -7.546076e-01 -7.742164e-01 -7.864666e-01 
-9.719257e-01 -9.658258e-01 -9.551761e-01 -9.375220e-01 -9.010560e-01 -8.499001e-01 -7.308469e-01 -6.159550e-01 -3.930554e-01 -1.522209e-01 2.991807e-01 8.805570e-01 1.090491e+00 1.061617e+00 1.053987e+00 1.579250e+00 2.044876e+00 1.579250e+00 1.053987e+00 1.061617e+00 1.090491e+00 8.805570e-01 2.991807e-01 -1.522209e-01 -3.930554e-01 -6.159550e-01 -7.308469e-01 -8.499001e-01 -9.010560e-01 -9.375220e-01 -9.551761e-01 -9.658258e-01 
-1.157283e+00 -1.149072e+00 -1.139499e+00 -1.126571e+00 -1.101093e+00 -1.069642e+00 -9.650936e-01 -9.082601e-01 -6.150420e-01 -6.361279e-02 3.661528e-01 4.566681e-01 6.817691e-01 1.498871e+00 2.039291e+00 2.361619e+00 2.624312e+00 2.361619e+00 2.039291e+00 1.498871e+00 6.817691e-01 4.566681e-01 3.661528e-01 -6.361279e-02 -6.150420e-01 -9.082601e-01 -9.650936e-01 -1.069642e+00 -1.101093e+00 -1.126571e+00 -1.139499e+00 -1.149072e+00 
-1.350336e+00 -1.333606e+00 -1.322393e+00 -1.308707e+00 -1.309249e+00 -1.320736e+00 -1.308954e+00 -1.190645e+00 -5.244984e-01 9.982253e-02 5.347592e-01 1.133230e+00 1.645323e+00 2.049746e+00 1.908587e+00 1.870895e+00 2.103185e+00 1.870895e+00 1.908587e+00 2.049746e+00 1.645323e+00 1.133230e+00 5.347592e-01 9.982253e-02 -5.244984e-01 -1.190645e+00 -1.308954e+00 -1.320736e+00 -1.309249e+00 -1.308707e+00 -1.322393e+00 -1.333606e+00 
-1.535178e+00 -1.506148e+00 -1.483542e+00 -1.473930e+00 -1.531262e+00 -1.661163e+00 -1.726092e+00 -1.152652e+00 6.259475e-02 8.083298e-01 1.218396e+00 1.603514e+00 1.786306e+00 1.825576e+00 1.543959e+00 1.556474e+00 1.794458e+00 1.556474e+00 1.543959e+00 1.825576e+00 1.786306e+00 1.603514e+00 1.218396e+00 8.083298e-01 6.259475e-02 -1.152652e+00 -1.726092e+00 -1.661163e+00 -1.531262e+00 -1.473930e+00 -1.483542e+00 -1.506148e+00 
-1.720320e+00 -1.665290e+00 -1.619935e+00 -1.606890e+00 -1.750663e+00 -2.016820e+00 -1.727715e+00 -4.110669e-01 7.779308e-01 1.091807e+00 1.324061e+00 1.219916e+00 1.166054e+00 1.467123e+00 1.606404e+00 1.921221e+00 2.168046e+00 1.921221e+00 1.606404e+00 1.467123e+00 1.166054e+00 1.219916e+00 1.324061e+00 1.091807e+00 7.779308e-01 -4.110669e-01 -1.727715e+00 -2.016820e+00 -1.750663e+00 -1.606890e+00 -1.619935e+00 -1.665290e+00 
-1.855029e+00 -1.766753e+00 -1.676052e+00 -1.647669e+00 -1.890125e+00 -2.089601e+00 -1.037678e+00 4.214261e-01 9.999958e-01 1.389654e+00 1.426731e+00 8.074588e-01 7.657835e-01 1.186276e+00 1.392681e+00 1.699208e+00 1.892360e+00 1.699208e+00 1.392681e+00 1.186276e+00 7.657835e-01 8.074588e-01 1.426731e+00 1.389654e+00 9.999958e-01 4.214261e-01 -1.037678e+00 -2.089601e+00 -1.890125e+00 -1.647669e+00 -1.676052e+00 -1.766753e+00 
-1.924126e+00 -1.791136e+00 -1.648450e+00 -1.563354e+00 -1.864620e+00 -1.624126e+00 -7.114075e-02 9.888321e-01 1.433619e+00 1.756835e+00 1.121980e+00 2.187184e-01 2.280356e-01 6.498261e-01 9.831365e-01 1.364404e+00 1.559006e+00 1.364404e+00 9.831365e-01 6.498261e-01 2.280356e-01 2.187184e-01 1.121980e+00 1.756835e+00 1.433619e+00 9.888321e-01 -7.114075e-02 -1.624126e+00 -1.864620e+00 -1.563354e+00 -1.648450e+00 -1.791136e+00 
-1.802623e+00 -1.637916e+00 -1.419670e+00 -1.262415e+00 -1.402376e+00 -7.924733e-01 4.902087e-01 1.045817e+00 1.623995e+00 1.598850e+00 5.552834e-01 -1.145845e-01 -1.016613e-02 3.033748e-01 5.633401e-01 8.593468e-01 1.001392e+00 8.593468e-01 5.633401e-01 3.033748e-01 -1.016613e-02 -1.145845e-01 5.552834e-01 1.598850e+00 1.623995e+00 1.045817e+00 4.902087e-01 -7.924733e-01 -1.402376e+00 -1.262415e+00 -1.419670e+00 -1.637916e+00 
-1.456872e+00 -1.294911e+00 -1.023116e+00 -8.347528e-01 -7.731339e-01 -3.466303e-01 2.024355e-01 7.893626e-01 1.550401e+00 1.281700e+00 3.786562e-01 -1.195281e-01 -1.324281e-01 6.644864e-02 2.503818e-01 4.583112e-01 5.504802e-01 4.583112e-01 2.503818e-01 6.644864e-02 -1.324281e-01 -1.195281e-01 3.786562e-01 1.281700e+00 1.550401e+00 7.893626e-01 2.024355e-01 -3.466303e-01 -7.731339e-01 -8.347528e-01 -1.023116e+00 -1.294911e+00 
-8.183133e-01 -7.015748e-01 -4.939985e-01 -3.663572e-01 -2.911582e-01 -1.279297e-01 -1.655607e-02 4.058320e-01 9.613787e-01 7.099292e-01 1.770933e-01 -7.724826e-02 -1.046978e-01 -1.184456e-02 7.226076e-02 1.691934e-01 2.096690e-01 1.691934e-01 7.226076e-02 -1.184456e-02 -1.046978e-01 -7.724826e-02 1.770933e-01 7.099292e-01 9.613787e-01 4.058320e-01 -1.655607e-02 -1.279297e-01 -2.911582e-01 -3.663572e-01 -4.939985e-01 -7.015748e-01 
5.875232e-15 7.441907e-15 8.744944e-15 1.253603e-14 1.238100e-14 -4.218586e-16 -1.621545e-16 -2.713222e-15 -4.881636e-15 -4.102820e-15 -6.950639e-15 1.180143e-14 8.906034e-16 6.434664e-16 -1.645965e-15 -2.858709e-15 -7.151363e-16 -4.002310e-15 3.378081e-16 -1.751230e-15 -3.323341e-16 1.325518e-15 -1.137951e-14 -3.172267e-16 -2.477732e-14 -5.302056e-14 8.737239e-15 7.059900e-15 -5.551581e-15 5.021334e-15 5.793805e-15 9.511988e-15 
8.183133e-01 7.015748e-01 4.939985e-01 3.663572e-01 2.911582e-01 1.279297e-01 1.655607e-02 -4.058320e-01 -9.613787e-01 -7.099292e-01 -1.770933e-01 7.724826e-02 1.046978e-01 1.184456e-02 -7.226076e-02 -1.691934e-01 -2.096690e-01 -1.691934e-01 -7.226076e-02 1.184456e-02 1.046978e-01 7.724826e-02 -1.770933e-01 -7.099292e-01 -9.613787e-01 -4.058320e-01 1.655607e-02 1.279297e-01 2.911582e-01 3.663572e-01 4.939985e-01 7.015748e-01 
1.456872e+00 1.294911e+00 1.023116e+00 8.347528e-01 7.731339e-01 3.466303e-01 -2.024355e-01 -7.893626e-01 -1.550401e+00 -1.281700e+00 -3.786562e-01 1.195281e-01 1.324281e-01 -6.644864e-02 -2.503818e-01 -4.583112e-01 -5.504802e-01 -4.583112e-01 -2.503818e-01 -6.644864e-02 1.324281e-01 1.195281e-01 -3.786562e-01 -1.281700e+00 -1.550401e+00 -7.893626e-01 -2.024355e-01 3.466303e-01 7.731339e-01 8.347528e-01 1.023116e+00 1.294911e+00 
1.802623e+00 1.637916e+00 1.419670e+00 1.262415e+00 1.402376e+00 7.924733e-01 -4.902087e-01 -1.045817e+00 -1.623995e+00 -1.598850e+00 -5.552834e-01 1.145845e-01 1.016613e-02 -3.033748e-01 -5.633401e-01 -8.593468e-01 -1.001392e+00 -8.593468e-01 -5.633401e-01 -3.033748e-01 1.016613e-02 1.145845e-01 -5.552834e-01 -1.598850e+00 -1.623995e+00 -1.045817e+00 -4.902087e-01 7.924733e-01 1.402376e+00 1.262415e+00 1.419670e+00 1.637916e+00 
1.924126e+00 1.791136e+00 1.648450e+00 1.563354e+00 1.864620e+00 1.624126e+00 7.114075e-02 -9.888321e-01 -1.433619e+00 -1.756835e+00 -1.121980e+00 -2.187184e-01 -2.280356e-01 -6.498261e-01 -9.831365e-01 -1.364404e+00 -1.559006e+00 -1.364404e+00 -9.831365e-01 -6.498261e-01 -2.280356e-01 -2.187184e-01 -1.121980e+00 -1.756835e+00 -1.433619e+00 -9.888321e-01 7.114075e-02 1.624126e+00 1.864620e+00 1.563354e+00 1.648450e+00 1.791136e+00 
1.855029e+00 1.766753e+00 1.676052e+00 1.647669e+00 1.890125e+00 2.089601e+00 1.037678e+00 -4.214261e-01 -9.999958e-01 -1.389654e+00 -1.426731e+00 -8.074588e-01 -7.657835e-01 -1.186276e+00 -1.392681e+00 -1.699208e+00 -1.892360e+00 -1.699208e+00 -1.392681e+00 -1.186276e+00 -7.657835e-01 -8.074588e-01 -1.426731e+00 -1.389654e+00 -9.999958e-01 -4.214261e-01 1.037678e+00 2.089601e+00 1.890125e+00 1.647669e+00 1.676052e+00 1.766753e+00 
1.720320e+00 1.665290e+00 1.619935e+00 1.606890e+00 1.750663e+00 2.016820e+00 1.727715e+00 4.110669e-01 -7.779308e-01 -1.091807e+00 -1.324061e+00 -1.219916e+00 -1.166054e+00 -1.467123e+00 -1.606404e+00 -1.921221e+00 -2.168046e+00 -1.921221e+00 -1.606404e+00 -1.467123e+00 -1.166054e+00 -1.219916e+00 -1.324061e+00 -1.091807e+00 -7.779308e-01 4.110669e-01 1.727715e+00 2.016820e+00 1.750663e+00 1.606890e+00 1.619935e+00 1.665290e+00 
1.535178e+00 1.506148e+00 1.483542e+00 1.473930e+00 1.531262e+00 1.661163e+00 1.726092e+00 1.152652e+00 -6.259475e-02 -8.083298e-01 -1.218396e+00 -1.603514e+00 -1.786306e+00 -1.825576e+00 -1.543959e+00 -1.556474e+00 -1.794458e+00 -1.556474e+00 -1.543959e+00 -1.825576e+00 -1.786306e+00 -1.603514e+00 -1.218396e+00 -8.083298e-01 -6.259475e-02 1.152652e+00 1.726092e+00 1.661163e+00 1.531262e+00 1.473930e+00 1.483542e+00 1.506148e+00 
1.350336e+00 1.333606e+00 1.322393e+00 1.308707e+00 1.309249e+00 1.320736e+00 1.308954e+00 1.190645e+00 5.244984e-01 -9.982253e-02 -5.347592e-01 -1.133230e+00 -1.645323e+00 -2.049746e+00 -1.908587e+00 -1.870895e+00 -2.103185e+00 -1.870895e+00 -1.908587e+00 -2.049746e+00 -1.645323e+00 -1.133230e+00 -5.347592e-01 -9.982253e-02 5.244984e-01 1.190645e+00 1.308954e+00 1.320736e+00 1.309249e+00 1.308707e+00 1.322393e+00 1.333606e+00 
1.157283e+00 1.149072e+00 1.139499e+00 1.126571e+00 1.101093e+00 1.069642e+00 9.650936e-01 9.082601e-01 6.150420e-01 6.361279e-02 -3.661528e-01 -4.566681e-01 -6.817691e-01 -1.498871e+00 -2.039291e+00 -2.361619e+00 -2.624312e+00 -2.361619e+00 -2.039291e+00 -1.498871e+00 -6.817691e-01 -4.566681e-01 -3.661528e-01 6.361279e-02 6.150420e-01 9.082601e-01 9.650936e-01 1.069642e+00 1.101093e+00 1.126571e+00 1.139499e+00 1.149072e+00 
9.719257e-01 9.658258e-01 9.551761e-01 9.375220e-01 9.010560e-01 8.499001e-01 7.308469e-01 6.159550e-01 3.930554e-01 1.522209e-01 -2.991807e-01 -8.805570e-01 -1.090491e+00 -1.061617e+00 -1.053987e+00 -1.579250e+00 -2.044876e+00 -1.579250e+00 -1.053987e+00 -1.061617e+00 -1.090491e+00 -8.805570e-01 -2.991807e-01 1.522209e-01 3.930554e-01 6.159550e-01 7.308469e-01 8.499001e-01 9.010560e-01 9.375220e-01 9.551761e-01 9.658258e-01 
7.907206e-01 7.864666e-01 7.742164e-01 7.546076e-01 7.162471e-01 6.601012e-01 5.595570e-01 4.198330e-01 2.308699e-01 1.550125e-02 -2.449029e-01 -5.984462e-01 -1.298832e+00 -1.804428e+00 -9.732316e-01 -2.336358e-01 -3.185696e-01 -2.336358e-01 -9.732316e-01 -1.804428e+00 -1.298832e+00 -5.984462e-01 -2.449029e-01 1.550125e-02 2.308699e-01 4.198330e-01 5.595570e-01 6.601012e-01 7.162471e-01 7.546076e-01 7.742164e-01 7.864666e-01 
6.186075e-01 6.147359e-01 6.018901e-01 5.812203e-01 5.429092e-01 4.893613e-01 4.010971e-01 2.787322e-01 1.143438e-01 -7.659221e-02 -3.185456e-01 -6.331981e-01 -9.690222e-01 -1.494580e+00 -1.240610e+00 2.403206e-01 1.117268e+00 2.403206e-01 -1.240610e+00 -1.494580e+00 -9.690222e-01 -6.331981e-01 -3.185456e-01 -7.659221e-02 1.143438e-01 2.787322e-01 4.010971e-01 4.893613e-01 5.429092e-01 5.812203e-01 6.018901e-01 6.147359e-01 
4.547995e-01 4.517454e-01 4.404758e-01 4.221041e-01 3.900746e-01 3.441938e-01 2.749392e-01 1.771102e-01 4.889412e-02 -1.088712e-01 -3.109212e-01 -5.766799e-01 -8.817786e-01 -1.093275e+00 -8.760243e-01 3.836723e-01 1.373881e+00 3.836723e-01 -8.760243e-01 -1.093275e+00 -8.817786e-01 -5.766799e-01 -3.109212e-01 -1.088712e-01 4.889412e-02 1.771102e-01 2.749392e-01 3.441938e-01 3.900746e-01 4.221041e-01 4.404758e-01 4.517454e-01 
2.983881e-01 2.961680e-01 2.876129e-01 2.739124e-01 2.501878e-01 2.175017e-01 1.683981e-01 1.030293e-01 1.532092e-02 -8.931110e-02 -2.247405e-01 -3.795455e-01 -5.376009e-01 -6.235896e-01 -5.665319e-01 2.018348e-01 9.163188e-01 2.018348e-01 -5.665319e-01 -6.235896e-01 -5.376009e-01 -3.795455e-01 -2.247405e-01 -8.931110e-02 1.532092e-02 1.030293e-01 1.683981e-01 2.175017e-01 2.501878e-01 2.739124e-01 2.876129e-01 2.961680e-01 
1.477851e-01 1.466172e-01 1.421447e-01 1.348144e-01 1.225580e-01 1.052112e-01 8.012310e-02 4.618568e-02 1.322054e-03 -5.300391e-02 -1.226973e-01 -1.978923e-01 -2.764840e-01 -2.999065e-01 -2.391251e-01 1.179743e-01 4.365321e-01 1.179743e-01 -2.391251e-01 -2.999065e-01 -2.764840e-01 -1.978923e-01 -1.226973e-01 -5.300391e-02 1.322054e-03 4.618568e-02 8.012310e-02 1.052112e-01 1.225580e-01 1.348144e-01 1.421447e-01 1.466172e-01 
