# vtk DataFile Version 2.0
Comment goes here
ASCII

DATASET STRUCTURED_POINTS
FIELD FieldData 1
TIME 1 1 double
0.08000000
DIMENSIONS    32   32   1

ORIGIN    0.000   0.000   0.000
SPACING   0.03125 0.03125   1.000

POINT_DATA   1024
SCALARS uY double
LOOKUP_TABLE default

-2.572260e-15 1.807764e-15 -5.238692e-15 -6.890396e-16 -6.302880e-15 -1.556358e-15 -6.933780e-15 -4.384757e-15 -7.759513e-15 -5.754962e-15 -5.937146e-15 -5.873181e-15 -3.633672e-15 -5.253813e-15 -1.469441e-15 -4.270206e-15 2.444528e-15 -1.807664e-15 5.826744e-15 1.151865e-15 8.793864e-15 2.042106e-15 9.088470e-15 3.329036e-15 8.496593e-15 6.085869e-15 4.422240e-15 5.779453e-15 1.814826e-15 5.454964e-15 -6.306942e-16 4.021032e-15 
-4.022471e-02 -3.951200e-02 -3.735409e-02 -3.456143e-02 -3.024866e-02 -2.640050e-02 -2.137408e-02 -1.601094e-02 -7.050143e-03 4.503062e-03 1.908392e-02 3.268968e-02 4.413701e-02 4.735371e-02 6.919642e-02 3.193841e-02 -3.255606e-02 3.193841e-02 6.919642e-02 4.735371e-02 4.413701e-02 3.268968e-02 1.908392e-02 4.503062e-03 -7.050143e-03 -1.601094e-02 -2.137408e-02 -2.640050e-02 -3.024866e-02 -3.456143e-02 -3.735409e-02 -3.951200e-02 
-8.119021e-02 -7.881855e-02 -7.464484e-02 -6.730632e-02 -5.822896e-02 -4.857544e-02 -3.847101e-02 -2.837693e-02 -1.090151e-02 5.386361e-03 2.820135e-02 5.940461e-02 8.941959e-02 1.356016e-01 2.089054e-01 2.268463e-02 -2.073698e-01 2.268463e-02 2.089054e-01 1.356016e-01 8.941959e-02 5.940461e-02 2.820135e-02 5.386361e-03 -1.090151e-02 -2.837693e-02 -3.847101e-02 -4.857544e-02 -5.822896e-02 -6.730632e-02 -7.464484e-02 -7.881855e-02 
-1.266580e-01 -1.236496e-01 -1.165754e-01 -1.070183e-01 -9.264388e-02 -8.191702e-02 -6.961745e-02 -5.796328e-02 -3.268143e-02 3.605630e-03 5.458405e-02 1.049508e-01 1.600252e-01 3.156651e-01 3.607638e-01 -5.367339e-02 -4.010517e-01 -5.367339e-02 3.607638e-01 3.156651e-01 1.600252e-01 1.049508e-01 5.458405e-02 3.605630e-03 -3.268143e-02 -5.796328e-02 -6.961745e-02 -8.191702e-02 -9.264388e-02 -1.070183e-01 -1.165754e-01 -1.236496e-01 
-1.759241e-01 -1.694682e-01 -1.597535e-01 -1.419911e-01 -1.202400e-01 -1.003398e-01 -8.435890e-02 -6.804496e-02 -3.415852e-02 -1.420940e-02 1.738871e-02 8.366971e-02 2.024833e-01 4.019850e-01 3.674919e-01 8.398601e-03 -2.017820e-01 8.398601e-03 3.674919e-01 4.019850e-01 2.024833e-01 8.366971e-02 1.738871e-02 -1.420940e-02 -3.415852e-02 -6.804496e-02 -8.435890e-02 -1.003398e-01 -1.202400e-01 -1.419911e-01 -1.597535e-01 -1.694682e-01 
-2.339349e-01 -2.250252e-01 -2.106700e-01 -1.879683e-01 -1.551104e-01 -1.406335e-01 -1.260590e-01 -1.275270e-01 -1.160084e-01 -5.820382e-02 3.289640e-02 1.418981e-01 3.133327e-01 4.562315e-01 3.221825e-01 1.412284e-01 1.128072e-01 1.412284e-01 3.221825e-01 4.562315e-01 3.133327e-01 1.418981e-01 3.289640e-02 -5.820382e-02 -1.160084e-01 -1.275270e-01 -1.260590e-01 -1.406335e-01 -1.551104e-01 -1.879683e-01 -2.106700e-01 -2.250252e-01 
-3.037660e-01 -2.884584e-01 -2.695006e-01 -2.305465e-01 -1.806271e-01 -1.509834e-01 -1.235355e-01 -1.074933e-01 -8.629515e-02 -1.044076e-01 -6.935593e-02 1.355195e-01 4.082754e-01 4.319114e-01 2.544997e-01 3.144583e-01 4.368443e-01 3.144583e-01 2.544997e-01 4.319114e-01 4.082754e-01 1.355195e-01 -6.935593e-02 -1.044076e-01 -8.629515e-02 -1.074933e-01 -1.235355e-01 -1.509834e-01 -1.806271e-01 -2.305465e-01 -2.695006e-01 -2.884584e-01 
-3.886965e-01 -3.650614e-01 -3.386185e-01 -2.795038e-01 -1.941583e-01 -1.638299e-01 -1.135740e-01 -2.021972e-01 -3.151910e-01 -1.039984e-01 3.153632e-01 6.504452e-01 6.071068e-01 2.219237e-01 2.845639e-02 2.422218e-01 4.099277e-01 2.422218e-01 2.845639e-02 2.219237e-01 6.071068e-01 6.504452e-01 3.153632e-01 -1.039984e-01 -3.151910e-01 -2.021972e-01 -1.135740e-01 -1.638299e-01 -1.941583e-01 -2.795038e-01 -3.386185e-01 -3.650614e-01 
-5.011748e-01 -4.674640e-01 -4.346729e-01 -3.407471e-01 -2.042010e-01 -1.101828e-01 -5.869307e-02 7.271848e-02 3.400477e-01 4.165922e-01 3.920173e-01 2.940450e-01 6.486089e-02 -1.079818e-01 -7.568615e-02 2.430200e-01 4.538290e-01 2.430200e-01 -7.568615e-02 -1.079818e-01 6.486089e-02 2.940450e-01 3.920173e-01 4.165922e-01 3.400477e-01 7.271848e-02 -5.869307e-02 -1.101828e-01 -2.042010e-01 -3.407471e-01 -4.346729e-01 -4.674640e-01 
-6.446440e-01 -5.933490e-01 -5.605329e-01 -3.923675e-01 -1.107029e-01 1.730217e-01 4.720516e-01 1.929412e-01 -1.926698e-01 2.227466e-01 7.045573e-01 6.754777e-01 4.763387e-01 1.315961e-02 -3.891532e-01 -2.916303e-01 -1.551336e-01 -2.916303e-01 -3.891532e-01 1.315961e-02 4.763387e-01 6.754777e-01 7.045573e-01 2.227466e-01 -1.926698e-01 1.929412e-01 4.720516e-01 1.730217e-01 -1.107029e-01 -3.923675e-01 -5.605329e-01 -5.933490e-01 
-8.324475e-01 -7.746087e-01 -7.541213e-01 -4.728704e-01 1.316598e-01 5.078371e-01 3.565839e-01 5.264435e-01 1.269770e+00 1.581908e+00 1.297262e+00 7.365848e-01 3.659348e-02 -6.917973e-01 -1.112146e+00 -1.413497e+00 -1.618758e+00 -1.413497e+00 -1.112146e+00 -6.917973e-01 3.659348e-02 7.365848e-01 1.297262e+00 1.581908e+00 1.269770e+00 5.264435e-01 3.565839e-01 5.078371e-01 1.316598e-01 -4.728704e-01 -7.541213e-01 -7.746087e-01 
-1.065714e+00 -1.011476e+00 -1.055165e+00 -4.456215e-01 5.982274e-01 1.100629e+00 1.505837e+00 2.070022e+00 1.906482e+00 1.100768e+00 3.030562e-01 -5.402524e-01 -9.757849e-01 -9.847020e-01 -9.863038e-01 -1.289366e+00 -1.526984e+00 -1.289366e+00 -9.863038e-01 -9.847020e-01 -9.757849e-01 -5.402524e-01 3.030562e-01 1.100768e+00 1.906482e+00 2.070022e+00 1.505837e+00 1.100629e+00 5.982274e-01 -4.456215e-01 -1.055165e+00 -1.011476e+00 
-1.304717e+00 -1.306231e+00 -1.351010e+00 3.324268e-02 1.724901e+00 1.663170e+00 1.499547e+00 1.503341e+00 9.397490e-01 4.793896e-01 -1.962908e-01 -1.055948e+00 -9.416924e-01 -5.176899e-01 -5.863877e-01 -7.992748e-01 -8.729166e-01 -7.992748e-01 -5.863877e-01 -5.176899e-01 -9.416924e-01 -1.055948e+00 -1.962908e-01 4.793896e-01 9.397490e-01 1.503341e+00 1.499547e+00 1.663170e+00 1.724901e+00 3.324268e-02 -1.351010e+00 -1.306231e+00 
-1.422364e+00 -1.552489e+00 -1.193448e+00 1.007048e+00 1.887621e+00 8.413814e-01 1.031808e+00 1.062212e+00 1.017885e+00 9.965504e-01 -2.302845e-01 -1.213276e+00 -9.011981e-01 -4.733211e-01 -5.693196e-01 -6.681065e-01 -6.637637e-01 -6.681065e-01 -5.693196e-01 -4.733211e-01 -9.011981e-01 -1.213276e+00 -2.302845e-01 9.965504e-01 1.017885e+00 1.062212e+00 1.031808e+00 8.413814e-01 1.887621e+00 1.007048e+00 -1.193448e+00 -1.552489e+00 
-1.208170e+00 -1.435511e+00 -5.039924e-01 1.369689e+00 9.639430e-01 4.597525e-01 1.086541e+00 8.421151e-01 8.664341e-01 7.378204e-01 -3.995188e-01 -1.117268e+00 -7.919753e-01 -4.273209e-01 -4.126830e-01 -4.292765e-01 -4.093265e-01 -4.292765e-01 -4.126830e-01 -4.273209e-01 -7.919753e-01 -1.117268e+00 -3.995188e-01 7.378204e-01 8.664341e-01 8.421151e-01 1.086541e+00 4.597525e-01 9.639430e-01 1.369689e+00 -5.039924e-01 -1.435511e+00 
-6.424545e-01 -7.884354e-01 -1.944360e-02 8.252883e-01 2.174806e-01 4.045848e-01 6.355000e-01 2.005550e-01 5.329748e-01 5.434464e-01 -1.671940e-01 -6.335179e-01 -4.978984e-01 -3.030670e-01 -2.629137e-01 -2.488543e-01 -2.345568e-01 -2.488543e-01 -2.629137e-01 -3.030670e-01 -4.978984e-01 -6.335179e-01 -1.671940e-01 5.434464e-01 5.329748e-01 2.005550e-01 6.355000e-01 4.045848e-01 2.174806e-01 8.252883e-01 -1.944360e-02 -7.884354e-01 
-3.218703e-14 -4.134302e-14 2.610594e-14 9.530490e-14 9.549406e-14 2.491365e-14 -3.208050e-15 -3.361650e-14 3.269062e-15 9.495509e-15 -1.316172e-14 -2.691862e-15 -1.360420e-14 8.104300e-15 -2.707630e-15 -3.320560e-16 5.944859e-15 -6.041035e-15 6.387028e-15 -4.059957e-15 1.839464e-15 -5.583576e-15 -4.258545e-15 -1.196232e-15 -1.062389e-14 9.348768e-15 -4.480266e-15 3.646244e-14 -5.814863e-16 -5.413724e-14 -5.381842e-14 -3.454599e-14 
6.424545e-01 7.884354e-01 1.944360e-02 -8.252883e-01 -2.174806e-01 -4.045848e-01 -6.355000e-01 -2.005550e-01 -5.329748e-01 -5.434464e-01 1.671940e-01 6.335179e-01 4.978984e-01 3.030670e-01 2.629137e-01 2.488543e-01 2.345568e-01 2.488543e-01 2.629137e-01 3.030670e-01 4.978984e-01 6.335179e-01 1.671940e-01 -5.434464e-01 -5.329748e-01 -2.005550e-01 -6.355000e-01 -4.045848e-01 -2.174806e-01 -8.252883e-01 1.944360e-02 7.884354e-01 
1.208170e+00 1.435511e+00 5.039924e-01 -1.369689e+00 -9.639430e-01 -4.597525e-01 -1.086541e+00 -8.421151e-01 -8.664341e-01 -7.378204e-01 3.995188e-01 1.117268e+00 7.919753e-01 4.273209e-01 4.126830e-01 4.292765e-01 4.093265e-01 4.292765e-01 4.126830e-01 4.273209e-01 7.919753e-01 1.117268e+00 3.995188e-01 -7.378204e-01 -8.664341e-01 -8.421151e-01 -1.086541e+00 -4.597525e-01 -9.639430e-01 -1.369689e+00 5.039924e-01 1.435511e+00 
1.422364e+00 1.552489e+00 1.193448e+00 -1.007048e+00 -1.887621e+00 -8.413814e-01 -1.031808e+00 -1.062212e+00 -1.017885e+00 -9.965504e-01 2.302845e-01 1.213276e+00 9.011981e-01 4.733211e-01 5.693196e-01 6.681065e-01 6.637637e-01 6.681065e-01 5.693196e-01 4.733211e-01 9.011981e-01 1.213276e+00 2.302845e-01 -9.965504e-01 -1.017885e+00 -1.062212e+00 -1.031808e+00 -8.413814e-01 -1.887621e+00 -1.007048e+00 1.193448e+00 1.552489e+00 
1.304717e+00 1.306231e+00 1.351010e+00 -3.324268e-02 -1.724901e+00 -1.663170e+00 -1.499547e+00 -1.503341e+00 -9.397490e-01 -4.793896e-01 1.962908e-01 1.055948e+00 9.416924e-01 5.176899e-01 5.863877e-01 7.992748e-01 8.729166e-01 7.992748e-01 5.863877e-01 5.176899e-01 9.416924e-01 1.055948e+00 1.962908e-01 -4.793896e-01 -9.397490e-01 -1.503341e+00 -1.499547e+00 -1.663170e+00 -1.724901e+00 -3.324268e-02 1.351010e+00 1.306231e+00 
1.065714e+00 1.011476e+00 1.055165e+00 4.456215e-01 -5.982274e-01 -1.100629e+00 -1.505837e+00 -2.070022e+00 -1.906482e+00 -1.100768e+00 -3.030562e-01 5.402524e-01 9.757849e-01 9.847020e-01 9.863038e-01 1.289366e+00 1.526984e+00 1.289366e+00 9.863038e-01 9.847020e-01 9.757849e-01 5.402524e-01 -3.030562e-01 -1.100768e+00 -1.906482e+00 -2.070022e+00 -1.505837e+00 -1.100629e+00 -5.982274e-01 4.456215e-01 1.055165e+00 1.011476e+00 
8.324475e-01 7.746087e-01 7.541213e-01 4.728704e-01 -1.316598e-01 -5.078371e-01 -3.565839e-01 -5.264435e-01 -1.269770e+00 -1.581908e+00 -1.297262e+00 -7.365848e-01 -3.659348e-02 6.917973e-01 1.112146e+00 1.413497e+00 1.618758e+00 1.413497e+00 1.112146e+00 6.917973e-01 -3.659348e-02 -7.365848e-01 -1.297262e+00 -1.581908e+00 -1.269770e+00 -5.264435e-01 -3.565839e-01 -5.078371e-01 -1.316598e-01 4.728704e-01 7.541213e-01 7.746087e-01 
6.446440e-01 5.933490e-01 5.605329e-01 3.923675e-01 1.107029e-01 -1.730217e-01 -4.720516e-01 -1.929412e-01 1.926698e-01 -2.227466e-01 -7.045573e-01 -6.754777e-01 -4.763387e-01 -1.315961e-02 3.891532e-01 2.916303e-01 1.551336e-01 2.916303e-01 3.891532e-01 -1.315961e-02 -4.763387e-01 -6.754777e-01 -7.045573e-01 -2.227466e-01 1.926698e-01 -1.929412e-01 -4.720516e-01 -1.730217e-01 1.107029e-01 3.923675e-01 5.605329e-01 5.933490e-01 
5.011748e-01 4.674640e-01 4.346729e-01 3.407471e-01 2.042010e-01 1.101828e-01 5.869307e-02 -7.271848e-02 -3.400477e-01 -4.165922e-01 -3.920173e-01 -2.940450e-01 -6.486089e-02 1.079818e-01 7.568615e-02 -2.430200e-01 -4.538290e-01 -2.430200e-01 7.568615e-02 1.079818e-01 -6.486089e-02 -2.940450e-01 -3.920173e-01 -4.165922e-01 -3.400477e-01 -7.271848e-02 5.869307e-02 1.101828e-01 2.042010e-01 3.407471e-01 4.346729e-01 4.674640e-01 
3.886965e-01 3.650614e-01 3.386185e-01 2.795038e-01 1.941583e-01 1.638299e-01 1.135740e-01 2.021972e-01 3.151910e-01 1.039984e-01 -3.153632e-01 -6.504452e-01 -6.071068e-01 -2.219237e-01 -2.845639e-02 -2.422218e-01 -4.099277e-01 -2.422218e-01 -2.845639e-02 -2.219237e-01 -6.071068e-01 -6.504452e-01 -3.153632e-01 1.039984e-01 3.151910e-01 2.021972e-01 1.135740e-01 1.638299e-01 1.941583e-01 2.795038e-01 3.386185e-01 3.650614e-01 
3.037660e-01 2.884584e-01 2.695006e-01 2.305465e-01 1.806271e-01 1.509834e-01 1.235355e-01 1.074933e-01 8.629515e-02 1.044076e-01 6.935593e-02 -1.355195e-01 -4.082754e-01 -4.319114e-01 -2.544997e-01 -3.144583e-01 -4.368443e-01 -3.144583e-01 -2.544997e-01 -4.319114e-01 -4.082754e-01 -1.355195e-01 6.935593e-02 1.044076e-01 8.629515e-02 1.074933e-01 1.235355e-01 1.509834e-01 1.806271e-01 2.305465e-01 2.695006e-01 2.884584e-01 
2.339349e-01 2.250252e-01 2.106700e-01 1.879683e-01 1.551104e-01 1.406335e-01 1.260590e-01 1.275270e-01 1.160084e-01 5.820382e-02 -3.289640e-02 -1.418981e-01 -3.133327e-01 -4.562315e-01 -3.221825e-01 -1.412284e-01 -1.128072e-01 -1.412284e-01 -3.221825e-01 -4.562315e-01 -3.133327e-01 -1.418981e-01 -3.289640e-02 5.820382e-02 1.160084e-01 1.275270e-01 1.260590e-01 1.406335e-01 1.551104e-01 1.879683e-01 2.106700e-01 2.250252e-01 
1.759241e-01 1.694682e-01 1.597535e-01 1.419911e-01 1.202400e-01 1.003398e-01 8.435890e-02 6.804496e-02 3.415852e-02 1.420940e-02 -1.738871e-02 -8.366971e-02 -2.024833e-01 -4.019850e-01 -3.674919e-01 -8.398601e-03 2.017820e-01 -8.398601e-03 -3.674919e-01 -4.019850e-01 -2.024833e-01 -8.366971e-02 -1.738871e-02 1.420940e-02 3.415852e-02 6.804496e-02 8.435890e-02 1.003398e-01 1.202400e-01 1.419911e-01 1.597535e-01 1.694682e-01 
1.266580e-01 1.236496e-01 1.165754e-01 1.070183e-01 9.264388e-02 8.191702e-02 6.961745e-02 5.796328e-02 3.268143e-02 -3.605630e-03 -5.458405e-02 -1.049508e-01 -1.600252e-01 -3.156651e-01 -3.607638e-01 5.367339e-02 4.010517e-01 5.367339e-02 -3.607638e-01 -3.156651e-01 -1.600252e-01 -1.049508e-01 -5.458405e-02 -3.605630e-03 3.268143e-02 5.796328e-02 6.961745e-02 8.191702e-02 9.264388e-02 1.070183e-01 1.165754e-01 1.236496e-01 
8.119021e-02 7.881855e-02 7.464484e-02 6.730632e-02 5.822896e-02 4.857544e-02 3.847101e-02 2.837693e-02 1.090151e-02 -5.386361e-03 -2.820135e-02 -5.940461e-02 -8.941959e-02 -1.356016e-01 -2.089054e-01 -2.268463e-02 2.073698e-01 -2.268463e-02 -2.089054e-01 -1.356016e-01 -8.941959e-02 -5.940461e-02 -2.820135e-02 -5.386361e-03 1.090151e-02 2.837693e-02 3.847101e-02 4.857544e-02 5.822896e-02 6.730632e-02 7.464484e-02 7.881855e-02 
4.022471e-02 3.951200e-02 3.735409e-02 3.456143e-02 3.024866e-02 2.640050e-02 2.137408e-02 1.601094e-02 7.050143e-03 -4.503062e-03 -1.908392e-02 -3.268968e-02 -4.413701e-02 -4.735371e-02 -6.919642e-02 -3.193841e-02 3.255606e-02 -3.193841e-02 -6.919642e-02 -4.735371e-02 -4.413701e-02 -3.268968e-02 -1.908392e-02 -4.503062e-03 7.050143e-03 1.601094e-02 2.137408e-02 2.640050e-02 3.024866e-02 3.456143e-02 3.735409e-02 3.951200e-02 
