# vtk DataFile Version 2.0
Comment goes here
ASCII

DATASET STRUCTURED_POINTS
FIELD FieldData 1
TIME 1 1 double
0.72000000
DIMENSIONS    32   32   1

ORIGIN    0.000   0.000   0.000
SPACING   0.03125 0.03125   1.000

POINT_DATA   1024
SCALARS uY double
LOOKUP_TABLE default

-2.500923e-15 -6.796742e-15 -9.204648e-15 -8.839133e-15 -1.245669e-14 -7.498157e-15 -1.247497e-14 -6.360880e-15 -1.358533e-14 -9.840638e-15 -1.319607e-14 -6.732429e-15 3.122832e-15 6.051333e-15 7.403635e-15 3.727759e-15 -1.921356e-14 -1.545709e-14 -2.278923e-14 -7.574317e-15 -6.052693e-15 1.053030e-14 1.792761e-14 1.322122e-14 2.063690e-14 6.314768e-15 1.658803e-14 3.084231e-15 1.223072e-14 8.167647e-16 5.215608e-15 -3.318362e-15 
-2.401205e-02 -1.845806e-02 -4.442466e-03 1.915532e-02 4.697449e-02 8.390161e-02 1.197630e-01 1.623098e-01 1.902198e-01 2.093507e-01 1.929567e-01 1.434962e-01 4.956382e-02 -9.662249e-02 -2.738459e-01 -5.031331e-01 -6.183671e-01 -5.031331e-01 -2.738459e-01 -9.662249e-02 4.956382e-02 1.434962e-01 1.929567e-01 2.093507e-01 1.902198e-01 1.623098e-01 1.197630e-01 8.390161e-02 4.697449e-02 1.915532e-02 -4.442466e-03 -1.845806e-02 
-5.836120e-02 -4.730193e-02 -1.912542e-02 2.677398e-02 7.955820e-02 1.475653e-01 2.115308e-01 2.877684e-01 3.364798e-01 3.733607e-01 3.477822e-01 2.693884e-01 1.159285e-01 -1.321104e-01 -4.594742e-01 -9.254445e-01 -1.166999e+00 -9.254445e-01 -4.594742e-01 -1.321104e-01 1.159285e-01 2.693884e-01 3.477822e-01 3.733607e-01 3.364798e-01 2.877684e-01 2.115308e-01 1.475653e-01 7.955820e-02 2.677398e-02 -1.912542e-02 -4.730193e-02 
-1.077334e-01 -9.050800e-02 -4.543034e-02 2.419985e-02 1.018215e-01 1.969673e-01 2.814880e-01 3.838834e-01 4.440885e-01 5.018567e-01 4.749785e-01 3.951442e-01 2.103549e-01 -1.226505e-01 -5.848101e-01 -1.288893e+00 -1.657249e+00 -1.288893e+00 -5.848101e-01 -1.226505e-01 2.103549e-01 3.951442e-01 4.749785e-01 5.018567e-01 4.440885e-01 3.838834e-01 2.814880e-01 1.969673e-01 1.018215e-01 2.419985e-02 -4.543034e-02 -9.050800e-02 
-1.853424e-01 -1.611587e-01 -9.617029e-02 -2.136722e-03 9.873073e-02 2.130956e-01 3.068155e-01 4.191319e-01 4.727499e-01 5.369588e-01 4.980278e-01 4.300441e-01 2.836962e-01 -8.943172e-03 -5.394395e-01 -1.426992e+00 -1.863478e+00 -1.426992e+00 -5.394395e-01 -8.943172e-03 2.836962e-01 4.300441e-01 4.980278e-01 5.369588e-01 4.727499e-01 4.191319e-01 3.068155e-01 2.130956e-01 9.873073e-02 -2.136722e-03 -9.617029e-02 -1.611587e-01 
-2.916356e-01 -2.580386e-01 -1.643827e-01 -3.772270e-02 9.484565e-02 2.310497e-01 3.340663e-01 4.543128e-01 4.909829e-01 5.678433e-01 5.179398e-01 4.972341e-01 3.636972e-01 1.520064e-02 -5.828495e-01 -1.469879e+00 -1.816964e+00 -1.469879e+00 -5.828495e-01 1.520064e-02 3.636972e-01 4.972341e-01 5.179398e-01 5.678433e-01 4.909829e-01 4.543128e-01 3.340663e-01 2.310497e-01 9.484565e-02 -3.772270e-02 -1.643827e-01 -2.580386e-01 
-4.346826e-01 -3.895930e-01 -2.605311e-01 -9.580011e-02 7.309232e-02 2.284350e-01 3.387181e-01 4.576626e-01 4.636287e-01 5.282116e-01 3.607318e-01 2.555413e-01 2.537701e-01 9.058526e-02 -4.369172e-01 -1.075043e+00 -1.150303e+00 -1.075043e+00 -4.369172e-01 9.058526e-02 2.537701e-01 2.555413e-01 3.607318e-01 5.282116e-01 4.636287e-01 4.576626e-01 3.387181e-01 2.284350e-01 7.309232e-02 -9.580011e-02 -2.605311e-01 -3.895930e-01 
-6.104934e-01 -5.504630e-01 -3.740747e-01 -1.584027e-01 6.391495e-02 2.456327e-01 3.767446e-01 4.945417e-01 4.599728e-01 5.199279e-01 3.288736e-01 5.071861e-01 3.973387e-01 -4.503611e-01 -8.425673e-01 -6.080617e-01 -2.099121e-01 -6.080617e-01 -8.425673e-01 -4.503611e-01 3.973387e-01 5.071861e-01 3.288736e-01 5.199279e-01 4.599728e-01 4.945417e-01 3.767446e-01 2.456327e-01 6.391495e-02 -1.584027e-01 -3.740747e-01 -5.504630e-01 
-8.045763e-01 -7.282818e-01 -5.017806e-01 -2.329717e-01 4.502592e-02 2.478168e-01 4.107835e-01 5.376258e-01 5.611838e-01 7.065140e-01 1.418469e-01 -5.104940e-01 -7.356330e-01 -3.970245e-01 2.827016e-01 3.768154e-01 3.963201e-01 3.768154e-01 2.827016e-01 -3.970245e-01 -7.356330e-01 -5.104940e-01 1.418469e-01 7.065140e-01 5.611838e-01 5.376258e-01 4.107835e-01 2.478168e-01 4.502592e-02 -2.329717e-01 -5.017806e-01 -7.282818e-01 
-1.013080e+00 -9.169450e-01 -6.343333e-01 -3.039766e-01 4.593121e-02 2.721417e-01 5.096138e-01 6.634974e-01 6.102225e-01 2.564520e-01 -3.546196e-01 -1.974613e-01 3.144637e-01 3.772210e-01 8.564444e-02 -1.509292e-01 -1.407658e-01 -1.509292e-01 8.564444e-02 3.772210e-01 3.144637e-01 -1.974613e-01 -3.546196e-01 2.564520e-01 6.102225e-01 6.634974e-01 5.096138e-01 2.721417e-01 4.593121e-02 -3.039766e-01 -6.343333e-01 -9.169450e-01 
-1.187602e+00 -1.070658e+00 -7.409216e-01 -3.609179e-01 3.492194e-02 2.465899e-01 5.315998e-01 7.784336e-01 6.810354e-01 2.066921e-01 2.258443e-01 5.421662e-01 1.901432e-01 -8.678124e-02 -3.405166e-01 -2.555247e-01 2.338906e-02 -2.555247e-01 -3.405166e-01 -8.678124e-02 1.901432e-01 5.421662e-01 2.258443e-01 2.066921e-01 6.810354e-01 7.784336e-01 5.315998e-01 2.465899e-01 3.492194e-02 -3.609179e-01 -7.409216e-01 -1.070658e+00 
-1.346230e+00 -1.203265e+00 -8.376112e-01 -4.074788e-01 3.408043e-02 2.650695e-01 9.675899e-01 1.447806e+00 6.309440e-01 -1.165138e-01 -4.974361e-02 -1.540758e-01 -4.414507e-01 -1.438431e-01 9.339246e-02 3.123011e-01 5.518270e-01 3.123011e-01 9.339246e-02 -1.438431e-01 -4.414507e-01 -1.540758e-01 -4.974361e-02 -1.165138e-01 6.309440e-01 1.447806e+00 9.675899e-01 2.650695e-01 3.408043e-02 -4.074788e-01 -8.376112e-01 -1.203265e+00 
-1.382108e+00 -1.214173e+00 -8.343835e-01 -3.598705e-01 1.193126e-01 4.901392e-01 1.703689e+00 1.368026e+00 -4.181309e-01 -3.463760e-01 -1.052780e-02 -2.943185e-02 4.375997e-03 -4.063255e-02 -1.863333e-02 1.323180e-01 2.907049e-01 1.323180e-01 -1.863333e-02 -4.063255e-02 4.375997e-03 -2.943185e-02 -1.052780e-02 -3.463760e-01 -4.181309e-01 1.368026e+00 1.703689e+00 4.901392e-01 1.193126e-01 -3.598705e-01 -8.343835e-01 -1.214173e+00 
-1.347120e+00 -1.162185e+00 -8.308221e-01 -3.227200e-01 3.451515e-02 8.792071e-01 2.275666e+00 3.071636e-01 -1.179240e+00 3.190518e-01 5.049152e-01 -5.846097e-02 -2.713770e-01 -1.331017e-01 -3.502294e-03 1.710452e-01 2.868092e-01 1.710452e-01 -3.502294e-03 -1.331017e-01 -2.713770e-01 -5.846097e-02 5.049152e-01 3.190518e-01 -1.179240e+00 3.071636e-01 2.275666e+00 8.792071e-01 3.451515e-02 -3.227200e-01 -8.308221e-01 -1.162185e+00 
-1.060333e+00 -8.771960e-01 -6.184991e-01 -1.100392e-01 1.047497e-01 1.206978e+00 1.630861e+00 -9.958706e-01 -7.788267e-01 8.644892e-01 4.209005e-01 -1.606336e-02 -2.047474e-01 -1.082866e-01 -6.965525e-02 3.598842e-02 9.076768e-02 3.598842e-02 -6.965525e-02 -1.082866e-01 -2.047474e-01 -1.606336e-02 4.209005e-01 8.644892e-01 -7.788267e-01 -9.958706e-01 1.630861e+00 1.206978e+00 1.047497e-01 -1.100392e-01 -6.184991e-01 -8.771960e-01 
-6.192250e-01 -5.088272e-01 -3.505751e-01 -6.702690e-02 3.408079e-02 7.409384e-01 6.587671e-01 -7.605761e-01 -6.340272e-02 7.160089e-01 2.395706e-01 -3.906661e-02 -1.769878e-01 -9.734918e-02 -5.382316e-02 1.589865e-02 4.396543e-02 1.589865e-02 -5.382316e-02 -9.734918e-02 -1.769878e-01 -3.906661e-02 2.395706e-01 7.160089e-01 -6.340272e-02 -7.605761e-01 6.587671e-01 7.409384e-01 3.408079e-02 -6.702690e-02 -3.505751e-01 -5.088272e-01 
3.131734e-14 3.686280e-14 3.252122e-14 6.599366e-15 -1.794197e-14 -5.115567e-14 -3.244582e-14 6.866810e-14 -1.834544e-14 -2.370691e-14 -5.159335e-14 -2.110714e-14 -3.208928e-14 2.203054e-15 -2.677484e-14 5.785987e-15 -1.832122e-14 -1.315142e-14 -6.249812e-15 -3.165699e-14 -1.711429e-14 -4.443927e-14 3.184760e-14 -1.223781e-14 7.291970e-14 1.057489e-13 9.428173e-14 -6.083933e-14 -7.880796e-14 -2.213473e-14 8.447628e-15 2.588968e-14 
6.192250e-01 5.088272e-01 3.505751e-01 6.702690e-02 -3.408079e-02 -7.409384e-01 -6.587671e-01 7.605761e-01 6.340272e-02 -7.160089e-01 -2.395706e-01 3.906661e-02 1.769878e-01 9.734918e-02 5.382316e-02 -1.589865e-02 -4.396543e-02 -1.589865e-02 5.382316e-02 9.734918e-02 1.769878e-01 3.906661e-02 -2.395706e-01 -7.160089e-01 6.340272e-02 7.605761e-01 -6.587671e-01 -7.409384e-01 -3.408079e-02 6.702690e-02 3.505751e-01 5.088272e-01 
1.060333e+00 8.771960e-01 6.184991e-01 1.100392e-01 -1.047497e-01 -1.206978e+00 -1.630861e+00 9.958706e-01 7.788267e-01 -8.644892e-01 -4.209005e-01 1.606336e-02 2.047474e-01 1.082866e-01 6.965525e-02 -3.598842e-02 -9.076768e-02 -3.598842e-02 6.965525e-02 1.082866e-01 2.047474e-01 1.606336e-02 -4.209005e-01 -8.644892e-01 7.788267e-01 9.958706e-01 -1.630861e+00 -1.206978e+00 -1.047497e-01 1.100392e-01 6.184991e-01 8.771960e-01 
1.347120e+00 1.162185e+00 8.308221e-01 3.227200e-01 -3.451515e-02 -8.792071e-01 -2.275666e+00 -3.071636e-01 1.179240e+00 -3.190518e-01 -5.049152e-01 5.846097e-02 2.713770e-01 1.331017e-01 3.502294e-03 -1.710452e-01 -2.868092e-01 -1.710452e-01 3.502294e-03 1.331017e-01 2.713770e-01 5.846097e-02 -5.049152e-01 -3.190518e-01 1.179240e+00 -3.071636e-01 -2.275666e+00 -8.792071e-01 -3.451515e-02 3.227200e-01 8.308221e-01 1.162185e+00 
1.382108e+00 1.214173e+00 8.343835e-01 3.598705e-01 -1.193126e-01 -4.901392e-01 -1.703689e+00 -1.368026e+00 4.181309e-01 3.463760e-01 1.052780e-02 2.943185e-02 -4.375997e-03 4.063255e-02 1.863333e-02 -1.323180e-01 -2.907049e-01 -1.323180e-01 1.863333e-02 4.063255e-02 -4.375997e-03 2.943185e-02 1.052780e-02 3.463760e-01 4.181309e-01 -1.368026e+00 -1.703689e+00 -4.901392e-01 -1.193126e-01 3.598705e-01 8.343835e-01 1.214173e+00 
1.346230e+00 1.203265e+00 8.376112e-01 4.074788e-01 -3.408043e-02 -2.650695e-01 -9.675899e-01 -1.447806e+00 -6.309440e-01 1.165138e-01 4.974361e-02 1.540758e-01 4.414507e-01 1.438431e-01 -9.339246e-02 -3.123011e-01 -5.518270e-01 -3.123011e-01 -9.339246e-02 1.438431e-01 4.414507e-01 1.540758e-01 4.974361e-02 1.165138e-01 -6.309440e-01 -1.447806e+00 -9.675899e-01 -2.650695e-01 -3.408043e-02 4.074788e-01 8.376112e-01 1.203265e+00 
1.187602e+00 1.070658e+00 7.409216e-01 3.609179e-01 -3.492194e-02 -2.465899e-01 -5.315998e-01 -7.784336e-01 -6.810354e-01 -2.066921e-01 -2.258443e-01 -5.421662e-01 -1.901432e-01 8.678124e-02 3.405166e-01 2.555247e-01 -2.338906e-02 2.555247e-01 3.405166e-01 8.678124e-02 -1.901432e-01 -5.421662e-01 -2.258443e-01 -2.066921e-01 -6.810354e-01 -7.784336e-01 -5.315998e-01 -2.465899e-01 -3.492194e-02 3.609179e-01 7.409216e-01 1.070658e+00 
1.013080e+00 9.169450e-01 6.343333e-01 3.039766e-01 -4.593121e-02 -2.721417e-01 -5.096138e-01 -6.634974e-01 -6.102225e-01 -2.564520e-01 3.546196e-01 1.974613e-01 -3.144637e-01 -3.772210e-01 -8.564444e-02 1.509292e-01 1.407658e-01 1.509292e-01 -8.564444e-02 -3.772210e-01 -3.144637e-01 1.974613e-01 3.546196e-01 -2.564520e-01 -6.102225e-01 -6.634974e-01 -5.096138e-01 -2.721417e-01 -4.593121e-02 3.039766e-01 6.343333e-01 9.169450e-01 
8.045763e-01 7.282818e-01 5.017806e-01 2.329717e-01 -4.502592e-02 -2.478168e-01 -4.107835e-01 -5.376258e-01 -5.611838e-01 -7.065140e-01 -1.418469e-01 5.104940e-01 7.356330e-01 3.970245e-01 -2.827016e-01 -3.768154e-01 -3.963201e-01 -3.768154e-01 -2.827016e-01 3.970245e-01 7.356330e-01 5.104940e-01 -1.418469e-01 -7.065140e-01 -5.611838e-01 -5.376258e-01 -4.107835e-01 -2.478168e-01 -4.502592e-02 2.329717e-01 5.017806e-01 7.282818e-01 
6.104934e-01 5.504630e-01 3.740747e-01 1.584027e-01 -6.391495e-02 -2.456327e-01 -3.767446e-01 -4.945417e-01 -4.599728e-01 -5.199279e-01 -3.288736e-01 -5.071861e-01 -3.973387e-01 4.503611e-01 8.425673e-01 6.080617e-01 2.099121e-01 6.080617e-01 8.425673e-01 4.503611e-01 -3.973387e-01 -5.071861e-01 -3.288736e-01 -5.199279e-01 -4.599728e-01 -4.945417e-01 -3.767446e-01 -2.456327e-01 -6.391495e-02 1.584027e-01 3.740747e-01 5.504630e-01 
4.346826e-01 3.895930e-01 2.605311e-01 9.580011e-02 -7.309232e-02 -2.284350e-01 -3.387181e-01 -4.576626e-01 -4.636287e-01 -5.282116e-01 -3.607318e-01 -2.555413e-01 -2.537701e-01 -9.058526e-02 4.369172e-01 1.075043e+00 1.150303e+00 1.075043e+00 4.369172e-01 -9.058526e-02 -2.537701e-01 -2.555413e-01 -3.607318e-01 -5.282116e-01 -4.636287e-01 -4.576626e-01 -3.387181e-01 -2.284350e-01 -7.309232e-02 9.580011e-02 2.605311e-01 3.895930e-01 
2.916356e-01 2.580386e-01 1.643827e-01 3.772270e-02 -9.484565e-02 -2.310497e-01 -3.340663e-01 -4.543128e-01 -4.909829e-01 -5.678433e-01 -5.179398e-01 -4.972341e-01 -3.636972e-01 -1.520064e-02 5.828495e-01 1.469879e+00 1.816964e+00 1.469879e+00 5.828495e-01 -1.520064e-02 -3.636972e-01 -4.972341e-01 -5.179398e-01 -5.678433e-01 -4.909829e-01 -4.543128e-01 -3.340663e-01 -2.310497e-01 -9.484565e-02 3.772270e-02 1.643827e-01 2.580386e-01 
1.853424e-01 1.611587e-01 9.617029e-02 2.136722e-03 -9.873073e-02 -2.130956e-01 -3.068155e-01 -4.191319e-01 -4.727499e-01 -5.369588e-01 -4.980278e-01 -4.300441e-01 -2.836962e-01 8.943172e-03 5.394395e-01 1.426992e+00 1.863478e+00 1.426992e+00 5.394395e-01 8.943172e-03 -2.836962e-01 -4.300441e-01 -4.980278e-01 -5.369588e-01 -4.727499e-01 -4.191319e-01 -3.068155e-01 -2.130956e-01 -9.873073e-02 2.136722e-03 9.617029e-02 1.611587e-01 
1.077334e-01 9.050800e-02 4.543034e-02 -2.419985e-02 -1.018215e-01 -1.969673e-01 -2.814880e-01 -3.838834e-01 -4.440885e-01 -5.018567e-01 -4.749785e-01 -3.951442e-01 -2.103549e-01 1.226505e-01 5.848101e-01 1.288893e+00 1.657249e+00 1.288893e+00 5.848101e-01 1.226505e-01 -2.103549e-01 -3.951442e-01 -4.749785e-01 -5.018567e-01 -4.440885e-01 -3.838834e-01 -2.814880e-01 -1.969673e-01 -1.018215e-01 -2.419985e-02 4.543034e-02 9.050800e-02 
5.836120e-02 4.730193e-02 1.912542e-02 -2.677398e-02 -7.955820e-02 -1.475653e-01 -2.115308e-01 -2.877684e-01 -3.364798e-01 -3.733607e-01 -3.477822e-01 -2.693884e-01 -1.159285e-01 1.321104e-01 4.594742e-01 9.254445e-01 1.166999e+00 9.254445e-01 4.594742e-01 1.321104e-01 -1.159285e-01 -2.693884e-01 -3.477822e-01 -3.733607e-01 -3.364798e-01 -2.877684e-01 -2.115308e-01 -1.475653e-01 -7.955820e-02 -2.677398e-02 1.912542e-02 4.730193e-02 
2.401205e-02 1.845806e-02 4.442466e-03 -1.915532e-02 -4.697449e-02 -8.390161e-02 -1.197630e-01 -1.623098e-01 -1.902198e-01 -2.093507e-01 -1.929567e-01 -1.434962e-01 -4.956382e-02 9.662249e-02 2.738459e-01 5.031331e-01 6.183671e-01 5.031331e-01 2.738459e-01 9.662249e-02 -4.956382e-02 -1.434962e-01 -1.929567e-01 -2.093507e-01 -1.902198e-01 -1.623098e-01 -1.197630e-01 -8.390161e-02 -4.697449e-02 -1.915532e-02 4.442466e-03 1.845806e-02 
