# vtk DataFile Version 2.0
Comment goes here
ASCII

DATASET STRUCTURED_POINTS
FIELD FieldData 1
TIME 1 1 double
0.50000000
DIMENSIONS    32   32   1

ORIGIN    0.000   0.000   0.000
SPACING   0.03125 0.03125   1.000

POINT_DATA   1024
SCALARS uY double
LOOKUP_TABLE default

-3.877030e-15 -1.121965e-15 -2.452502e-15 9.953160e-16 1.781558e-16 5.421040e-15 4.594781e-15 1.290454e-14 8.667474e-15 1.673673e-14 8.122620e-16 4.843093e-15 -2.323262e-14 -2.595806e-14 -3.355859e-14 -4.582625e-14 1.036824e-14 2.229074e-14 3.854211e-14 3.064940e-14 2.250785e-14 2.418377e-16 -3.498457e-15 -1.267983e-14 -1.254310e-14 -1.102545e-14 -1.055625e-14 -6.914070e-15 -7.781322e-15 -4.345077e-15 -5.588254e-15 -2.734683e-15 
-5.031875e-02 -4.740921e-02 -4.097790e-02 -2.906945e-02 -1.155589e-02 1.204380e-02 4.665928e-02 8.613715e-02 1.370248e-01 1.741584e-01 2.041901e-01 1.810855e-01 1.108223e-01 -2.837288e-02 -2.144003e-01 -3.485734e-01 -4.132062e-01 -3.485734e-01 -2.144003e-01 -2.837288e-02 1.108223e-01 1.810855e-01 2.041901e-01 1.741584e-01 1.370248e-01 8.613715e-02 4.665928e-02 1.204380e-02 -1.155589e-02 -2.906945e-02 -4.097790e-02 -4.740921e-02 
-1.085666e-01 -1.031424e-01 -9.124649e-02 -6.986183e-02 -3.899258e-02 1.372789e-03 6.076771e-02 1.278727e-01 2.173658e-01 2.857686e-01 3.521332e-01 3.346077e-01 2.511230e-01 6.909569e-02 -2.883166e-01 -6.457133e-01 -8.171012e-01 -6.457133e-01 -2.883166e-01 6.909569e-02 2.511230e-01 3.346077e-01 3.521332e-01 2.857686e-01 2.173658e-01 1.278727e-01 6.076771e-02 1.372789e-03 -3.899258e-02 -6.986183e-02 -9.124649e-02 -1.031424e-01 
-1.682180e-01 -1.591692e-01 -1.418388e-01 -1.099779e-01 -6.796488e-02 -1.393623e-02 6.162527e-02 1.457945e-01 2.601328e-01 3.453777e-01 4.480244e-01 4.148115e-01 2.939286e-01 -1.310123e-02 -4.193464e-01 -6.097991e-01 -7.009038e-01 -6.097991e-01 -4.193464e-01 -1.310123e-02 2.939286e-01 4.148115e-01 4.480244e-01 3.453777e-01 2.601328e-01 1.457945e-01 6.162527e-02 -1.393623e-02 -6.796488e-02 -1.099779e-01 -1.418388e-01 -1.591692e-01 
-2.482520e-01 -2.361351e-01 -2.144120e-01 -1.764480e-01 -1.310864e-01 -7.737114e-02 -5.495029e-03 7.051968e-02 1.793751e-01 2.610050e-01 4.009534e-01 3.833267e-01 4.340420e-01 4.877036e-01 9.453362e-04 -7.126006e-01 -1.080393e+00 -7.126006e-01 9.453362e-04 4.877036e-01 4.340420e-01 3.833267e-01 4.009534e-01 2.610050e-01 1.793751e-01 7.051968e-02 -5.495029e-03 -7.737114e-02 -1.310864e-01 -1.764480e-01 -2.144120e-01 -2.361351e-01 
-3.317535e-01 -3.134431e-01 -2.846183e-01 -2.346248e-01 -1.844987e-01 -1.285662e-01 -6.537552e-02 2.426510e-03 9.437432e-02 1.838207e-01 4.079146e-01 3.519203e-01 1.747262e-01 -3.316133e-01 -5.297301e-01 4.700800e-01 1.106168e+00 4.700800e-01 -5.297301e-01 -3.316133e-01 1.747262e-01 3.519203e-01 4.079146e-01 1.838207e-01 9.437432e-02 2.426510e-03 -6.537552e-02 -1.285662e-01 -1.844987e-01 -2.346248e-01 -2.846183e-01 -3.134431e-01 
-4.416314e-01 -4.163422e-01 -3.776106e-01 -3.165312e-01 -2.662118e-01 -2.224996e-01 -1.881437e-01 -1.634149e-01 -1.563626e-01 -1.349422e-01 -6.542374e-02 -6.760418e-01 -1.063323e+00 -1.109018e-01 1.408200e+00 2.040674e+00 1.859381e+00 2.040674e+00 1.408200e+00 -1.109018e-01 -1.063323e+00 -6.760418e-01 -6.542374e-02 -1.349422e-01 -1.563626e-01 -1.634149e-01 -1.881437e-01 -2.224996e-01 -2.662118e-01 -3.165312e-01 -3.776106e-01 -4.163422e-01 
-5.613506e-01 -5.229513e-01 -4.657305e-01 -3.795360e-01 -3.198248e-01 -2.801860e-01 -2.742481e-01 -2.972446e-01 -4.566859e-01 -5.064856e-01 -5.568963e-01 -5.970092e-01 6.493526e-01 1.995037e+00 1.714404e+00 5.883762e-01 -1.939081e-02 5.883762e-01 1.714404e+00 1.995037e+00 6.493526e-01 -5.970092e-01 -5.568963e-01 -5.064856e-01 -4.566859e-01 -2.972446e-01 -2.742481e-01 -2.801860e-01 -3.198248e-01 -3.795360e-01 -4.657305e-01 -5.229513e-01 
-7.063057e-01 -6.517381e-01 -5.666389e-01 -4.464607e-01 -3.708502e-01 -3.403568e-01 -3.580742e-01 -4.980278e-01 -7.629505e-01 -6.749154e-01 -9.495825e-02 6.419735e-01 1.480234e+00 1.270537e+00 6.394419e-01 6.989882e-01 7.738973e-01 6.989882e-01 6.394419e-01 1.270537e+00 1.480234e+00 6.419735e-01 -9.495825e-02 -6.749154e-01 -7.629505e-01 -4.980278e-01 -3.580742e-01 -3.403568e-01 -3.708502e-01 -4.464607e-01 -5.666389e-01 -6.517381e-01 
-8.671263e-01 -7.892790e-01 -6.653176e-01 -4.884201e-01 -3.750335e-01 -3.385109e-01 -3.392620e-01 -6.488928e-01 -6.026540e-01 -1.395904e-01 2.173881e-01 6.388227e-01 1.005967e+00 8.950422e-01 7.259622e-01 8.708283e-01 9.330258e-01 8.708283e-01 7.259622e-01 8.950422e-01 1.005967e+00 6.388227e-01 2.173881e-01 -1.395904e-01 -6.026540e-01 -6.488928e-01 -3.392620e-01 -3.385109e-01 -3.750335e-01 -4.884201e-01 -6.653176e-01 -7.892790e-01 
-1.030263e+00 -9.294418e-01 -7.611893e-01 -5.092941e-01 -3.492957e-01 -2.768543e-01 -3.300305e-01 -6.885114e-01 -2.024354e-01 -1.748497e-02 3.596110e-02 1.037638e+00 8.916189e-01 3.609038e-01 6.081857e-01 1.023044e+00 1.244634e+00 1.023044e+00 6.081857e-01 3.609038e-01 8.916189e-01 1.037638e+00 3.596110e-02 -1.748497e-02 -2.024354e-01 -6.885114e-01 -3.300305e-01 -2.768543e-01 -3.492957e-01 -5.092941e-01 -7.611893e-01 -9.294418e-01 
-1.187793e+00 -1.064811e+00 -8.635904e-01 -5.242462e-01 -3.289548e-01 -1.619093e-01 -3.379417e-01 -3.151895e-01 2.354221e-01 -2.451366e-01 2.578836e-01 1.111288e+00 5.370859e-01 3.164125e-01 5.641112e-01 8.835926e-01 1.059761e+00 8.835926e-01 5.641112e-01 3.164125e-01 5.370859e-01 1.111288e+00 2.578836e-01 -2.451366e-01 2.354221e-01 -3.151895e-01 -3.379417e-01 -1.619093e-01 -3.289548e-01 -5.242462e-01 -8.635904e-01 -1.064811e+00 
-1.279146e+00 -1.149241e+00 -9.233039e-01 -5.099927e-01 -2.393563e-01 4.736463e-02 -1.474323e-01 2.552811e-01 3.010981e-01 -6.026887e-01 7.102530e-01 1.113685e+00 2.856842e-01 2.428419e-01 2.973401e-01 6.027496e-01 7.105806e-01 6.027496e-01 2.973401e-01 2.428419e-01 2.856842e-01 1.113685e+00 7.102530e-01 -6.026887e-01 3.010981e-01 2.552811e-01 -1.474323e-01 4.736463e-02 -2.393563e-01 -5.099927e-01 -9.233039e-01 -1.149241e+00 
-1.294825e+00 -1.171986e+00 -9.463818e-01 -5.111246e-01 -2.001560e-01 1.208332e-01 7.949872e-02 5.242137e-01 2.010883e-01 -5.010192e-01 1.068925e+00 9.557439e-01 8.583703e-02 1.952727e-01 1.496992e-01 3.880660e-01 4.178038e-01 3.880660e-01 1.496992e-01 1.952727e-01 8.583703e-02 9.557439e-01 1.068925e+00 -5.010192e-01 2.010883e-01 5.242137e-01 7.949872e-02 1.208332e-01 -2.001560e-01 -5.111246e-01 -9.463818e-01 -1.171986e+00 
-1.134092e+00 -1.043183e+00 -8.540864e-01 -4.725442e-01 -1.067225e-01 3.339881e-01 4.738691e-01 4.885941e-01 -5.456101e-02 -2.386044e-01 1.007217e+00 6.663980e-01 3.944757e-03 8.616274e-02 8.676108e-03 1.791889e-01 1.774173e-01 1.791889e-01 8.676108e-03 8.616274e-02 3.944757e-03 6.663980e-01 1.007217e+00 -2.386044e-01 -5.456101e-02 4.885941e-01 4.738691e-01 3.339881e-01 -1.067225e-01 -4.725442e-01 -8.540864e-01 -1.043183e+00 
-7.620385e-01 -7.016951e-01 -5.529513e-01 -2.502287e-01 6.061489e-02 3.699416e-01 3.896250e-01 1.861713e-01 -8.170649e-02 -1.355691e-02 5.743041e-01 3.253255e-01 -1.145374e-02 2.135585e-02 -2.549833e-02 6.268651e-02 5.617029e-02 6.268651e-02 -2.549833e-02 2.135585e-02 -1.145374e-02 3.253255e-01 5.743041e-01 -1.355691e-02 -8.170649e-02 1.861713e-01 3.896250e-01 3.699416e-01 6.061489e-02 -2.502287e-01 -5.529513e-01 -7.016951e-01 
-3.833672e-15 -3.426749e-15 5.265818e-15 1.712643e-14 3.165675e-14 3.999422e-14 1.469492e-14 5.165482e-14 7.357046e-14 -2.398611e-14 -6.461707e-14 -2.281510e-14 -7.718445e-15 1.817760e-15 -6.138261e-15 -4.534239e-15 -1.207032e-14 -1.106961e-14 -1.806203e-14 -1.811261e-14 -1.599961e-14 2.418685e-14 1.098279e-13 1.469454e-14 -1.192333e-13 -1.037801e-13 -2.169769e-14 2.187944e-14 1.902505e-14 1.953655e-15 -2.087707e-15 -2.105893e-15 
7.620385e-01 7.016951e-01 5.529513e-01 2.502287e-01 -6.061489e-02 -3.699416e-01 -3.896250e-01 -1.861713e-01 8.170649e-02 1.355691e-02 -5.743041e-01 -3.253255e-01 1.145374e-02 -2.135585e-02 2.549833e-02 -6.268651e-02 -5.617029e-02 -6.268651e-02 2.549833e-02 -2.135585e-02 1.145374e-02 -3.253255e-01 -5.743041e-01 1.355691e-02 8.170649e-02 -1.861713e-01 -3.896250e-01 -3.699416e-01 -6.061489e-02 2.502287e-01 5.529513e-01 7.016951e-01 
1.134092e+00 1.043183e+00 8.540864e-01 4.725442e-01 1.067225e-01 -3.339881e-01 -4.738691e-01 -4.885941e-01 5.456101e-02 2.386044e-01 -1.007217e+00 -6.663980e-01 -3.944757e-03 -8.616274e-02 -8.676108e-03 -1.791889e-01 -1.774173e-01 -1.791889e-01 -8.676108e-03 -8.616274e-02 -3.944757e-03 -6.663980e-01 -1.007217e+00 2.386044e-01 5.456101e-02 -4.885941e-01 -4.738691e-01 -3.339881e-01 1.067225e-01 4.725442e-01 8.540864e-01 1.043183e+00 
1.294825e+00 1.171986e+00 9.463818e-01 5.111246e-01 2.001560e-01 -1.208332e-01 -7.949872e-02 -5.242137e-01 -2.010883e-01 5.010192e-01 -1.068925e+00 -9.557439e-01 -8.583703e-02 -1.952727e-01 -1.496992e-01 -3.880660e-01 -4.178038e-01 -3.880660e-01 -1.496992e-01 -1.952727e-01 -8.583703e-02 -9.557439e-01 -1.068925e+00 5.010192e-01 -2.010883e-01 -5.242137e-01 -7.949872e-02 -1.208332e-01 2.001560e-01 5.111246e-01 9.463818e-01 1.171986e+00 
1.279146e+00 1.149241e+00 9.233039e-01 5.099927e-01 2.393563e-01 -4.736463e-02 1.474323e-01 -2.552811e-01 -3.010981e-01 6.026887e-01 -7.102530e-01 -1.113685e+00 -2.856842e-01 -2.428419e-01 -2.973401e-01 -6.027496e-01 -7.105806e-01 -6.027496e-01 -2.973401e-01 -2.428419e-01 -2.856842e-01 -1.113685e+00 -7.102530e-01 6.026887e-01 -3.010981e-01 -2.552811e-01 1.474323e-01 -4.736463e-02 2.393563e-01 5.099927e-01 9.233039e-01 1.149241e+00 
1.187793e+00 1.064811e+00 8.635904e-01 5.242462e-01 3.289548e-01 1.619093e-01 3.379417e-01 3.151895e-01 -2.354221e-01 2.451366e-01 -2.578836e-01 -1.111288e+00 -5.370859e-01 -3.164125e-01 -5.641112e-01 -8.835926e-01 -1.059761e+00 -8.835926e-01 -5.641112e-01 -3.164125e-01 -5.370859e-01 -1.111288e+00 -2.578836e-01 2.451366e-01 -2.354221e-01 3.151895e-01 3.379417e-01 1.619093e-01 3.289548e-01 5.242462e-01 8.635904e-01 1.064811e+00 
1.030263e+00 9.294418e-01 7.611893e-01 5.092941e-01 3.492957e-01 2.768543e-01 3.300305e-01 6.885114e-01 2.024354e-01 1.748497e-02 -3.596110e-02 -1.037638e+00 -8.916189e-01 -3.609038e-01 -6.081857e-01 -1.023044e+00 -1.244634e+00 -1.023044e+00 -6.081857e-01 -3.609038e-01 -8.916189e-01 -1.037638e+00 -3.596110e-02 1.748497e-02 2.024354e-01 6.885114e-01 3.300305e-01 2.768543e-01 3.492957e-01 5.092941e-01 7.611893e-01 9.294418e-01 
8.671263e-01 7.892790e-01 6.653176e-01 4.884201e-01 3.750335e-01 3.385109e-01 3.392620e-01 6.488928e-01 6.026540e-01 1.395904e-01 -2.173881e-01 -6.388227e-01 -1.005967e+00 -8.950422e-01 -7.259622e-01 -8.708283e-01 -9.330258e-01 -8.708283e-01 -7.259622e-01 -8.950422e-01 -1.005967e+00 -6.388227e-01 -2.173881e-01 1.395904e-01 6.026540e-01 6.488928e-01 3.392620e-01 3.385109e-01 3.750335e-01 4.884201e-01 6.653176e-01 7.892790e-01 
7.063057e-01 6.517381e-01 5.666389e-01 4.464607e-01 3.708502e-01 3.403568e-01 3.580742e-01 4.980278e-01 7.629505e-01 6.749154e-01 9.495825e-02 -6.419735e-01 -1.480234e+00 -1.270537e+00 -6.394419e-01 -6.989882e-01 -7.738973e-01 -6.989882e-01 -6.394419e-01 -1.270537e+00 -1.480234e+00 -6.419735e-01 9.495825e-02 6.749154e-01 7.629505e-01 4.980278e-01 3.580742e-01 3.403568e-01 3.708502e-01 4.464607e-01 5.666389e-01 6.517381e-01 
5.613506e-01 5.229513e-01 4.657305e-01 3.795360e-01 3.198248e-01 2.801860e-01 2.742481e-01 2.972446e-01 4.566859e-01 5.064856e-01 5.568963e-01 5.970092e-01 -6.493526e-01 -1.995037e+00 -1.714404e+00 -5.883762e-01 1.939081e-02 -5.883762e-01 -1.714404e+00 -1.995037e+00 -6.493526e-01 5.970092e-01 5.568963e-01 5.064856e-01 4.566859e-01 2.972446e-01 2.742481e-01 2.801860e-01 3.198248e-01 3.795360e-01 4.657305e-01 5.229513e-01 
4.416314e-01 4.163422e-01 3.776106e-01 3.165312e-01 2.662118e-01 2.224996e-01 1.881437e-01 1.634149e-01 1.563626e-01 1.349422e-01 6.542374e-02 6.760418e-01 1.063323e+00 1.109018e-01 -1.408200e+00 -2.040674e+00 -1.859381e+00 -2.040674e+00 -1.408200e+00 1.109018e-01 1.063323e+00 6.760418e-01 6.542374e-02 1.349422e-01 1.563626e-01 1.634149e-01 1.881437e-01 2.224996e-01 2.662118e-01 3.165312e-01 3.776106e-01 4.163422e-01 
3.317535e-01 3.134431e-01 2.846183e-01 2.346248e-01 1.844987e-01 1.285662e-01 6.537552e-02 -2.426510e-03 -9.437432e-02 -1.838207e-01 -4.079146e-01 -3.519203e-01 -1.747262e-01 3.316133e-01 5.297301e-01 -4.700800e-01 -1.106168e+00 -4.700800e-01 5.297301e-01 3.316133e-01 -1.747262e-01 -3.519203e-01 -4.079146e-01 -1.838207e-01 -9.437432e-02 -2.426510e-03 6.537552e-02 1.285662e-01 1.844987e-01 2.346248e-01 2.846183e-01 3.134431e-01 
2.482520e-01 2.361351e-01 2.144120e-01 1.764480e-01 1.310864e-01 7.737114e-02 5.495029e-03 -7.051968e-02 -1.793751e-01 -2.610050e-01 -4.009534e-01 -3.833267e-01 -4.340420e-01 -4.877036e-01 -9.453362e-04 7.126006e-01 1.080393e+00 7.126006e-01 -9.453362e-04 -4.877036e-01 -4.340420e-01 -3.833267e-01 -4.009534e-01 -2.610050e-01 -1.793751e-01 -7.051968e-02 5.495029e-03 7.737114e-02 1.310864e-01 1.764480e-01 2.144120e-01 2.361351e-01 
1.682180e-01 1.591692e-01 1.418388e-01 1.099779e-01 6.796488e-02 1.393623e-02 -6.162527e-02 -1.457945e-01 -2.601328e-01 -3.453777e-01 -4.480244e-01 -4.148115e-01 -2.939286e-01 1.310123e-02 4.193464e-01 6.097991e-01 7.009038e-01 6.097991e-01 4.193464e-01 1.310123e-02 -2.939286e-01 -4.148115e-01 -4.480244e-01 -3.453777e-01 -2.601328e-01 -1.457945e-01 -6.162527e-02 1.393623e-02 6.796488e-02 1.099779e-01 1.418388e-01 1.591692e-01 
1.085666e-01 1.031424e-01 9.124649e-02 6.986183e-02 3.899258e-02 -1.372789e-03 -6.076771e-02 -1.278727e-01 -2.173658e-01 -2.857686e-01 -3.521332e-01 -3.346077e-01 -2.511230e-01 -6.909569e-02 2.883166e-01 6.457133e-01 8.171012e-01 6.457133e-01 2.883166e-01 -6.909569e-02 -2.511230e-01 -3.346077e-01 -3.521332e-01 -2.857686e-01 -2.173658e-01 -1.278727e-01 -6.076771e-02 -1.372789e-03 3.899258e-02 6.986183e-02 9.124649e-02 1.031424e-01 
5.031875e-02 4.740921e-02 4.097790e-02 2.906945e-02 1.155589e-02 -1.204380e-02 -4.665928e-02 -8.613715e-02 -1.370248e-01 -1.741584e-01 -2.041901e-01 -1.810855e-01 -1.108223e-01 2.837288e-02 2.144003e-01 3.485734e-01 4.132062e-01 3.485734e-01 2.144003e-01 2.837288e-02 -1.108223e-01 -1.810855e-01 -2.041901e-01 -1.741584e-01 -1.370248e-01 -8.613715e-02 -4.665928e-02 -1.204380e-02 1.155589e-02 2.906945e-02 4.097790e-02 4.740921e-02 
