# vtk DataFile Version 2.0
Comment goes here
ASCII

DATASET STRUCTURED_POINTS
FIELD FieldData 1
TIME 1 1 double
1.32000000
DIMENSIONS    32   32   1

ORIGIN    0.000   0.000   0.000
SPACING   0.03125 0.03125   1.000

POINT_DATA   1024
SCALARS uY double
LOOKUP_TABLE default

-1.718011e-13 -2.071628e-13 -2.524456e-13 -2.873225e-13 -3.015354e-13 -3.421879e-13 -2.999346e-13 -2.562171e-13 -2.570627e-14 2.443685e-13 6.964776e-13 1.128183e-12 1.559592e-12 1.805482e-12 1.744671e-12 1.108633e-12 1.248026e-13 -9.637539e-13 -1.714723e-12 -1.967418e-12 -1.814148e-12 -1.471525e-12 -1.043022e-12 -5.869929e-13 -2.760823e-13 -2.069401e-15 6.134242e-14 1.283991e-13 5.299213e-14 3.964076e-14 -5.770554e-14 -9.023189e-14 
-2.070336e-02 -1.195029e-02 1.119482e-02 4.575097e-02 8.521133e-02 1.236914e-01 1.558566e-01 1.739888e-01 1.765409e-01 1.564225e-01 1.165366e-01 5.222104e-02 -3.585342e-02 -1.451503e-01 -2.795732e-01 -3.949741e-01 -4.391238e-01 -3.949741e-01 -2.795732e-01 -1.451503e-01 -3.585342e-02 5.222104e-02 1.165366e-01 1.564225e-01 1.765409e-01 1.739888e-01 1.558566e-01 1.236914e-01 8.521133e-02 4.575097e-02 1.119482e-02 -1.195029e-02 
-5.278769e-02 -3.535805e-02 1.117379e-02 7.993800e-02 1.578560e-01 2.337509e-01 2.963006e-01 3.329615e-01 3.377568e-01 3.012095e-01 2.248060e-01 1.031814e-01 -6.086435e-02 -2.689676e-01 -5.244330e-01 -7.467157e-01 -8.324038e-01 -7.467157e-01 -5.244330e-01 -2.689676e-01 -6.086435e-02 1.031814e-01 2.248060e-01 3.012095e-01 3.377568e-01 3.329615e-01 2.963006e-01 2.337509e-01 1.578560e-01 7.993800e-02 1.117379e-02 -3.535805e-02 
-1.192635e-01 -9.238985e-02 -2.298961e-02 7.947808e-02 1.935888e-01 3.030400e-01 3.935916e-01 4.443206e-01 4.544019e-01 4.025354e-01 3.054032e-01 1.489423e-01 -5.250100e-02 -3.023256e-01 -6.565221e-01 -9.836010e-01 -1.110682e+00 -9.836010e-01 -6.565221e-01 -3.023256e-01 -5.250100e-02 1.489423e-01 3.054032e-01 4.025354e-01 4.544019e-01 4.443206e-01 3.935916e-01 3.030400e-01 1.935888e-01 7.947808e-02 -2.298961e-02 -9.238985e-02 
-2.092266e-01 -1.728696e-01 -7.836973e-02 5.898118e-02 2.098915e-01 3.531715e-01 4.698026e-01 5.385297e-01 5.528375e-01 4.968102e-01 3.800302e-01 1.960341e-01 -2.677645e-02 -3.189136e-01 -7.472022e-01 -1.151743e+00 -1.311200e+00 -1.151743e+00 -7.472022e-01 -3.189136e-01 -2.677645e-02 1.960341e-01 3.800302e-01 4.968102e-01 5.528375e-01 5.385297e-01 4.698026e-01 3.531715e-01 2.098915e-01 5.898118e-02 -7.836973e-02 -1.728696e-01 
-3.476918e-01 -2.996361e-01 -1.805579e-01 -6.723134e-03 1.789978e-01 3.523615e-01 4.921837e-01 5.700056e-01 5.934298e-01 5.240334e-01 4.077870e-01 2.056673e-01 2.026106e-02 -1.812626e-01 -6.604653e-01 -1.164446e+00 -1.355581e+00 -1.164446e+00 -6.604653e-01 -1.812626e-01 2.026106e-02 2.056673e-01 4.077870e-01 5.240334e-01 5.934298e-01 5.700056e-01 4.921837e-01 3.523615e-01 1.789978e-01 -6.723134e-03 -1.805579e-01 -2.996361e-01 
-5.002323e-01 -4.408061e-01 -2.927801e-01 -8.026208e-02 1.449845e-01 3.518239e-01 5.175764e-01 6.159361e-01 6.485989e-01 5.982743e-01 4.676948e-01 2.411348e-01 6.196238e-02 -1.881713e-01 -6.747592e-01 -1.097930e+00 -1.246323e+00 -1.097930e+00 -6.747592e-01 -1.881713e-01 6.196238e-02 2.411348e-01 4.676948e-01 5.982743e-01 6.485989e-01 6.159361e-01 5.175764e-01 3.518239e-01 1.449845e-01 -8.026208e-02 -2.927801e-01 -4.408061e-01 
-6.891344e-01 -6.145925e-01 -4.405319e-01 -1.866952e-01 7.263079e-02 3.105328e-01 4.958851e-01 6.011329e-01 6.429812e-01 5.667290e-01 4.171256e-01 5.863056e-02 6.849553e-03 1.188716e-01 -3.685485e-01 -8.546091e-01 -9.636493e-01 -8.546091e-01 -3.685485e-01 1.188716e-01 6.849553e-03 5.863056e-02 4.171256e-01 5.667290e-01 6.429812e-01 6.011329e-01 4.958851e-01 3.105328e-01 7.263079e-02 -1.866952e-01 -4.405319e-01 -6.145925e-01 
-8.632587e-01 -7.755438e-01 -5.712003e-01 -2.779497e-01 2.088903e-02 2.868854e-01 5.007573e-01 6.230615e-01 6.858453e-01 6.924959e-01 4.700704e-01 1.227170e-01 5.310215e-03 -4.554192e-01 -7.489763e-01 -2.162469e-01 1.378674e-01 -2.162469e-01 -7.489763e-01 -4.554192e-01 5.310215e-03 1.227170e-01 4.700704e-01 6.924959e-01 6.858453e-01 6.230615e-01 5.007573e-01 2.868854e-01 2.088903e-02 -2.779497e-01 -5.712003e-01 -7.755438e-01 
-1.040424e+00 -9.357572e-01 -7.097204e-01 -3.749082e-01 -5.177544e-02 2.442047e-01 4.685971e-01 6.102668e-01 7.041086e-01 7.604776e-01 2.855335e-01 -5.230859e-01 -6.570977e-01 -1.795907e-01 3.495397e-01 3.983929e-01 2.620536e-01 3.983929e-01 3.495397e-01 -1.795907e-01 -6.570977e-01 -5.230859e-01 2.855335e-01 7.604776e-01 7.041086e-01 6.102668e-01 4.685971e-01 2.442047e-01 -5.177544e-02 -3.749082e-01 -7.097204e-01 -9.357572e-01 
-1.163701e+00 -1.047688e+00 -8.012182e-01 -4.352129e-01 -8.578977e-02 2.183945e-01 4.673589e-01 5.576912e-01 7.672429e-01 8.148729e-01 1.131069e-01 -2.633576e-01 2.657040e-01 4.766739e-01 1.929326e-02 -3.213735e-01 -3.276950e-01 -3.213735e-01 1.929326e-02 4.766739e-01 2.657040e-01 -2.633576e-01 1.131069e-01 8.148729e-01 7.672429e-01 5.576912e-01 4.673589e-01 2.183945e-01 -8.578977e-02 -4.352129e-01 -8.012182e-01 -1.047688e+00 
-1.245395e+00 -1.119727e+00 -8.706908e-01 -4.790857e-01 -1.327130e-01 1.929655e-01 4.201362e-01 5.823079e-01 1.156460e+00 6.967244e-01 -1.305372e-02 1.989091e-01 1.909584e-01 -8.626189e-02 -3.554759e-01 1.416805e-02 4.541537e-01 1.416805e-02 -3.554759e-01 -8.626189e-02 1.909584e-01 1.989091e-01 -1.305372e-02 6.967244e-01 1.156460e+00 5.823079e-01 4.201362e-01 1.929655e-01 -1.327130e-01 -4.790857e-01 -8.706908e-01 -1.119727e+00 
-1.233367e+00 -1.107782e+00 -8.709989e-01 -4.727407e-01 -1.376983e-01 2.287593e-01 4.484325e-01 7.380506e-01 1.397801e+00 5.384683e-01 -1.719350e-01 -1.582988e-01 -3.324458e-01 -4.342134e-02 3.061944e-03 2.769650e-01 5.609320e-01 2.769650e-01 3.061944e-03 -4.342134e-02 -3.324458e-01 -1.582988e-01 -1.719350e-01 5.384683e-01 1.397801e+00 7.380506e-01 4.484325e-01 2.287593e-01 -1.376983e-01 -4.727407e-01 -8.709989e-01 -1.107782e+00 
-1.127823e+00 -1.015692e+00 -8.154503e-01 -4.505024e-01 -1.748817e-01 2.243237e-01 3.918960e-01 1.350732e+00 1.794660e+00 -5.083886e-01 -5.552904e-01 2.957190e-01 -4.745356e-02 -1.450696e-02 -1.609500e-01 1.183148e-01 2.627638e-01 1.183148e-01 -1.609500e-01 -1.450696e-02 -4.745356e-02 2.957190e-01 -5.552904e-01 -5.083886e-01 1.794660e+00 1.350732e+00 3.918960e-01 2.243237e-01 -1.748817e-01 -4.505024e-01 -8.154503e-01 -1.015692e+00 
-8.856809e-01 -7.975233e-01 -6.581042e-01 -3.658548e-01 -1.741767e-01 2.202508e-01 3.100587e-01 1.356789e+00 9.490294e-01 -1.319171e+00 9.479142e-02 7.797958e-01 -1.179620e-01 4.272818e-03 -5.412274e-02 1.214401e-01 1.866532e-01 1.214401e-01 -5.412274e-02 4.272818e-03 -1.179620e-01 7.797958e-01 9.479142e-02 -1.319171e+00 9.490294e-01 1.356789e+00 3.100587e-01 2.202508e-01 -1.741767e-01 -3.658548e-01 -6.581042e-01 -7.975233e-01 
-4.970741e-01 -4.492110e-01 -3.645287e-01 -1.940260e-01 -5.703808e-02 1.836398e-01 2.936354e-01 7.898444e-01 2.649724e-01 -6.605026e-01 4.062488e-01 3.844391e-01 -1.929719e-01 -6.312622e-02 -1.123160e-01 8.942568e-03 2.107020e-02 8.942568e-03 -1.123160e-01 -6.312622e-02 -1.929719e-01 3.844391e-01 4.062488e-01 -6.605026e-01 2.649724e-01 7.898444e-01 2.936354e-01 1.836398e-01 -5.703808e-02 -1.940260e-01 -3.645287e-01 -4.492110e-01 
7.113461e-13 3.565428e-13 1.449994e-13 -1.509990e-13 -1.474533e-13 -2.352450e-13 1.179278e-13 1.401125e-12 -1.053082e-12 -8.220119e-13 3.295928e-12 1.925785e-12 1.168150e-12 9.154000e-13 7.111712e-13 1.476867e-13 -1.529954e-13 -5.877439e-13 -1.416738e-12 -1.627070e-12 -2.034191e-12 -1.413470e-13 1.038342e-12 1.988120e-12 -1.548709e-12 -4.671017e-12 -3.276736e-12 -1.846901e-12 -3.533580e-13 6.635026e-13 1.078171e-12 9.639981e-13 
4.970741e-01 4.492110e-01 3.645287e-01 1.940260e-01 5.703808e-02 -1.836398e-01 -2.936354e-01 -7.898444e-01 -2.649724e-01 6.605026e-01 -4.062488e-01 -3.844391e-01 1.929719e-01 6.312622e-02 1.123160e-01 -8.942568e-03 -2.107020e-02 -8.942568e-03 1.123160e-01 6.312622e-02 1.929719e-01 -3.844391e-01 -4.062488e-01 6.605026e-01 -2.649724e-01 -7.898444e-01 -2.936354e-01 -1.836398e-01 5.703808e-02 1.940260e-01 3.645287e-01 4.492110e-01 
8.856809e-01 7.975233e-01 6.581042e-01 3.658548e-01 1.741767e-01 -2.202508e-01 -3.100587e-01 -1.356789e+00 -9.490294e-01 1.319171e+00 -9.479142e-02 -7.797958e-01 1.179620e-01 -4.272818e-03 5.412274e-02 -1.214401e-01 -1.866532e-01 -1.214401e-01 5.412274e-02 -4.272818e-03 1.179620e-01 -7.797958e-01 -9.479142e-02 1.319171e+00 -9.490294e-01 -1.356789e+00 -3.100587e-01 -2.202508e-01 1.741767e-01 3.658548e-01 6.581042e-01 7.975233e-01 
1.127823e+00 1.015692e+00 8.154503e-01 4.505024e-01 1.748817e-01 -2.243237e-01 -3.918960e-01 -1.350732e+00 -1.794660e+00 5.083886e-01 5.552904e-01 -2.957190e-01 4.745356e-02 1.450696e-02 1.609500e-01 -1.183148e-01 -2.627638e-01 -1.183148e-01 1.609500e-01 1.450696e-02 4.745356e-02 -2.957190e-01 5.552904e-01 5.083886e-01 -1.794660e+00 -1.350732e+00 -3.918960e-01 -2.243237e-01 1.748817e-01 4.505024e-01 8.154503e-01 1.015692e+00 
1.233367e+00 1.107782e+00 8.709989e-01 4.727407e-01 1.376983e-01 -2.287593e-01 -4.484325e-01 -7.380506e-01 -1.397801e+00 -5.384683e-01 1.719350e-01 1.582988e-01 3.324458e-01 4.342134e-02 -3.061944e-03 -2.769650e-01 -5.609320e-01 -2.769650e-01 -3.061944e-03 4.342134e-02 3.324458e-01 1.582988e-01 1.719350e-01 -5.384683e-01 -1.397801e+00 -7.380506e-01 -4.484325e-01 -2.287593e-01 1.376983e-01 4.727407e-01 8.709989e-01 1.107782e+00 
1.245395e+00 1.119727e+00 8.706908e-01 4.790857e-01 1.327130e-01 -1.929655e-01 -4.201362e-01 -5.823079e-01 -1.156460e+00 -6.967244e-01 1.305372e-02 -1.989091e-01 -1.909584e-01 8.626189e-02 3.554759e-01 -1.416805e-02 -4.541537e-01 -1.416805e-02 3.554759e-01 8.626189e-02 -1.909584e-01 -1.989091e-01 1.305372e-02 -6.967244e-01 -1.156460e+00 -5.823079e-01 -4.201362e-01 -1.929655e-01 1.327130e-01 4.790857e-01 8.706908e-01 1.119727e+00 
1.163701e+00 1.047688e+00 8.012182e-01 4.352129e-01 8.578977e-02 -2.183945e-01 -4.673589e-01 -5.576912e-01 -7.672429e-01 -8.148729e-01 -1.131069e-01 2.633576e-01 -2.657040e-01 -4.766739e-01 -1.929326e-02 3.213735e-01 3.276950e-01 3.213735e-01 -1.929326e-02 -4.766739e-01 -2.657040e-01 2.633576e-01 -1.131069e-01 -8.148729e-01 -7.672429e-01 -5.576912e-01 -4.673589e-01 -2.183945e-01 8.578977e-02 4.352129e-01 8.012182e-01 1.047688e+00 
1.040424e+00 9.357572e-01 7.097204e-01 3.749082e-01 5.177544e-02 -2.442047e-01 -4.685971e-01 -6.102668e-01 -7.041086e-01 -7.604776e-01 -2.855335e-01 5.230859e-01 6.570977e-01 1.795907e-01 -3.495397e-01 -3.983929e-01 -2.620536e-01 -3.983929e-01 -3.495397e-01 1.795907e-01 6.570977e-01 5.230859e-01 -2.855335e-01 -7.604776e-01 -7.041086e-01 -6.102668e-01 -4.685971e-01 -2.442047e-01 5.177544e-02 3.749082e-01 7.097204e-01 9.357572e-01 
8.632587e-01 7.755438e-01 5.712003e-01 2.779497e-01 -2.088903e-02 -2.868854e-01 -5.007573e-01 -6.230615e-01 -6.858453e-01 -6.924959e-01 -4.700704e-01 -1.227170e-01 -5.310215e-03 4.554192e-01 7.489763e-01 2.162469e-01 -1.378674e-01 2.162469e-01 7.489763e-01 4.554192e-01 -5.310215e-03 -1.227170e-01 -4.700704e-01 -6.924959e-01 -6.858453e-01 -6.230615e-01 -5.007573e-01 -2.868854e-01 -2.088903e-02 2.779497e-01 5.712003e-01 7.755438e-01 
6.891344e-01 6.145925e-01 4.405319e-01 1.866952e-01 -7.263079e-02 -3.105328e-01 -4.958851e-01 -6.011329e-01 -6.429812e-01 -5.667290e-01 -4.171256e-01 -5.863056e-02 -6.849553e-03 -1.188716e-01 3.685485e-01 8.546091e-01 9.636493e-01 8.546091e-01 3.685485e-01 -1.188716e-01 -6.849553e-03 -5.863056e-02 -4.171256e-01 -5.667290e-01 -6.429812e-01 -6.011329e-01 -4.958851e-01 -3.105328e-01 -7.263079e-02 1.866952e-01 4.405319e-01 6.145925e-01 
5.002323e-01 4.408061e-01 2.927801e-01 8.026208e-02 -1.449845e-01 -3.518239e-01 -5.175764e-01 -6.159361e-01 -6.485989e-01 -5.982743e-01 -4.676948e-01 -2.411348e-01 -6.196238e-02 1.881713e-01 6.747592e-01 1.097930e+00 1.246323e+00 1.097930e+00 6.747592e-01 1.881713e-01 -6.196238e-02 -2.411348e-01 -4.676948e-01 -5.982743e-01 -6.485989e-01 -6.159361e-01 -5.175764e-01 -3.518239e-01 -1.449845e-01 8.026208e-02 2.927801e-01 4.408061e-01 
3.476918e-01 2.996361e-01 1.805579e-01 6.723134e-03 -1.789978e-01 -3.523615e-01 -4.921837e-01 -5.700056e-01 -5.934298e-01 -5.240334e-01 -4.077870e-01 -2.056673e-01 -2.026106e-02 1.812626e-01 6.604653e-01 1.164446e+00 1.355581e+00 1.164446e+00 6.604653e-01 1.812626e-01 -2.026106e-02 -2.056673e-01 -4.077870e-01 -5.240334e-01 -5.934298e-01 -5.700056e-01 -4.921837e-01 -3.523615e-01 -1.789978e-01 6.723134e-03 1.805579e-01 2.996361e-01 
2.092266e-01 1.728696e-01 7.836973e-02 -5.898118e-02 -2.098915e-01 -3.531715e-01 -4.698026e-01 -5.385297e-01 -5.528375e-01 -4.968102e-01 -3.800302e-01 -1.960341e-01 2.677645e-02 3.189136e-01 7.472022e-01 1.151743e+00 1.311200e+00 1.151743e+00 7.472022e-01 3.189136e-01 2.677645e-02 -1.960341e-01 -3.800302e-01 -4.968102e-01 -5.528375e-01 -5.385297e-01 -4.698026e-01 -3.531715e-01 -2.098915e-01 -5.898118e-02 7.836973e-02 1.728696e-01 
1.192635e-01 9.238985e-02 2.298961e-02 -7.947808e-02 -1.935888e-01 -3.030400e-01 -3.935916e-01 -4.443206e-01 -4.544019e-01 -4.025354e-01 -3.054032e-01 -1.489423e-01 5.250100e-02 3.023256e-01 6.565221e-01 9.836010e-01 1.110682e+00 9.836010e-01 6.565221e-01 3.023256e-01 5.250100e-02 -1.489423e-01 -3.054032e-01 -4.025354e-01 -4.544019e-01 -4.443206e-01 -3.935916e-01 -3.030400e-01 -1.935888e-01 -7.947808e-02 2.298961e-02 9.238985e-02 
5.278769e-02 3.535805e-02 -1.117379e-02 -7.993800e-02 -1.578560e-01 -2.337509e-01 -2.963006e-01 -3.329615e-01 -3.377568e-01 -3.012095e-01 -2.248060e-01 -1.031814e-01 6.086435e-02 2.689676e-01 5.244330e-01 7.467157e-01 8.324038e-01 7.467157e-01 5.244330e-01 2.689676e-01 6.086435e-02 -1.031814e-01 -2.248060e-01 -3.012095e-01 -3.377568e-01 -3.329615e-01 -2.963006e-01 -2.337509e-01 -1.578560e-01 -7.993800e-02 -1.117379e-02 3.535805e-02 
2.070336e-02 1.195029e-02 -1.119482e-02 -4.575097e-02 -8.521133e-02 -1.236914e-01 -1.558566e-01 -1.739888e-01 -1.765409e-01 -1.564225e-01 -1.165366e-01 -5.222104e-02 3.585342e-02 1.451503e-01 2.795732e-01 3.949741e-01 4.391238e-01 3.949741e-01 2.795732e-01 1.451503e-01 3.585342e-02 -5.222104e-02 -1.165366e-01 -1.564225e-01 -1.765409e-01 -1.739888e-01 -1.558566e-01 -1.236914e-01 -8.521133e-02 -4.575097e-02 -1.119482e-02 1.195029e-02 
