# vtk DataFile Version 2.0
Comment goes here
ASCII

DATASET STRUCTURED_POINTS
FIELD FieldData 1
TIME 1 1 double
0.80000000
DIMENSIONS    32   32   1

ORIGIN    0.000   0.000   0.000
SPACING   0.03125 0.03125   1.000

POINT_DATA   1024
SCALARS uY double
LOOKUP_TABLE default

-1.116883e-15 -2.146499e-15 -4.636330e-15 -4.621710e-15 -6.335418e-15 -5.509030e-15 -8.066787e-15 -8.088536e-15 -1.216165e-14 -7.293304e-15 -6.485326e-15 8.773695e-15 7.957945e-15 2.093439e-14 9.495310e-15 4.816866e-15 1.675935e-15 -4.581112e-14 -8.515907e-15 -1.850979e-14 -1.791680e-15 9.609336e-15 1.079782e-14 2.160836e-14 1.470611e-14 1.874920e-14 9.958626e-15 1.182236e-14 6.279710e-15 8.030645e-15 3.963506e-15 2.812311e-15 
-5.454068e-03 5.125987e-04 1.710014e-02 4.299959e-02 7.699029e-02 1.150311e-01 1.549935e-01 1.861188e-01 2.039314e-01 1.985543e-01 1.690526e-01 1.089970e-01 6.566740e-03 -1.390405e-01 -3.379810e-01 -5.131728e-01 -5.758533e-01 -5.131728e-01 -3.379810e-01 -1.390405e-01 6.566740e-03 1.089970e-01 1.690526e-01 1.985543e-01 2.039314e-01 1.861188e-01 1.549935e-01 1.150311e-01 7.699029e-02 4.299959e-02 1.710014e-02 5.125987e-04 
-1.870451e-02 -6.408744e-03 2.628647e-02 7.699254e-02 1.415462e-01 2.127951e-01 2.870571e-01 3.445852e-01 3.779304e-01 3.648369e-01 3.066445e-01 1.836156e-01 -1.081794e-02 -2.878570e-01 -6.309683e-01 -8.885596e-01 -9.766525e-01 -8.885596e-01 -6.309683e-01 -2.878570e-01 -1.081794e-02 1.836156e-01 3.066445e-01 3.648369e-01 3.779304e-01 3.445852e-01 2.870571e-01 2.127951e-01 1.415462e-01 7.699254e-02 2.628647e-02 -6.408744e-03 
-5.813444e-02 -3.947831e-02 9.476672e-03 8.251743e-02 1.721312e-01 2.665157e-01 3.634583e-01 4.358252e-01 4.778307e-01 4.591023e-01 3.851302e-01 2.379150e-01 4.982666e-03 -3.048576e-01 -7.564330e-01 -1.137540e+00 -1.255019e+00 -1.137540e+00 -7.564330e-01 -3.048576e-01 4.982666e-03 2.379150e-01 3.851302e-01 4.591023e-01 4.778307e-01 4.358252e-01 3.634583e-01 2.665157e-01 1.721312e-01 8.251743e-02 9.476672e-03 -3.947831e-02 
-1.174294e-01 -9.021094e-02 -2.317740e-02 7.467789e-02 1.870315e-01 2.997855e-01 4.111256e-01 4.910968e-01 5.380445e-01 5.132323e-01 4.307396e-01 2.435327e-01 -4.412734e-02 -4.510483e-01 -8.810324e-01 -1.081066e+00 -1.119779e+00 -1.081066e+00 -8.810324e-01 -4.510483e-01 -4.412734e-02 2.435327e-01 4.307396e-01 5.132323e-01 5.380445e-01 4.910968e-01 4.111256e-01 2.997855e-01 1.870315e-01 7.467789e-02 -2.317740e-02 -9.021094e-02 
-2.212679e-01 -1.840202e-01 -9.441014e-02 3.077436e-02 1.654943e-01 2.889394e-01 4.042128e-01 4.754423e-01 5.152383e-01 4.764578e-01 3.925312e-01 1.894180e-01 -5.821054e-02 -2.248726e-01 -6.142808e-01 -1.052139e+00 -1.199882e+00 -1.052139e+00 -6.142808e-01 -2.248726e-01 -5.821054e-02 1.894180e-01 3.925312e-01 4.764578e-01 5.152383e-01 4.754423e-01 4.042128e-01 2.889394e-01 1.654943e-01 3.077436e-02 -9.441014e-02 -1.840202e-01 
-3.495684e-01 -2.977245e-01 -1.796034e-01 -1.664368e-02 1.461821e-01 2.855356e-01 4.050338e-01 4.713383e-01 5.084766e-01 4.835542e-01 4.207464e-01 1.102912e-01 -4.135662e-01 -9.112863e-01 -8.598729e-01 -1.250647e-01 2.947757e-01 -1.250647e-01 -8.598729e-01 -9.112863e-01 -4.135662e-01 1.102912e-01 4.207464e-01 4.835542e-01 5.084766e-01 4.713383e-01 4.050338e-01 2.855356e-01 1.461821e-01 -1.664368e-02 -1.796034e-01 -2.977245e-01 
-5.257134e-01 -4.570813e-01 -3.033415e-01 -9.509304e-02 1.025190e-01 2.572331e-01 3.770822e-01 4.172614e-01 4.262320e-01 3.541417e-01 1.201335e-01 -7.775904e-01 -1.475501e+00 -5.621062e-01 7.043288e-01 8.632349e-01 6.228085e-01 8.632349e-01 7.043288e-01 -5.621062e-01 -1.475501e+00 -7.775904e-01 1.201335e-01 3.541417e-01 4.262320e-01 4.172614e-01 3.770822e-01 2.572331e-01 1.025190e-01 -9.509304e-02 -3.033415e-01 -4.570813e-01 
-7.138031e-01 -6.238315e-01 -4.306647e-01 -1.658640e-01 7.435908e-02 2.540902e-01 3.800186e-01 3.932612e-01 3.487464e-01 1.957799e-01 -3.167860e-01 -7.663251e-01 1.052254e-01 1.189372e+00 6.591412e-01 -4.764822e-01 -9.262767e-01 -4.764822e-01 6.591412e-01 1.189372e+00 1.052254e-01 -7.663251e-01 -3.167860e-01 1.957799e-01 3.487464e-01 3.932612e-01 3.800186e-01 2.540902e-01 7.435908e-02 -1.658640e-01 -4.306647e-01 -6.238315e-01 
-9.265249e-01 -8.152872e-01 -5.809828e-01 -2.554271e-01 3.341589e-02 2.478377e-01 3.897728e-01 3.493225e-01 2.725945e-01 2.604318e-01 3.601327e-03 1.258239e-01 9.171626e-01 4.578786e-01 -4.188850e-01 -3.705803e-01 -3.068337e-01 -3.705803e-01 -4.188850e-01 4.578786e-01 9.171626e-01 1.258239e-01 3.601327e-03 2.604318e-01 2.725945e-01 3.493225e-01 3.897728e-01 2.478377e-01 3.341589e-02 -2.554271e-01 -5.809828e-01 -8.152872e-01 
-1.111753e+00 -9.790924e-01 -7.121841e-01 -3.243463e-01 1.242910e-02 2.739940e-01 4.530543e-01 2.923795e-01 4.859742e-01 6.323346e-01 1.272277e-01 -7.538218e-02 1.735266e-01 1.330543e-02 -1.050784e-01 1.668073e-01 2.418538e-01 1.668073e-01 -1.050784e-01 1.330543e-02 1.735266e-01 -7.538218e-02 1.272277e-01 6.323346e-01 4.859742e-01 2.923795e-01 4.530543e-01 2.739940e-01 1.242910e-02 -3.243463e-01 -7.121841e-01 -9.790924e-01 
-1.268202e+00 -1.122986e+00 -8.388069e-01 -4.014812e-01 -2.987736e-02 3.085355e-01 5.015763e-01 4.140363e-01 1.029292e+00 5.207529e-01 -2.592472e-01 2.778279e-01 1.338149e-01 -2.118997e-01 -8.765120e-02 2.152140e-01 3.700007e-01 2.152140e-01 -8.765120e-02 -2.118997e-01 1.338149e-01 2.778279e-01 -2.592472e-01 5.207529e-01 1.029292e+00 4.140363e-01 5.015763e-01 3.085355e-01 -2.987736e-02 -4.014812e-01 -8.388069e-01 -1.122986e+00 
-1.329657e+00 -1.182732e+00 -9.141902e-01 -4.488054e-01 -7.488859e-02 4.119400e-01 4.491793e-01 8.511613e-01 1.384548e+00 -1.266480e-01 -1.955984e-01 4.772612e-01 -3.303171e-02 -1.246609e-01 -5.894471e-02 1.424834e-01 2.155087e-01 1.424834e-01 -5.894471e-02 -1.246609e-01 -3.303171e-02 4.772612e-01 -1.955984e-01 -1.266480e-01 1.384548e+00 8.511613e-01 4.491793e-01 4.119400e-01 -7.488859e-02 -4.488054e-01 -9.141902e-01 -1.182732e+00 
-1.286538e+00 -1.159001e+00 -9.340693e-01 -5.006627e-01 -1.439850e-01 4.186358e-01 4.564812e-01 1.419630e+00 1.293820e+00 -6.715294e-01 2.105705e-01 5.207019e-01 -1.462713e-01 -8.479829e-02 -1.326856e-01 5.702371e-02 7.881641e-02 5.702371e-02 -1.326856e-01 -8.479829e-02 -1.462713e-01 5.207019e-01 2.105705e-01 -6.715294e-01 1.293820e+00 1.419630e+00 4.564812e-01 4.186358e-01 -1.439850e-01 -5.006627e-01 -9.340693e-01 -1.159001e+00 
-1.062522e+00 -9.763473e-01 -8.284490e-01 -5.097848e-01 -1.932695e-01 3.508549e-01 6.862055e-01 1.429106e+00 6.883911e-01 -7.146108e-01 4.244566e-01 4.601801e-01 -1.290547e-01 -4.962118e-02 -1.185167e-01 1.022260e-02 2.994844e-03 1.022260e-02 -1.185167e-01 -4.962118e-02 -1.290547e-01 4.601801e-01 4.244566e-01 -7.146108e-01 6.883911e-01 1.429106e+00 6.862055e-01 3.508549e-01 -1.932695e-01 -5.097848e-01 -8.284490e-01 -9.763473e-01 
-6.606203e-01 -6.197401e-01 -5.423368e-01 -3.470136e-01 -8.828222e-02 3.204620e-01 6.644814e-01 7.962073e-01 1.988985e-01 -2.557271e-01 3.273828e-01 1.943073e-01 -1.137236e-01 -6.462816e-02 -1.007126e-01 -2.386768e-02 -3.079466e-02 -2.386768e-02 -1.007126e-01 -6.462816e-02 -1.137236e-01 1.943073e-01 3.273828e-01 -2.557271e-01 1.988985e-01 7.962073e-01 6.644814e-01 3.204620e-01 -8.828222e-02 -3.470136e-01 -5.423368e-01 -6.197401e-01 
1.142124e-14 1.899618e-14 8.008384e-15 -2.006888e-14 -5.127399e-14 -7.150241e-14 -7.188964e-14 -8.495546e-15 1.074297e-13 7.280935e-14 -2.562478e-14 -7.926473e-14 -5.721720e-14 -4.837896e-14 -2.614860e-14 -1.876291e-14 -1.541068e-14 -7.317445e-15 -2.232260e-14 -1.076174e-14 -2.819120e-14 -2.728525e-15 7.344594e-14 2.873110e-13 1.682464e-13 8.955555e-15 4.776999e-14 -3.137423e-14 -6.616355e-14 -6.414268e-14 -3.635443e-14 -1.009685e-14 
6.606203e-01 6.197401e-01 5.423368e-01 3.470136e-01 8.828222e-02 -3.204620e-01 -6.644814e-01 -7.962073e-01 -1.988985e-01 2.557271e-01 -3.273828e-01 -1.943073e-01 1.137236e-01 6.462816e-02 1.007126e-01 2.386768e-02 3.079466e-02 2.386768e-02 1.007126e-01 6.462816e-02 1.137236e-01 -1.943073e-01 -3.273828e-01 2.557271e-01 -1.988985e-01 -7.962073e-01 -6.644814e-01 -3.204620e-01 8.828222e-02 3.470136e-01 5.423368e-01 6.197401e-01 
1.062522e+00 9.763473e-01 8.284490e-01 5.097848e-01 1.932695e-01 -3.508549e-01 -6.862055e-01 -1.429106e+00 -6.883911e-01 7.146108e-01 -4.244566e-01 -4.601801e-01 1.290547e-01 4.962118e-02 1.185167e-01 -1.022260e-02 -2.994844e-03 -1.022260e-02 1.185167e-01 4.962118e-02 1.290547e-01 -4.601801e-01 -4.244566e-01 7.146108e-01 -6.883911e-01 -1.429106e+00 -6.862055e-01 -3.508549e-01 1.932695e-01 5.097848e-01 8.284490e-01 9.763473e-01 
1.286538e+00 1.159001e+00 9.340693e-01 5.006627e-01 1.439850e-01 -4.186358e-01 -4.564812e-01 -1.419630e+00 -1.293820e+00 6.715294e-01 -2.105705e-01 -5.207019e-01 1.462713e-01 8.479829e-02 1.326856e-01 -5.702371e-02 -7.881641e-02 -5.702371e-02 1.326856e-01 8.479829e-02 1.462713e-01 -5.207019e-01 -2.105705e-01 6.715294e-01 -1.293820e+00 -1.419630e+00 -4.564812e-01 -4.186358e-01 1.439850e-01 5.006627e-01 9.340693e-01 1.159001e+00 
1.329657e+00 1.182732e+00 9.141902e-01 4.488054e-01 7.488859e-02 -4.119400e-01 -4.491793e-01 -8.511613e-01 -1.384548e+00 1.266480e-01 1.955984e-01 -4.772612e-01 3.303171e-02 1.246609e-01 5.894471e-02 -1.424834e-01 -2.155087e-01 -1.424834e-01 5.894471e-02 1.246609e-01 3.303171e-02 -4.772612e-01 1.955984e-01 1.266480e-01 -1.384548e+00 -8.511613e-01 -4.491793e-01 -4.119400e-01 7.488859e-02 4.488054e-01 9.141902e-01 1.182732e+00 
1.268202e+00 1.122986e+00 8.388069e-01 4.014812e-01 2.987736e-02 -3.085355e-01 -5.015763e-01 -4.140363e-01 -1.029292e+00 -5.207529e-01 2.592472e-01 -2.778279e-01 -1.338149e-01 2.118997e-01 8.765120e-02 -2.152140e-01 -3.700007e-01 -2.152140e-01 8.765120e-02 2.118997e-01 -1.338149e-01 -2.778279e-01 2.592472e-01 -5.207529e-01 -1.029292e+00 -4.140363e-01 -5.015763e-01 -3.085355e-01 2.987736e-02 4.014812e-01 8.388069e-01 1.122986e+00 
1.111753e+00 9.790924e-01 7.121841e-01 3.243463e-01 -1.242910e-02 -2.739940e-01 -4.530543e-01 -2.923795e-01 -4.859742e-01 -6.323346e-01 -1.272277e-01 7.538218e-02 -1.735266e-01 -1.330543e-02 1.050784e-01 -1.668073e-01 -2.418538e-01 -1.668073e-01 1.050784e-01 -1.330543e-02 -1.735266e-01 7.538218e-02 -1.272277e-01 -6.323346e-01 -4.859742e-01 -2.923795e-01 -4.530543e-01 -2.739940e-01 -1.242910e-02 3.243463e-01 7.121841e-01 9.790924e-01 
9.265249e-01 8.152872e-01 5.809828e-01 2.554271e-01 -3.341589e-02 -2.478377e-01 -3.897728e-01 -3.493225e-01 -2.725945e-01 -2.604318e-01 -3.601327e-03 -1.258239e-01 -9.171626e-01 -4.578786e-01 4.188850e-01 3.705803e-01 3.068337e-01 3.705803e-01 4.188850e-01 -4.578786e-01 -9.171626e-01 -1.258239e-01 -3.601327e-03 -2.604318e-01 -2.725945e-01 -3.493225e-01 -3.897728e-01 -2.478377e-01 -3.341589e-02 2.554271e-01 5.809828e-01 8.152872e-01 
7.138031e-01 6.238315e-01 4.306647e-01 1.658640e-01 -7.435908e-02 -2.540902e-01 -3.800186e-01 -3.932612e-01 -3.487464e-01 -1.957799e-01 3.167860e-01 7.663251e-01 -1.052254e-01 -1.189372e+00 -6.591412e-01 4.764822e-01 9.262767e-01 4.764822e-01 -6.591412e-01 -1.189372e+00 -1.052254e-01 7.663251e-01 3.167860e-01 -1.957799e-01 -3.487464e-01 -3.932612e-01 -3.800186e-01 -2.540902e-01 -7.435908e-02 1.658640e-01 4.306647e-01 6.238315e-01 
5.257134e-01 4.570813e-01 3.033415e-01 9.509304e-02 -1.025190e-01 -2.572331e-01 -3.770822e-01 -4.172614e-01 -4.262320e-01 -3.541417e-01 -1.201335e-01 7.775904e-01 1.475501e+00 5.621062e-01 -7.043288e-01 -8.632349e-01 -6.228085e-01 -8.632349e-01 -7.043288e-01 5.621062e-01 1.475501e+00 7.775904e-01 -1.201335e-01 -3.541417e-01 -4.262320e-01 -4.172614e-01 -3.770822e-01 -2.572331e-01 -1.025190e-01 9.509304e-02 3.033415e-01 4.570813e-01 
3.495684e-01 2.977245e-01 1.796034e-01 1.664368e-02 -1.461821e-01 -2.855356e-01 -4.050338e-01 -4.713383e-01 -5.084766e-01 -4.835542e-01 -4.207464e-01 -1.102912e-01 4.135662e-01 9.112863e-01 8.598729e-01 1.250647e-01 -2.947757e-01 1.250647e-01 8.598729e-01 9.112863e-01 4.135662e-01 -1.102912e-01 -4.207464e-01 -4.835542e-01 -5.084766e-01 -4.713383e-01 -4.050338e-01 -2.855356e-01 -1.461821e-01 1.664368e-02 1.796034e-01 2.977245e-01 
2.212679e-01 1.840202e-01 9.441014e-02 -3.077436e-02 -1.654943e-01 -2.889394e-01 -4.042128e-01 -4.754423e-01 -5.152383e-01 -4.764578e-01 -3.925312e-01 -1.894180e-01 5.821054e-02 2.248726e-01 6.142808e-01 1.052139e+00 1.199882e+00 1.052139e+00 6.142808e-01 2.248726e-01 5.821054e-02 -1.894180e-01 -3.925312e-01 -4.764578e-01 -5.152383e-01 -4.754423e-01 -4.042128e-01 -2.889394e-01 -1.654943e-01 -3.077436e-02 9.441014e-02 1.840202e-01 
1.174294e-01 9.021094e-02 2.317740e-02 -7.467789e-02 -1.870315e-01 -2.997855e-01 -4.111256e-01 -4.910968e-01 -5.380445e-01 -5.132323e-01 -4.307396e-01 -2.435327e-01 4.412734e-02 4.510483e-01 8.810324e-01 1.081066e+00 1.119779e+00 1.081066e+00 8.810324e-01 4.510483e-01 4.412734e-02 -2.435327e-01 -4.307396e-01 -5.132323e-01 -5.380445e-01 -4.910968e-01 -4.111256e-01 -2.997855e-01 -1.870315e-01 -7.467789e-02 2.317740e-02 9.021094e-02 
5.813444e-02 3.947831e-02 -9.476672e-03 -8.251743e-02 -1.721312e-01 -2.665157e-01 -3.634583e-01 -4.358252e-01 -4.778307e-01 -4.591023e-01 -3.851302e-01 -2.379150e-01 -4.982666e-03 3.048576e-01 7.564330e-01 1.137540e+00 1.255019e+00 1.137540e+00 7.564330e-01 3.048576e-01 -4.982666e-03 -2.379150e-01 -3.851302e-01 -4.591023e-01 -4.778307e-01 -4.358252e-01 -3.634583e-01 -2.665157e-01 -1.721312e-01 -8.251743e-02 -9.476672e-03 3.947831e-02 
1.870451e-02 6.408744e-03 -2.628647e-02 -7.699254e-02 -1.415462e-01 -2.127951e-01 -2.870571e-01 -3.445852e-01 -3.779304e-01 -3.648369e-01 -3.066445e-01 -1.836156e-01 1.081794e-02 2.878570e-01 6.309683e-01 8.885596e-01 9.766525e-01 8.885596e-01 6.309683e-01 2.878570e-01 1.081794e-02 -1.836156e-01 -3.066445e-01 -3.648369e-01 -3.779304e-01 -3.445852e-01 -2.870571e-01 -2.127951e-01 -1.415462e-01 -7.699254e-02 -2.628647e-02 6.408744e-03 
5.454068e-03 -5.125987e-04 -1.710014e-02 -4.299959e-02 -7.699029e-02 -1.150311e-01 -1.549935e-01 -1.861188e-01 -2.039314e-01 -1.985543e-01 -1.690526e-01 -1.089970e-01 -6.566740e-03 1.390405e-01 3.379810e-01 5.131728e-01 5.758533e-01 5.131728e-01 3.379810e-01 1.390405e-01 -6.566740e-03 -1.089970e-01 -1.690526e-01 -1.985543e-01 -2.039314e-01 -1.861188e-01 -1.549935e-01 -1.150311e-01 -7.699029e-02 -4.299959e-02 -1.710014e-02 -5.125987e-04 
