# vtk DataFile Version 2.0
Comment goes here
ASCII

DATASET STRUCTURED_POINTS
FIELD FieldData 1
TIME 1 1 double
1.26000000
DIMENSIONS    32   32   1

ORIGIN    0.000   0.000   0.000
SPACING   0.03125 0.03125   1.000

POINT_DATA   1024
SCALARS uY double
LOOKUP_TABLE default

-1.265984e-13 -1.471426e-13 -1.768966e-13 -1.932044e-13 -2.115057e-13 -2.267985e-13 -2.114146e-13 -1.608569e-13 -8.312521e-15 1.928502e-13 5.100045e-13 7.642355e-13 1.088457e-12 1.167676e-12 1.254342e-12 8.525744e-13 2.214249e-13 -5.376011e-13 -1.090995e-12 -1.230178e-12 -1.241076e-12 -1.010227e-12 -7.894452e-13 -4.680250e-13 -2.578863e-13 -5.732233e-14 2.437195e-15 4.993337e-14 1.141836e-14 -6.024483e-16 -5.661564e-14 -7.864593e-14 
-1.673928e-02 -1.036132e-02 1.537741e-02 4.856728e-02 9.004611e-02 1.289546e-01 1.615403e-01 1.815794e-01 1.819474e-01 1.641467e-01 1.199202e-01 5.747863e-02 -3.425462e-02 -1.479948e-01 -2.904460e-01 -4.223705e-01 -4.715223e-01 -4.223705e-01 -2.904460e-01 -1.479948e-01 -3.425462e-02 5.747863e-02 1.199202e-01 1.641467e-01 1.819474e-01 1.815794e-01 1.615403e-01 1.289546e-01 9.004611e-02 4.856728e-02 1.537741e-02 -1.036132e-02 
-5.152394e-02 -3.873522e-02 1.170921e-02 7.653768e-02 1.560180e-01 2.302505e-01 2.907183e-01 3.278857e-01 3.274157e-01 2.947758e-01 2.162719e-01 1.068869e-01 -5.131082e-02 -2.466426e-01 -5.068060e-01 -7.509588e-01 -8.365087e-01 -7.509588e-01 -5.068060e-01 -2.466426e-01 -5.131082e-02 1.068869e-01 2.162719e-01 2.947758e-01 3.274157e-01 3.278857e-01 2.907183e-01 2.302505e-01 1.560180e-01 7.653768e-02 1.170921e-02 -3.873522e-02 
-1.090031e-01 -9.010150e-02 -1.276133e-02 8.361415e-02 2.026291e-01 3.105289e-01 4.002917e-01 4.547324e-01 4.562386e-01 4.139813e-01 3.051936e-01 1.614983e-01 -5.141881e-02 -3.154010e-01 -6.882205e-01 -1.018853e+00 -1.114902e+00 -1.018853e+00 -6.882205e-01 -3.154010e-01 -5.141881e-02 1.614983e-01 3.051936e-01 4.139813e-01 4.562386e-01 4.547324e-01 4.002917e-01 3.105289e-01 2.026291e-01 8.361415e-02 -1.276133e-02 -9.010150e-02 
-2.082054e-01 -1.826634e-01 -7.974344e-02 4.645580e-02 1.983372e-01 3.331553e-01 4.406445e-01 5.056812e-01 5.026228e-01 4.516239e-01 3.277988e-01 1.695868e-01 -3.738412e-02 -2.671343e-01 -6.787829e-01 -1.056705e+00 -1.138780e+00 -1.056705e+00 -6.787829e-01 -2.671343e-01 -3.738412e-02 1.695868e-01 3.277988e-01 4.516239e-01 5.026228e-01 5.056812e-01 4.406445e-01 3.331553e-01 1.983372e-01 4.645580e-02 -7.974344e-02 -1.826634e-01 
-3.371577e-01 -3.049106e-01 -1.708423e-01 -1.188622e-02 1.809800e-01 3.442063e-01 4.789647e-01 5.588061e-01 5.643836e-01 5.211546e-01 3.898962e-01 2.396039e-01 2.705149e-02 -2.301471e-01 -7.447872e-01 -1.116827e+00 -1.114135e+00 -1.116827e+00 -7.447872e-01 -2.301471e-01 2.705149e-02 2.396039e-01 3.898962e-01 5.211546e-01 5.643836e-01 5.588061e-01 4.789647e-01 3.442063e-01 1.809800e-01 -1.188622e-02 -1.708423e-01 -3.049106e-01 
-5.040653e-01 -4.645958e-01 -3.006360e-01 -1.100932e-01 1.165824e-01 3.019800e-01 4.457258e-01 5.308777e-01 5.218697e-01 4.774709e-01 3.409843e-01 1.368317e-01 -4.730031e-02 -8.083501e-02 -4.682906e-01 -7.916363e-01 -7.138052e-01 -7.916363e-01 -4.682906e-01 -8.083501e-02 -4.730031e-02 1.368317e-01 3.409843e-01 4.774709e-01 5.218697e-01 5.308777e-01 4.457258e-01 3.019800e-01 1.165824e-01 -1.100932e-01 -3.006360e-01 -4.645958e-01 
-6.886250e-01 -6.415878e-01 -4.422175e-01 -2.169633e-01 5.565692e-02 2.658144e-01 4.402950e-01 5.332217e-01 5.399448e-01 5.163774e-01 3.827820e-01 2.843192e-01 5.791781e-02 -2.045393e-01 -6.408377e-01 -5.366424e-01 -9.845765e-02 -5.366424e-01 -6.408377e-01 -2.045393e-01 5.791781e-02 2.843192e-01 3.827820e-01 5.163774e-01 5.399448e-01 5.332217e-01 4.402950e-01 2.658144e-01 5.565692e-02 -2.169633e-01 -4.422175e-01 -6.415878e-01 
-8.778479e-01 -8.241923e-01 -5.915192e-01 -3.362009e-01 -2.749095e-02 1.975315e-01 3.743364e-01 4.635575e-01 4.143878e-01 4.280063e-01 1.866669e-01 -1.968295e-01 -9.623584e-01 -6.749304e-01 4.586251e-01 9.430579e-01 1.172553e+00 9.430579e-01 4.586251e-01 -6.749304e-01 -9.623584e-01 -1.968295e-01 1.866669e-01 4.280063e-01 4.143878e-01 4.635575e-01 3.743364e-01 1.975315e-01 -2.749095e-02 -3.362009e-01 -5.915192e-01 -8.241923e-01 
-1.060254e+00 -9.986794e-01 -7.332940e-01 -4.482685e-01 -9.772350e-02 1.383660e-01 3.493959e-01 4.174992e-01 3.848369e-01 3.175128e-01 -1.966282e-01 -3.779894e-01 -1.274678e-01 8.719962e-01 9.037891e-01 7.956314e-02 9.443719e-02 7.956314e-02 9.037891e-01 8.719962e-01 -1.274678e-01 -3.779894e-01 -1.966282e-01 3.175128e-01 3.848369e-01 4.174992e-01 3.493959e-01 1.383660e-01 -9.772350e-02 -4.482685e-01 -7.332940e-01 -9.986794e-01 
-1.194329e+00 -1.128667e+00 -8.333347e-01 -5.287426e-01 -1.407787e-01 8.806910e-02 3.144314e-01 3.136158e-01 1.316002e-01 3.044158e-01 5.476769e-01 4.799577e-01 5.023566e-01 8.834029e-01 7.077897e-02 -4.120521e-01 8.867172e-03 -4.120521e-01 7.077897e-02 8.834029e-01 5.023566e-01 4.799577e-01 5.476769e-01 3.044158e-01 1.316002e-01 3.136158e-01 3.144314e-01 8.806910e-02 -1.407787e-01 -5.287426e-01 -8.333347e-01 -1.128667e+00 
-1.292470e+00 -1.220856e+00 -9.149664e-01 -5.982637e-01 -1.910695e-01 3.441237e-02 3.061540e-01 2.908273e-01 4.785583e-01 9.724929e-01 3.411672e-01 -1.662933e-01 -1.176201e-02 3.185322e-01 2.148781e-01 3.691484e-01 8.465501e-01 3.691484e-01 2.148781e-01 3.185322e-01 -1.176201e-02 -1.662933e-01 3.411672e-01 9.724929e-01 4.785583e-01 2.908273e-01 3.061540e-01 3.441237e-02 -1.910695e-01 -5.982637e-01 -9.149664e-01 -1.220856e+00 
-1.279713e+00 -1.211467e+00 -9.057206e-01 -5.944849e-01 -1.503886e-01 9.250879e-02 5.468755e-01 4.717678e-01 8.633614e-01 8.202650e-01 -4.527518e-01 2.867980e-01 5.603136e-01 5.031449e-02 -1.399120e-02 8.429748e-02 3.843168e-01 8.429748e-02 -1.399120e-02 5.031449e-02 5.603136e-01 2.867980e-01 -4.527518e-01 8.202650e-01 8.633614e-01 4.717678e-01 5.468755e-01 9.250879e-02 -1.503886e-01 -5.944849e-01 -9.057206e-01 -1.211467e+00 
-1.188692e+00 -1.126462e+00 -8.726230e-01 -6.011080e-01 -2.256489e-01 1.411727e-02 3.997117e-01 4.556247e-01 1.203564e+00 5.848232e-01 -5.867341e-01 5.550912e-01 3.039386e-01 -5.619456e-02 1.553460e-01 1.741079e-01 4.335839e-01 1.741079e-01 1.553460e-01 -5.619456e-02 3.039386e-01 5.550912e-01 -5.867341e-01 5.848232e-01 1.203564e+00 4.556247e-01 3.997117e-01 1.411727e-02 -2.256489e-01 -6.011080e-01 -8.726230e-01 -1.126462e+00 
-9.305106e-01 -8.869670e-01 -7.088190e-01 -5.109213e-01 -2.368243e-01 1.448818e-02 3.427325e-01 8.218355e-01 1.209884e+00 2.432869e-02 -4.676381e-01 5.527703e-01 2.258391e-01 -3.511956e-02 2.813947e-02 1.958512e-02 1.438828e-01 1.958512e-02 2.813947e-02 -3.511956e-02 2.258391e-01 5.527703e-01 -4.676381e-01 2.432869e-02 1.209884e+00 8.218355e-01 3.427325e-01 1.448818e-02 -2.368243e-01 -5.109213e-01 -7.088190e-01 -8.869670e-01 
-5.315983e-01 -5.092129e-01 -4.219873e-01 -3.169244e-01 -1.658265e-01 1.665591e-02 2.512483e-01 6.845321e-01 5.581688e-01 -2.570052e-01 -1.271632e-02 4.448686e-01 1.434917e-02 -7.327191e-02 -7.945946e-04 1.035776e-02 8.671514e-02 1.035776e-02 -7.945946e-04 -7.327191e-02 1.434917e-02 4.448686e-01 -1.271632e-02 -2.570052e-01 5.581688e-01 6.845321e-01 2.512483e-01 1.665591e-02 -1.658265e-01 -3.169244e-01 -4.219873e-01 -5.092129e-01 
4.792709e-13 2.056132e-13 3.896780e-14 -1.066307e-13 -8.639279e-14 -1.024827e-13 1.704097e-13 4.872448e-13 7.924862e-13 -5.390296e-13 7.061453e-15 1.602315e-12 1.136825e-12 7.060876e-13 5.688655e-13 7.941347e-14 -8.979098e-14 -4.919271e-13 -8.560653e-13 -9.523839e-13 -9.129710e-13 7.321168e-13 2.349131e-12 5.028219e-13 -4.151250e-12 -4.107447e-12 -1.694495e-12 -4.700258e-13 3.450333e-13 6.774071e-13 8.202538e-13 6.935709e-13 
5.315983e-01 5.092129e-01 4.219873e-01 3.169244e-01 1.658265e-01 -1.665591e-02 -2.512483e-01 -6.845321e-01 -5.581688e-01 2.570052e-01 1.271632e-02 -4.448686e-01 -1.434917e-02 7.327191e-02 7.945946e-04 -1.035776e-02 -8.671514e-02 -1.035776e-02 7.945946e-04 7.327191e-02 -1.434917e-02 -4.448686e-01 1.271632e-02 2.570052e-01 -5.581688e-01 -6.845321e-01 -2.512483e-01 -1.665591e-02 1.658265e-01 3.169244e-01 4.219873e-01 5.092129e-01 
9.305106e-01 8.869670e-01 7.088190e-01 5.109213e-01 2.368243e-01 -1.448818e-02 -3.427325e-01 -8.218355e-01 -1.209884e+00 -2.432869e-02 4.676381e-01 -5.527703e-01 -2.258391e-01 3.511956e-02 -2.813947e-02 -1.958512e-02 -1.438828e-01 -1.958512e-02 -2.813947e-02 3.511956e-02 -2.258391e-01 -5.527703e-01 4.676381e-01 -2.432869e-02 -1.209884e+00 -8.218355e-01 -3.427325e-01 -1.448818e-02 2.368243e-01 5.109213e-01 7.088190e-01 8.869670e-01 
1.188692e+00 1.126462e+00 8.726230e-01 6.011080e-01 2.256489e-01 -1.411727e-02 -3.997117e-01 -4.556247e-01 -1.203564e+00 -5.848232e-01 5.867341e-01 -5.550912e-01 -3.039386e-01 5.619456e-02 -1.553460e-01 -1.741079e-01 -4.335839e-01 -1.741079e-01 -1.553460e-01 5.619456e-02 -3.039386e-01 -5.550912e-01 5.867341e-01 -5.848232e-01 -1.203564e+00 -4.556247e-01 -3.997117e-01 -1.411727e-02 2.256489e-01 6.011080e-01 8.726230e-01 1.126462e+00 
1.279713e+00 1.211467e+00 9.057206e-01 5.944849e-01 1.503886e-01 -9.250879e-02 -5.468755e-01 -4.717678e-01 -8.633614e-01 -8.202650e-01 4.527518e-01 -2.867980e-01 -5.603136e-01 -5.031449e-02 1.399120e-02 -8.429748e-02 -3.843168e-01 -8.429748e-02 1.399120e-02 -5.031449e-02 -5.603136e-01 -2.867980e-01 4.527518e-01 -8.202650e-01 -8.633614e-01 -4.717678e-01 -5.468755e-01 -9.250879e-02 1.503886e-01 5.944849e-01 9.057206e-01 1.211467e+00 
1.292470e+00 1.220856e+00 9.149664e-01 5.982637e-01 1.910695e-01 -3.441237e-02 -3.061540e-01 -2.908273e-01 -4.785583e-01 -9.724929e-01 -3.411672e-01 1.662933e-01 1.176201e-02 -3.185322e-01 -2.148781e-01 -3.691484e-01 -8.465501e-01 -3.691484e-01 -2.148781e-01 -3.185322e-01 1.176201e-02 1.662933e-01 -3.411672e-01 -9.724929e-01 -4.785583e-01 -2.908273e-01 -3.061540e-01 -3.441237e-02 1.910695e-01 5.982637e-01 9.149664e-01 1.220856e+00 
1.194329e+00 1.128667e+00 8.333347e-01 5.287426e-01 1.407787e-01 -8.806910e-02 -3.144314e-01 -3.136158e-01 -1.316002e-01 -3.044158e-01 -5.476769e-01 -4.799577e-01 -5.023566e-01 -8.834029e-01 -7.077897e-02 4.120521e-01 -8.867172e-03 4.120521e-01 -7.077897e-02 -8.834029e-01 -5.023566e-01 -4.799577e-01 -5.476769e-01 -3.044158e-01 -1.316002e-01 -3.136158e-01 -3.144314e-01 -8.806910e-02 1.407787e-01 5.287426e-01 8.333347e-01 1.128667e+00 
1.060254e+00 9.986794e-01 7.332940e-01 4.482685e-01 9.772350e-02 -1.383660e-01 -3.493959e-01 -4.174992e-01 -3.848369e-01 -3.175128e-01 1.966282e-01 3.779894e-01 1.274678e-01 -8.719962e-01 -9.037891e-01 -7.956314e-02 -9.443719e-02 -7.956314e-02 -9.037891e-01 -8.719962e-01 1.274678e-01 3.779894e-01 1.966282e-01 -3.175128e-01 -3.848369e-01 -4.174992e-01 -3.493959e-01 -1.383660e-01 9.772350e-02 4.482685e-01 7.332940e-01 9.986794e-01 
8.778479e-01 8.241923e-01 5.915192e-01 3.362009e-01 2.749095e-02 -1.975315e-01 -3.743364e-01 -4.635575e-01 -4.143878e-01 -4.280063e-01 -1.866669e-01 1.968295e-01 9.623584e-01 6.749304e-01 -4.586251e-01 -9.430579e-01 -1.172553e+00 -9.430579e-01 -4.586251e-01 6.749304e-01 9.623584e-01 1.968295e-01 -1.866669e-01 -4.280063e-01 -4.143878e-01 -4.635575e-01 -3.743364e-01 -1.975315e-01 2.749095e-02 3.362009e-01 5.915192e-01 8.241923e-01 
6.886250e-01 6.415878e-01 4.422175e-01 2.169633e-01 -5.565692e-02 -2.658144e-01 -4.402950e-01 -5.332217e-01 -5.399448e-01 -5.163774e-01 -3.827820e-01 -2.843192e-01 -5.791781e-02 2.045393e-01 6.408377e-01 5.366424e-01 9.845765e-02 5.366424e-01 6.408377e-01 2.045393e-01 -5.791781e-02 -2.843192e-01 -3.827820e-01 -5.163774e-01 -5.399448e-01 -5.332217e-01 -4.402950e-01 -2.658144e-01 -5.565692e-02 2.169633e-01 4.422175e-01 6.415878e-01 
5.040653e-01 4.645958e-01 3.006360e-01 1.100932e-01 -1.165824e-01 -3.019800e-01 -4.457258e-01 -5.308777e-01 -5.218697e-01 -4.774709e-01 -3.409843e-01 -1.368317e-01 4.730031e-02 8.083501e-02 4.682906e-01 7.916363e-01 7.138052e-01 7.916363e-01 4.682906e-01 8.083501e-02 4.730031e-02 -1.368317e-01 -3.409843e-01 -4.774709e-01 -5.218697e-01 -5.308777e-01 -4.457258e-01 -3.019800e-01 -1.165824e-01 1.100932e-01 3.006360e-01 4.645958e-01 
3.371577e-01 3.049106e-01 1.708423e-01 1.188622e-02 -1.809800e-01 -3.442063e-01 -4.789647e-01 -5.588061e-01 -5.643836e-01 -5.211546e-01 -3.898962e-01 -2.396039e-01 -2.705149e-02 2.301471e-01 7.447872e-01 1.116827e+00 1.114135e+00 1.116827e+00 7.447872e-01 2.301471e-01 -2.705149e-02 -2.396039e-01 -3.898962e-01 -5.211546e-01 -5.643836e-01 -5.588061e-01 -4.789647e-01 -3.442063e-01 -1.809800e-01 1.188622e-02 1.708423e-01 3.049106e-01 
2.082054e-01 1.826634e-01 7.974344e-02 -4.645580e-02 -1.983372e-01 -3.331553e-01 -4.406445e-01 -5.056812e-01 -5.026228e-01 -4.516239e-01 -3.277988e-01 -1.695868e-01 3.738412e-02 2.671343e-01 6.787829e-01 1.056705e+00 1.138780e+00 1.056705e+00 6.787829e-01 2.671343e-01 3.738412e-02 -1.695868e-01 -3.277988e-01 -4.516239e-01 -5.026228e-01 -5.056812e-01 -4.406445e-01 -3.331553e-01 -1.983372e-01 -4.645580e-02 7.974344e-02 1.826634e-01 
1.090031e-01 9.010150e-02 1.276133e-02 -8.361415e-02 -2.026291e-01 -3.105289e-01 -4.002917e-01 -4.547324e-01 -4.562386e-01 -4.139813e-01 -3.051936e-01 -1.614983e-01 5.141881e-02 3.154010e-01 6.882205e-01 1.018853e+00 1.114902e+00 1.018853e+00 6.882205e-01 3.154010e-01 5.141881e-02 -1.614983e-01 -3.051936e-01 -4.139813e-01 -4.562386e-01 -4.547324e-01 -4.002917e-01 -3.105289e-01 -2.026291e-01 -8.361415e-02 1.276133e-02 9.010150e-02 
5.152394e-02 3.873522e-02 -1.170921e-02 -7.653768e-02 -1.560180e-01 -2.302505e-01 -2.907183e-01 -3.278857e-01 -3.274157e-01 -2.947758e-01 -2.162719e-01 -1.068869e-01 5.131082e-02 2.466426e-01 5.068060e-01 7.509588e-01 8.365087e-01 7.509588e-01 5.068060e-01 2.466426e-01 5.131082e-02 -1.068869e-01 -2.162719e-01 -2.947758e-01 -3.274157e-01 -3.278857e-01 -2.907183e-01 -2.302505e-01 -1.560180e-01 -7.653768e-02 -1.170921e-02 3.873522e-02 
1.673928e-02 1.036132e-02 -1.537741e-02 -4.856728e-02 -9.004611e-02 -1.289546e-01 -1.615403e-01 -1.815794e-01 -1.819474e-01 -1.641467e-01 -1.199202e-01 -5.747863e-02 3.425462e-02 1.479948e-01 2.904460e-01 4.223705e-01 4.715223e-01 4.223705e-01 2.904460e-01 1.479948e-01 3.425462e-02 -5.747863e-02 -1.199202e-01 -1.641467e-01 -1.819474e-01 -1.815794e-01 -1.615403e-01 -1.289546e-01 -9.004611e-02 -4.856728e-02 -1.537741e-02 1.036132e-02 
