# vtk DataFile Version 2.0
Comment goes here
ASCII

DATASET STRUCTURED_POINTS
FIELD FieldData 1
TIME 1 1 double
1.02000000
DIMENSIONS    32   32   1

ORIGIN    0.000   0.000   0.000
SPACING   0.03125 0.03125   1.000

POINT_DATA   1024
SCALARS uY double
LOOKUP_TABLE default

-1.478919e-14 -1.850232e-14 -1.160415e-14 -1.003609e-14 -3.690545e-15 2.823735e-16 5.382762e-15 8.559688e-15 1.755343e-14 2.127115e-14 4.749027e-14 5.074463e-14 8.894962e-14 7.209142e-14 9.000662e-14 7.460262e-14 2.166588e-14 -1.878205e-14 -8.082034e-14 -8.149401e-14 -1.343447e-13 -9.910325e-14 -1.005886e-13 -6.540998e-14 -5.050719e-14 -4.069290e-14 -2.805266e-14 -3.284991e-14 -1.987613e-14 -2.671693e-14 -1.599141e-14 -2.229681e-14 
-2.746619e-02 -1.863625e-02 2.893167e-03 3.710957e-02 7.763535e-02 1.209317e-01 1.619012e-01 1.914403e-01 2.079580e-01 1.987224e-01 1.664663e-01 9.866373e-02 -5.297971e-03 -1.432146e-01 -3.138534e-01 -4.850168e-01 -5.679389e-01 -4.850168e-01 -3.138534e-01 -1.432146e-01 -5.297971e-03 9.866373e-02 1.664663e-01 1.987224e-01 2.079580e-01 1.914403e-01 1.619012e-01 1.209317e-01 7.763535e-02 3.710957e-02 2.893167e-03 -1.863625e-02 
-6.953503e-02 -5.169929e-02 -8.703787e-03 5.874601e-02 1.371587e-01 2.199222e-01 2.976084e-01 3.534850e-01 3.848288e-01 3.676075e-01 3.087152e-01 1.859239e-01 -1.964012e-04 -2.449062e-01 -5.537536e-01 -8.890790e-01 -1.061780e+00 -8.890790e-01 -5.537536e-01 -2.449062e-01 -1.964012e-04 1.859239e-01 3.087152e-01 3.676075e-01 3.848288e-01 3.534850e-01 2.976084e-01 2.199222e-01 1.371587e-01 5.874601e-02 -8.703787e-03 -5.169929e-02 
-1.376204e-01 -1.099810e-01 -4.500423e-02 5.551340e-02 1.681772e-01 2.850249e-01 3.924171e-01 4.689387e-01 5.151095e-01 4.930571e-01 4.277758e-01 2.794677e-01 5.191797e-02 -2.531796e-01 -6.959050e-01 -1.218841e+00 -1.491356e+00 -1.218841e+00 -6.959050e-01 -2.531796e-01 5.191797e-02 2.794677e-01 4.277758e-01 4.930571e-01 5.151095e-01 4.689387e-01 3.924171e-01 2.850249e-01 1.681772e-01 5.551340e-02 -4.500423e-02 -1.099810e-01 
-2.412804e-01 -2.024666e-01 -1.128738e-01 2.276808e-02 1.686105e-01 3.151310e-01 4.450835e-01 5.359165e-01 5.923841e-01 5.652960e-01 4.966643e-01 3.300549e-01 8.171312e-02 -2.139253e-01 -6.908627e-01 -1.352775e+00 -1.720158e+00 -1.352775e+00 -6.908627e-01 -2.139253e-01 8.171312e-02 3.300549e-01 4.966643e-01 5.652960e-01 5.923841e-01 5.359165e-01 4.450835e-01 3.151310e-01 1.686105e-01 2.276808e-02 -1.128738e-01 -2.024666e-01 
-3.823877e-01 -3.303883e-01 -2.126791e-01 -3.722151e-02 1.418043e-01 3.167135e-01 4.611086e-01 5.595008e-01 6.248325e-01 5.895966e-01 5.543016e-01 4.089588e-01 2.013831e-01 -3.494413e-02 -6.473074e-01 -1.472216e+00 -1.864499e+00 -1.472216e+00 -6.473074e-01 -3.494413e-02 2.013831e-01 4.089588e-01 5.543016e-01 5.895966e-01 6.248325e-01 5.595008e-01 4.611086e-01 3.167135e-01 1.418043e-01 -3.722151e-02 -2.126791e-01 -3.303883e-01 
-5.604377e-01 -4.931613e-01 -3.422198e-01 -1.204404e-01 9.719503e-02 3.038926e-01 4.632262e-01 5.696400e-01 6.407404e-01 5.928677e-01 5.702385e-01 3.418153e-01 2.486175e-02 -6.527284e-02 -4.594412e-01 -1.129341e+00 -1.428764e+00 -1.129341e+00 -4.594412e-01 -6.527284e-02 2.486175e-02 3.418153e-01 5.702385e-01 5.928677e-01 6.407404e-01 5.696400e-01 4.632262e-01 3.038926e-01 9.719503e-02 -1.204404e-01 -3.422198e-01 -4.931613e-01 
-7.612246e-01 -6.777694e-01 -4.901052e-01 -2.170640e-01 3.926059e-02 2.816480e-01 4.432155e-01 5.547688e-01 6.089160e-01 5.040163e-01 5.470261e-01 3.330582e-01 2.288604e-01 2.232321e-01 -5.393994e-01 -1.001890e+00 -9.143234e-01 -1.001890e+00 -5.393994e-01 2.232321e-01 2.288604e-01 3.330582e-01 5.470261e-01 5.040163e-01 6.089160e-01 5.547688e-01 4.432155e-01 2.816480e-01 3.926059e-02 -2.170640e-01 -4.901052e-01 -6.777694e-01 
-9.737464e-01 -8.738049e-01 -6.473700e-01 -3.202648e-01 -2.205863e-02 2.593890e-01 4.315673e-01 5.667903e-01 6.286886e-01 5.946139e-01 7.620944e-01 1.145285e-01 -7.859692e-01 -8.099199e-01 -2.327703e-01 4.686680e-01 7.053818e-01 4.686680e-01 -2.327703e-01 -8.099199e-01 -7.859692e-01 1.145285e-01 7.620944e-01 5.946139e-01 6.286886e-01 5.667903e-01 4.315673e-01 2.593890e-01 -2.205863e-02 -3.202648e-01 -6.473700e-01 -8.738049e-01 
-1.166036e+00 -1.053511e+00 -7.873659e-01 -4.095501e-01 -7.343947e-02 2.503370e-01 4.072183e-01 5.995243e-01 5.643513e-01 3.914353e-01 7.050062e-02 -5.688169e-01 -1.698231e-01 4.277612e-01 5.281807e-01 3.628198e-01 8.679084e-02 3.628198e-01 5.281807e-01 4.277612e-01 -1.698231e-01 -5.688169e-01 7.050062e-02 3.914353e-01 5.643513e-01 5.995243e-01 4.072183e-01 2.503370e-01 -7.343947e-02 -4.095501e-01 -7.873659e-01 -1.053511e+00 
-1.327439e+00 -1.205640e+00 -9.061521e-01 -4.863971e-01 -1.229391e-01 2.254383e-01 3.621785e-01 5.562558e-01 6.317035e-01 2.938525e-01 2.343743e-01 4.409088e-01 6.045226e-01 3.127984e-01 -2.972999e-02 -1.372170e-01 -2.204768e-01 -1.372170e-01 -2.972999e-02 3.127984e-01 6.045226e-01 4.409088e-01 2.343743e-01 2.938525e-01 6.317035e-01 5.562558e-01 3.621785e-01 2.254383e-01 -1.229391e-01 -4.863971e-01 -9.061521e-01 -1.205640e+00 
-1.416289e+00 -1.295567e+00 -9.651875e-01 -5.272628e-01 -1.304170e-01 2.238564e-01 3.931710e-01 1.020652e+00 1.261342e+00 2.252310e-01 7.743272e-02 2.094854e-01 -2.564169e-01 -1.999558e-01 5.329248e-02 3.435604e-01 5.498560e-01 3.435604e-01 5.329248e-02 -1.999558e-01 -2.564169e-01 2.094854e-01 7.743272e-02 2.252310e-01 1.261342e+00 1.020652e+00 3.931710e-01 2.238564e-01 -1.304170e-01 -5.272628e-01 -9.651875e-01 -1.295567e+00 
-1.427109e+00 -1.313942e+00 -9.710481e-01 -5.312875e-01 -1.178836e-01 2.847135e-01 5.077713e-01 1.534641e+00 1.039455e+00 -5.628535e-01 9.947248e-02 1.824506e-01 -1.269635e-01 2.038110e-01 1.314678e-01 2.024666e-01 3.025668e-01 2.024666e-01 1.314678e-01 2.038110e-01 -1.269635e-01 1.824506e-01 9.947248e-02 -5.628535e-01 1.039455e+00 1.534641e+00 5.077713e-01 2.847135e-01 -1.178836e-01 -5.312875e-01 -9.710481e-01 -1.313942e+00 
-1.310479e+00 -1.216100e+00 -8.835402e-01 -4.995292e-01 -3.834591e-02 2.739289e-01 9.192151e-01 1.985882e+00 1.995553e-02 -1.050943e+00 7.059740e-01 3.804949e-01 -2.035311e-01 -5.512229e-02 -1.734081e-03 1.813892e-01 2.744924e-01 1.813892e-01 -1.734081e-03 -5.512229e-02 -2.035311e-01 3.804949e-01 7.059740e-01 -1.050943e+00 1.995553e-02 1.985882e+00 9.192151e-01 2.739289e-01 -3.834591e-02 -4.995292e-01 -8.835402e-01 -1.216100e+00 
-1.049061e+00 -9.891387e-01 -7.018695e-01 -4.329578e-01 3.557777e-02 1.642579e-01 1.182254e+00 1.499603e+00 -1.038872e+00 -5.186284e-01 1.013099e+00 2.114092e-01 -3.893644e-02 -1.556447e-02 1.121408e-02 8.101892e-02 1.241273e-01 8.101892e-02 1.121408e-02 -1.556447e-02 -3.893644e-02 2.114092e-01 1.013099e+00 -5.186284e-01 -1.038872e+00 1.499603e+00 1.182254e+00 1.642579e-01 3.557777e-02 -4.329578e-01 -7.018695e-01 -9.891387e-01 
-5.987978e-01 -5.585606e-01 -3.918689e-01 -2.245059e-01 4.830964e-02 1.697280e-01 7.683800e-01 5.147460e-01 -7.886932e-01 9.724235e-02 7.620499e-01 5.431666e-02 -8.679585e-02 -7.486285e-02 -3.543215e-02 2.189641e-02 4.689878e-02 2.189641e-02 -3.543215e-02 -7.486285e-02 -8.679585e-02 5.431666e-02 7.620499e-01 9.724235e-02 -7.886932e-01 5.147460e-01 7.683800e-01 1.697280e-01 4.830964e-02 -2.245059e-01 -3.918689e-01 -5.585606e-01 
1.968466e-14 -3.568847e-14 -9.022776e-14 -1.184123e-13 -9.822865e-14 -4.311896e-14 9.879543e-14 1.867754e-13 -1.346863e-14 6.353865e-14 1.493990e-13 1.225846e-13 1.211056e-13 4.572623e-14 3.662720e-14 -2.672230e-15 -3.884051e-14 -7.595385e-14 -1.704465e-13 -2.061767e-13 -3.593626e-13 -2.791191e-13 1.855313e-13 3.214972e-13 2.156419e-13 -3.728945e-13 -5.163614e-13 -1.218339e-13 8.409591e-14 2.222607e-13 1.868388e-13 1.051549e-13 
5.987978e-01 5.585606e-01 3.918689e-01 2.245059e-01 -4.830964e-02 -1.697280e-01 -7.683800e-01 -5.147460e-01 7.886932e-01 -9.724235e-02 -7.620499e-01 -5.431666e-02 8.679585e-02 7.486285e-02 3.543215e-02 -2.189641e-02 -4.689878e-02 -2.189641e-02 3.543215e-02 7.486285e-02 8.679585e-02 -5.431666e-02 -7.620499e-01 -9.724235e-02 7.886932e-01 -5.147460e-01 -7.683800e-01 -1.697280e-01 -4.830964e-02 2.245059e-01 3.918689e-01 5.585606e-01 
1.049061e+00 9.891387e-01 7.018695e-01 4.329578e-01 -3.557777e-02 -1.642579e-01 -1.182254e+00 -1.499603e+00 1.038872e+00 5.186284e-01 -1.013099e+00 -2.114092e-01 3.893644e-02 1.556447e-02 -1.121408e-02 -8.101892e-02 -1.241273e-01 -8.101892e-02 -1.121408e-02 1.556447e-02 3.893644e-02 -2.114092e-01 -1.013099e+00 5.186284e-01 1.038872e+00 -1.499603e+00 -1.182254e+00 -1.642579e-01 -3.557777e-02 4.329578e-01 7.018695e-01 9.891387e-01 
1.310479e+00 1.216100e+00 8.835402e-01 4.995292e-01 3.834591e-02 -2.739289e-01 -9.192151e-01 -1.985882e+00 -1.995553e-02 1.050943e+00 -7.059740e-01 -3.804949e-01 2.035311e-01 5.512229e-02 1.734081e-03 -1.813892e-01 -2.744924e-01 -1.813892e-01 1.734081e-03 5.512229e-02 2.035311e-01 -3.804949e-01 -7.059740e-01 1.050943e+00 -1.995553e-02 -1.985882e+00 -9.192151e-01 -2.739289e-01 3.834591e-02 4.995292e-01 8.835402e-01 1.216100e+00 
1.427109e+00 1.313942e+00 9.710481e-01 5.312875e-01 1.178836e-01 -2.847135e-01 -5.077713e-01 -1.534641e+00 -1.039455e+00 5.628535e-01 -9.947248e-02 -1.824506e-01 1.269635e-01 -2.038110e-01 -1.314678e-01 -2.024666e-01 -3.025668e-01 -2.024666e-01 -1.314678e-01 -2.038110e-01 1.269635e-01 -1.824506e-01 -9.947248e-02 5.628535e-01 -1.039455e+00 -1.534641e+00 -5.077713e-01 -2.847135e-01 1.178836e-01 5.312875e-01 9.710481e-01 1.313942e+00 
1.416289e+00 1.295567e+00 9.651875e-01 5.272628e-01 1.304170e-01 -2.238564e-01 -3.931710e-01 -1.020652e+00 -1.261342e+00 -2.252310e-01 -7.743272e-02 -2.094854e-01 2.564169e-01 1.999558e-01 -5.329248e-02 -3.435604e-01 -5.498560e-01 -3.435604e-01 -5.329248e-02 1.999558e-01 2.564169e-01 -2.094854e-01 -7.743272e-02 -2.252310e-01 -1.261342e+00 -1.020652e+00 -3.931710e-01 -2.238564e-01 1.304170e-01 5.272628e-01 9.651875e-01 1.295567e+00 
1.327439e+00 1.205640e+00 9.061521e-01 4.863971e-01 1.229391e-01 -2.254383e-01 -3.621785e-01 -5.562558e-01 -6.317035e-01 -2.938525e-01 -2.343743e-01 -4.409088e-01 -6.045226e-01 -3.127984e-01 2.972999e-02 1.372170e-01 2.204768e-01 1.372170e-01 2.972999e-02 -3.127984e-01 -6.045226e-01 -4.409088e-01 -2.343743e-01 -2.938525e-01 -6.317035e-01 -5.562558e-01 -3.621785e-01 -2.254383e-01 1.229391e-01 4.863971e-01 9.061521e-01 1.205640e+00 
1.166036e+00 1.053511e+00 7.873659e-01 4.095501e-01 7.343947e-02 -2.503370e-01 -4.072183e-01 -5.995243e-01 -5.643513e-01 -3.914353e-01 -7.050062e-02 5.688169e-01 1.698231e-01 -4.277612e-01 -5.281807e-01 -3.628198e-01 -8.679084e-02 -3.628198e-01 -5.281807e-01 -4.277612e-01 1.698231e-01 5.688169e-01 -7.050062e-02 -3.914353e-01 -5.643513e-01 -5.995243e-01 -4.072183e-01 -2.503370e-01 7.343947e-02 4.095501e-01 7.873659e-01 1.053511e+00 
9.737464e-01 8.738049e-01 6.473700e-01 3.202648e-01 2.205863e-02 -2.593890e-01 -4.315673e-01 -5.667903e-01 -6.286886e-01 -5.946139e-01 -7.620944e-01 -1.145285e-01 7.859692e-01 8.099199e-01 2.327703e-01 -4.686680e-01 -7.053818e-01 -4.686680e-01 2.327703e-01 8.099199e-01 7.859692e-01 -1.145285e-01 -7.620944e-01 -5.946139e-01 -6.286886e-01 -5.667903e-01 -4.315673e-01 -2.593890e-01 2.205863e-02 3.202648e-01 6.473700e-01 8.738049e-01 
7.612246e-01 6.777694e-01 4.901052e-01 2.170640e-01 -3.926059e-02 -2.816480e-01 -4.432155e-01 -5.547688e-01 -6.089160e-01 -5.040163e-01 -5.470261e-01 -3.330582e-01 -2.288604e-01 -2.232321e-01 5.393994e-01 1.001890e+00 9.143234e-01 1.001890e+00 5.393994e-01 -2.232321e-01 -2.288604e-01 -3.330582e-01 -5.470261e-01 -5.040163e-01 -6.089160e-01 -5.547688e-01 -4.432155e-01 -2.816480e-01 -3.926059e-02 2.170640e-01 4.901052e-01 6.777694e-01 
5.604377e-01 4.931613e-01 3.422198e-01 1.204404e-01 -9.719503e-02 -3.038926e-01 -4.632262e-01 -5.696400e-01 -6.407404e-01 -5.928677e-01 -5.702385e-01 -3.418153e-01 -2.486175e-02 6.527284e-02 4.594412e-01 1.129341e+00 1.428764e+00 1.129341e+00 4.594412e-01 6.527284e-02 -2.486175e-02 -3.418153e-01 -5.702385e-01 -5.928677e-01 -6.407404e-01 -5.696400e-01 -4.632262e-01 -3.038926e-01 -9.719503e-02 1.204404e-01 3.422198e-01 4.931613e-01 
3.823877e-01 3.303883e-01 2.126791e-01 3.722151e-02 -1.418043e-01 -3.167135e-01 -4.611086e-01 -5.595008e-01 -6.248325e-01 -5.895966e-01 -5.543016e-01 -4.089588e-01 -2.013831e-01 3.494413e-02 6.473074e-01 1.472216e+00 1.864499e+00 1.472216e+00 6.473074e-01 3.494413e-02 -2.013831e-01 -4.089588e-01 -5.543016e-01 -5.895966e-01 -6.248325e-01 -5.595008e-01 -4.611086e-01 -3.167135e-01 -1.418043e-01 3.722151e-02 2.126791e-01 3.303883e-01 
2.412804e-01 2.024666e-01 1.128738e-01 -2.276808e-02 -1.686105e-01 -3.151310e-01 -4.450835e-01 -5.359165e-01 -5.923841e-01 -5.652960e-01 -4.966643e-01 -3.300549e-01 -8.171312e-02 2.139253e-01 6.908627e-01 1.352775e+00 1.720158e+00 1.352775e+00 6.908627e-01 2.139253e-01 -8.171312e-02 -3.300549e-01 -4.966643e-01 -5.652960e-01 -5.923841e-01 -5.359165e-01 -4.450835e-01 -3.151310e-01 -1.686105e-01 -2.276808e-02 1.128738e-01 2.024666e-01 
1.376204e-01 1.099810e-01 4.500423e-02 -5.551340e-02 -1.681772e-01 -2.850249e-01 -3.924171e-01 -4.689387e-01 -5.151095e-01 -4.930571e-01 -4.277758e-01 -2.794677e-01 -5.191797e-02 2.531796e-01 6.959050e-01 1.218841e+00 1.491356e+00 1.218841e+00 6.959050e-01 2.531796e-01 -5.191797e-02 -2.794677e-01 -4.277758e-01 -4.930571e-01 -5.151095e-01 -4.689387e-01 -3.924171e-01 -2.850249e-01 -1.681772e-01 -5.551340e-02 4.500423e-02 1.099810e-01 
6.953503e-02 5.169929e-02 8.703787e-03 -5.874601e-02 -1.371587e-01 -2.199222e-01 -2.976084e-01 -3.534850e-01 -3.848288e-01 -3.676075e-01 -3.087152e-01 -1.859239e-01 1.964012e-04 2.449062e-01 5.537536e-01 8.890790e-01 1.061780e+00 8.890790e-01 5.537536e-01 2.449062e-01 1.964012e-04 -1.859239e-01 -3.087152e-01 -3.676075e-01 -3.848288e-01 -3.534850e-01 -2.976084e-01 -2.199222e-01 -1.371587e-01 -5.874601e-02 8.703787e-03 5.169929e-02 
2.746619e-02 1.863625e-02 -2.893167e-03 -3.710957e-02 -7.763535e-02 -1.209317e-01 -1.619012e-01 -1.914403e-01 -2.079580e-01 -1.987224e-01 -1.664663e-01 -9.866373e-02 5.297971e-03 1.432146e-01 3.138534e-01 4.850168e-01 5.679389e-01 4.850168e-01 3.138534e-01 1.432146e-01 5.297971e-03 -9.866373e-02 -1.664663e-01 -1.987224e-01 -2.079580e-01 -1.914403e-01 -1.619012e-01 -1.209317e-01 -7.763535e-02 -3.710957e-02 -2.893167e-03 1.863625e-02 
