# vtk DataFile Version 2.0
Comment goes here
ASCII

DATASET STRUCTURED_POINTS
FIELD FieldData 1
TIME 1 1 double
1.06000000
DIMENSIONS    32   32   1

ORIGIN    0.000   0.000   0.000
SPACING   0.03125 0.03125   1.000

POINT_DATA   1024
SCALARS uY double
LOOKUP_TABLE default

-2.657945e-14 -3.128887e-14 -2.219789e-14 -2.368835e-14 -1.148023e-14 -1.301980e-14 9.616174e-16 1.944718e-15 2.653381e-14 4.322258e-14 9.131959e-14 1.218616e-13 1.720027e-13 1.822422e-13 1.921618e-13 1.677370e-13 5.104286e-14 -3.320718e-14 -1.404085e-13 -1.614852e-13 -1.977171e-13 -1.718041e-13 -1.463703e-13 -1.047401e-13 -7.132722e-14 -5.066167e-14 -3.636083e-14 -3.526990e-14 -2.863384e-14 -3.287865e-14 -2.707778e-14 -3.296974e-14 
1.781997e-02 2.827692e-02 4.907778e-02 8.483215e-02 1.238928e-01 1.655747e-01 2.006677e-01 2.217318e-01 2.242662e-01 1.976575e-01 1.452782e-01 5.891336e-02 -5.372562e-02 -1.966587e-01 -3.705989e-01 -5.603278e-01 -6.555363e-01 -5.603278e-01 -3.705989e-01 -1.966587e-01 -5.372562e-02 5.891336e-02 1.452782e-01 1.976575e-01 2.242662e-01 2.217318e-01 2.006677e-01 1.655747e-01 1.238928e-01 8.483215e-02 4.907778e-02 2.827692e-02 
2.283248e-02 4.398702e-02 8.524754e-02 1.557557e-01 2.308325e-01 3.104390e-01 3.756107e-01 4.142091e-01 4.161243e-01 3.641760e-01 2.646295e-01 1.047702e-01 -9.814898e-02 -3.542593e-01 -6.744124e-01 -1.039078e+00 -1.222599e+00 -1.039078e+00 -6.744124e-01 -3.542593e-01 -9.814898e-02 1.047702e-01 2.646295e-01 3.641760e-01 4.161243e-01 4.142091e-01 3.756107e-01 3.104390e-01 2.308325e-01 1.557557e-01 8.524754e-02 4.398702e-02 
-3.306674e-03 2.961360e-02 9.268678e-02 1.989999e-01 3.090236e-01 4.237193e-01 5.168351e-01 5.709712e-01 5.771198e-01 5.052877e-01 3.765203e-01 1.618768e-01 -1.076308e-01 -4.491428e-01 -9.129954e-01 -1.441326e+00 -1.699812e+00 -1.441326e+00 -9.129954e-01 -4.491428e-01 -1.076308e-01 1.618768e-01 3.765203e-01 5.052877e-01 5.771198e-01 5.709712e-01 5.168351e-01 4.237193e-01 3.090236e-01 1.989999e-01 9.268678e-02 2.961360e-02 
-5.913270e-02 -1.303634e-02 7.355444e-02 2.172730e-01 3.594888e-01 5.044974e-01 6.162608e-01 6.792130e-01 6.802860e-01 5.862806e-01 4.230971e-01 1.552982e-01 -1.549568e-01 -5.143135e-01 -1.020615e+00 -1.615212e+00 -1.895098e+00 -1.615212e+00 -1.020615e+00 -5.143135e-01 -1.549568e-01 1.552982e-01 4.230971e-01 5.862806e-01 6.802860e-01 6.792130e-01 6.162608e-01 5.044974e-01 3.594888e-01 2.172730e-01 7.355444e-02 -1.303634e-02 
-1.641532e-01 -1.021566e-01 1.278200e-02 2.012108e-01 3.806048e-01 5.597508e-01 6.929102e-01 7.664093e-01 7.745952e-01 6.633885e-01 4.993380e-01 1.888511e-01 -1.522007e-01 -5.236786e-01 -1.117944e+00 -1.753775e+00 -2.016017e+00 -1.753775e+00 -1.117944e+00 -5.236786e-01 -1.522007e-01 1.888511e-01 4.993380e-01 6.633885e-01 7.745952e-01 7.664093e-01 6.929102e-01 5.597508e-01 3.806048e-01 2.012108e-01 1.278200e-02 -1.021566e-01 
-2.950874e-01 -2.154300e-01 -6.832920e-02 1.704091e-01 3.898524e-01 6.052445e-01 7.568120e-01 8.392447e-01 8.455653e-01 7.187207e-01 5.125718e-01 7.195177e-02 -3.647153e-01 -6.777546e-01 -1.085071e+00 -1.512386e+00 -1.678285e+00 -1.512386e+00 -1.085071e+00 -6.777546e-01 -3.647153e-01 7.195177e-02 5.125718e-01 7.187207e-01 8.455653e-01 8.392447e-01 7.568120e-01 6.052445e-01 3.898524e-01 1.704091e-01 -6.832920e-02 -2.154300e-01 
-4.725948e-01 -3.728827e-01 -1.894102e-01 1.089393e-01 3.756188e-01 6.408674e-01 8.189188e-01 9.243988e-01 9.441750e-01 7.962808e-01 6.418333e-01 1.069403e-01 -3.585267e-01 -6.686134e-01 -1.203493e+00 -1.535930e+00 -1.585637e+00 -1.535930e+00 -1.203493e+00 -6.686134e-01 -3.585267e-01 1.069403e-01 6.418333e-01 7.962808e-01 9.441750e-01 9.243988e-01 8.189188e-01 6.408674e-01 3.756188e-01 1.089393e-01 -1.894102e-01 -3.728827e-01 
-6.453405e-01 -5.260926e-01 -3.050050e-01 5.457311e-02 3.691326e-01 6.871761e-01 8.986257e-01 1.031580e+00 1.098851e+00 1.029365e+00 6.945406e-01 -3.589795e-01 -1.220027e+00 -1.341376e+00 -1.014947e+00 -5.762466e-01 -3.970018e-01 -5.762466e-01 -1.014947e+00 -1.341376e+00 -1.220027e+00 -3.589795e-01 6.945406e-01 1.029365e+00 1.098851e+00 1.031580e+00 8.986257e-01 6.871761e-01 3.691326e-01 5.457311e-02 -3.050050e-01 -5.260926e-01 
-8.432131e-01 -7.051214e-01 -4.476352e-01 -2.597792e-02 3.351015e-01 7.227313e-01 9.706523e-01 1.183113e+00 1.218780e+00 1.033510e+00 9.516897e-02 -8.761212e-01 -8.336707e-01 -4.913995e-01 -3.699080e-01 -8.407340e-01 -1.093764e+00 -8.407340e-01 -3.699080e-01 -4.913995e-01 -8.336707e-01 -8.761212e-01 9.516897e-02 1.033510e+00 1.218780e+00 1.183113e+00 9.706523e-01 7.227313e-01 3.351015e-01 -2.597792e-02 -4.476352e-01 -7.051214e-01 
-9.878927e-01 -8.351505e-01 -5.463399e-01 -7.243427e-02 3.201919e-01 7.690978e-01 1.035390e+00 1.230545e+00 1.461174e+00 9.825795e-01 -1.752643e-01 -2.978087e-01 -8.766123e-02 -5.299474e-01 -8.830221e-01 -1.246882e+00 -1.261044e+00 -1.246882e+00 -8.830221e-01 -5.299474e-01 -8.766123e-02 -2.978087e-01 -1.752643e-01 9.825795e-01 1.461174e+00 1.230545e+00 1.035390e+00 7.690978e-01 3.201919e-01 -7.243427e-02 -5.463399e-01 -8.351505e-01 
-1.127677e+00 -9.672586e-01 -6.596415e-01 -1.580231e-01 2.547245e-01 7.639726e-01 1.117133e+00 1.565560e+00 2.067050e+00 7.200868e-01 -5.560625e-01 -4.913100e-01 -9.967743e-01 -1.091371e+00 -6.832964e-01 -3.416568e-01 4.141074e-02 -3.416568e-01 -6.832964e-01 -1.091371e+00 -9.967743e-01 -4.913100e-01 -5.560625e-01 7.200868e-01 2.067050e+00 1.565560e+00 1.117133e+00 7.639726e-01 2.547245e-01 -1.580231e-01 -6.596415e-01 -9.672586e-01 
-1.151813e+00 -9.951386e-01 -6.859485e-01 -1.810258e-01 2.181455e-01 8.451518e-01 1.116255e+00 1.989218e+00 1.968139e+00 -4.038430e-01 -8.453021e-01 -4.047643e-01 -7.124245e-01 -4.482934e-01 -3.497516e-01 -4.013046e-01 -2.664140e-01 -4.013046e-01 -3.497516e-01 -4.482934e-01 -7.124245e-01 -4.047643e-01 -8.453021e-01 -4.038430e-01 1.968139e+00 1.989218e+00 1.116255e+00 8.451518e-01 2.181455e-01 -1.810258e-01 -6.859485e-01 -9.951386e-01 
-1.117192e+00 -9.806867e-01 -7.105443e-01 -2.821307e-01 5.478105e-02 6.061794e-01 9.321606e-01 2.609008e+00 1.568243e+00 -1.169284e+00 -3.884672e-01 -9.139826e-02 -4.643837e-01 -4.466908e-01 -3.792504e-01 -2.449964e-01 -1.078866e-01 -2.449964e-01 -3.792504e-01 -4.466908e-01 -4.643837e-01 -9.139826e-02 -3.884672e-01 -1.169284e+00 1.568243e+00 2.609008e+00 9.321606e-01 6.061794e-01 5.478105e-02 -2.821307e-01 -7.105443e-01 -9.806867e-01 
-8.854255e-01 -7.949257e-01 -5.766197e-01 -3.010876e-01 2.217537e-02 2.755155e-01 1.193974e+00 2.532847e+00 2.688823e-01 -1.138638e+00 1.334056e-01 -5.693718e-02 -2.695055e-01 -2.907977e-01 -2.497098e-01 -2.259759e-01 -1.597785e-01 -2.259759e-01 -2.497098e-01 -2.907977e-01 -2.695055e-01 -5.693718e-02 1.334056e-01 -1.138638e+00 2.688823e-01 2.532847e+00 1.193974e+00 2.755155e-01 2.217537e-02 -3.010876e-01 -5.766197e-01 -7.949257e-01 
-5.199297e-01 -4.752167e-01 -3.580826e-01 -2.379281e-01 -3.802803e-02 3.639748e-02 9.829998e-01 1.440599e+00 -1.694990e-01 -3.118142e-01 2.607077e-01 -1.079550e-01 -2.015003e-01 -2.173372e-01 -1.727986e-01 -1.267452e-01 -8.766809e-02 -1.267452e-01 -1.727986e-01 -2.173372e-01 -2.015003e-01 -1.079550e-01 2.607077e-01 -3.118142e-01 -1.694990e-01 1.440599e+00 9.829998e-01 3.639748e-02 -3.802803e-02 -2.379281e-01 -3.580826e-01 -4.752167e-01 
7.411142e-14 -1.154138e-14 -8.796638e-14 -1.206896e-13 -1.015824e-13 -3.070770e-14 2.187589e-13 2.850887e-13 -5.532250e-14 -1.794715e-14 2.300384e-13 1.712048e-13 2.285435e-13 1.323850e-13 8.767437e-14 3.258202e-14 -3.421779e-14 -1.055468e-13 -1.893128e-13 -2.910686e-13 -3.654160e-13 -1.622877e-13 3.668808e-13 6.675728e-13 1.137176e-13 -9.792845e-13 -9.845172e-13 -2.123980e-13 4.993225e-14 2.722264e-13 2.745470e-13 1.964063e-13 
5.199297e-01 4.752167e-01 3.580826e-01 2.379281e-01 3.802803e-02 -3.639748e-02 -9.829998e-01 -1.440599e+00 1.694990e-01 3.118142e-01 -2.607077e-01 1.079550e-01 2.015003e-01 2.173372e-01 1.727986e-01 1.267452e-01 8.766809e-02 1.267452e-01 1.727986e-01 2.173372e-01 2.015003e-01 1.079550e-01 -2.607077e-01 3.118142e-01 1.694990e-01 -1.440599e+00 -9.829998e-01 -3.639748e-02 3.802803e-02 2.379281e-01 3.580826e-01 4.752167e-01 
8.854255e-01 7.949257e-01 5.766197e-01 3.010876e-01 -2.217537e-02 -2.755155e-01 -1.193974e+00 -2.532847e+00 -2.688823e-01 1.138638e+00 -1.334056e-01 5.693718e-02 2.695055e-01 2.907977e-01 2.497098e-01 2.259759e-01 1.597785e-01 2.259759e-01 2.497098e-01 2.907977e-01 2.695055e-01 5.693718e-02 -1.334056e-01 1.138638e+00 -2.688823e-01 -2.532847e+00 -1.193974e+00 -2.755155e-01 -2.217537e-02 3.010876e-01 5.766197e-01 7.949257e-01 
1.117192e+00 9.806867e-01 7.105443e-01 2.821307e-01 -5.478105e-02 -6.061794e-01 -9.321606e-01 -2.609008e+00 -1.568243e+00 1.169284e+00 3.884672e-01 9.139826e-02 4.643837e-01 4.466908e-01 3.792504e-01 2.449964e-01 1.078866e-01 2.449964e-01 3.792504e-01 4.466908e-01 4.643837e-01 9.139826e-02 3.884672e-01 1.169284e+00 -1.568243e+00 -2.609008e+00 -9.321606e-01 -6.061794e-01 -5.478105e-02 2.821307e-01 7.105443e-01 9.806867e-01 
1.151813e+00 9.951386e-01 6.859485e-01 1.810258e-01 -2.181455e-01 -8.451518e-01 -1.116255e+00 -1.989218e+00 -1.968139e+00 4.038430e-01 8.453021e-01 4.047643e-01 7.124245e-01 4.482934e-01 3.497516e-01 4.013046e-01 2.664140e-01 4.013046e-01 3.497516e-01 4.482934e-01 7.124245e-01 4.047643e-01 8.453021e-01 4.038430e-01 -1.968139e+00 -1.989218e+00 -1.116255e+00 -8.451518e-01 -2.181455e-01 1.810258e-01 6.859485e-01 9.951386e-01 
1.127677e+00 9.672586e-01 6.596415e-01 1.580231e-01 -2.547245e-01 -7.639726e-01 -1.117133e+00 -1.565560e+00 -2.067050e+00 -7.200868e-01 5.560625e-01 4.913100e-01 9.967743e-01 1.091371e+00 6.832964e-01 3.416568e-01 -4.141074e-02 3.416568e-01 6.832964e-01 1.091371e+00 9.967743e-01 4.913100e-01 5.560625e-01 -7.200868e-01 -2.067050e+00 -1.565560e+00 -1.117133e+00 -7.639726e-01 -2.547245e-01 1.580231e-01 6.596415e-01 9.672586e-01 
9.878927e-01 8.351505e-01 5.463399e-01 7.243427e-02 -3.201919e-01 -7.690978e-01 -1.035390e+00 -1.230545e+00 -1.461174e+00 -9.825795e-01 1.752643e-01 2.978087e-01 8.766123e-02 5.299474e-01 8.830221e-01 1.246882e+00 1.261044e+00 1.246882e+00 8.830221e-01 5.299474e-01 8.766123e-02 2.978087e-01 1.752643e-01 -9.825795e-01 -1.461174e+00 -1.230545e+00 -1.035390e+00 -7.690978e-01 -3.201919e-01 7.243427e-02 5.463399e-01 8.351505e-01 
8.432131e-01 7.051214e-01 4.476352e-01 2.597792e-02 -3.351015e-01 -7.227313e-01 -9.706523e-01 -1.183113e+00 -1.218780e+00 -1.033510e+00 -9.516897e-02 8.761212e-01 8.336707e-01 4.913995e-01 3.699080e-01 8.407340e-01 1.093764e+00 8.407340e-01 3.699080e-01 4.913995e-01 8.336707e-01 8.761212e-01 -9.516897e-02 -1.033510e+00 -1.218780e+00 -1.183113e+00 -9.706523e-01 -7.227313e-01 -3.351015e-01 2.597792e-02 4.476352e-01 7.051214e-01 
6.453405e-01 5.260926e-01 3.050050e-01 -5.457311e-02 -3.691326e-01 -6.871761e-01 -8.986257e-01 -1.031580e+00 -1.098851e+00 -1.029365e+00 -6.945406e-01 3.589795e-01 1.220027e+00 1.341376e+00 1.014947e+00 5.762466e-01 3.970018e-01 5.762466e-01 1.014947e+00 1.341376e+00 1.220027e+00 3.589795e-01 -6.945406e-01 -1.029365e+00 -1.098851e+00 -1.031580e+00 -8.986257e-01 -6.871761e-01 -3.691326e-01 -5.457311e-02 3.050050e-01 5.260926e-01 
4.725948e-01 3.728827e-01 1.894102e-01 -1.089393e-01 -3.756188e-01 -6.408674e-01 -8.189188e-01 -9.243988e-01 -9.441750e-01 -7.962808e-01 -6.418333e-01 -1.069403e-01 3.585267e-01 6.686134e-01 1.203493e+00 1.535930e+00 1.585637e+00 1.535930e+00 1.203493e+00 6.686134e-01 3.585267e-01 -1.069403e-01 -6.418333e-01 -7.962808e-01 -9.441750e-01 -9.243988e-01 -8.189188e-01 -6.408674e-01 -3.756188e-01 -1.089393e-01 1.894102e-01 3.728827e-01 
2.950874e-01 2.154300e-01 6.832920e-02 -1.704091e-01 -3.898524e-01 -6.052445e-01 -7.568120e-01 -8.392447e-01 -8.455653e-01 -7.187207e-01 -5.125718e-01 -7.195177e-02 3.647153e-01 6.777546e-01 1.085071e+00 1.512386e+00 1.678285e+00 1.512386e+00 1.085071e+00 6.777546e-01 3.647153e-01 -7.195177e-02 -5.125718e-01 -7.187207e-01 -8.455653e-01 -8.392447e-01 -7.568120e-01 -6.052445e-01 -3.898524e-01 -1.704091e-01 6.832920e-02 2.154300e-01 
1.641532e-01 1.021566e-01 -1.278200e-02 -2.012108e-01 -3.806048e-01 -5.597508e-01 -6.929102e-01 -7.664093e-01 -7.745952e-01 -6.633885e-01 -4.993380e-01 -1.888511e-01 1.522007e-01 5.236786e-01 1.117944e+00 1.753775e+00 2.016017e+00 1.753775e+00 1.117944e+00 5.236786e-01 1.522007e-01 -1.888511e-01 -4.993380e-01 -6.633885e-01 -7.745952e-01 -7.664093e-01 -6.929102e-01 -5.597508e-01 -3.806048e-01 -2.012108e-01 -1.278200e-02 1.021566e-01 
5.913270e-02 1.303634e-02 -7.355444e-02 -2.172730e-01 -3.594888e-01 -5.044974e-01 -6.162608e-01 -6.792130e-01 -6.802860e-01 -5.862806e-01 -4.230971e-01 -1.552982e-01 1.549568e-01 5.143135e-01 1.020615e+00 1.615212e+00 1.895098e+00 1.615212e+00 1.020615e+00 5.143135e-01 1.549568e-01 -1.552982e-01 -4.230971e-01 -5.862806e-01 -6.802860e-01 -6.792130e-01 -6.162608e-01 -5.044974e-01 -3.594888e-01 -2.172730e-01 -7.355444e-02 1.303634e-02 
3.306674e-03 -2.961360e-02 -9.268678e-02 -1.989999e-01 -3.090236e-01 -4.237193e-01 -5.168351e-01 -5.709712e-01 -5.771198e-01 -5.052877e-01 -3.765203e-01 -1.618768e-01 1.076308e-01 4.491428e-01 9.129954e-01 1.441326e+00 1.699812e+00 1.441326e+00 9.129954e-01 4.491428e-01 1.076308e-01 -1.618768e-01 -3.765203e-01 -5.052877e-01 -5.771198e-01 -5.709712e-01 -5.168351e-01 -4.237193e-01 -3.090236e-01 -1.989999e-01 -9.268678e-02 -2.961360e-02 
-2.283248e-02 -4.398702e-02 -8.524754e-02 -1.557557e-01 -2.308325e-01 -3.104390e-01 -3.756107e-01 -4.142091e-01 -4.161243e-01 -3.641760e-01 -2.646295e-01 -1.047702e-01 9.814898e-02 3.542593e-01 6.744124e-01 1.039078e+00 1.222599e+00 1.039078e+00 6.744124e-01 3.542593e-01 9.814898e-02 -1.047702e-01 -2.646295e-01 -3.641760e-01 -4.161243e-01 -4.142091e-01 -3.756107e-01 -3.104390e-01 -2.308325e-01 -1.557557e-01 -8.524754e-02 -4.398702e-02 
-1.781997e-02 -2.827692e-02 -4.907778e-02 -8.483215e-02 -1.238928e-01 -1.655747e-01 -2.006677e-01 -2.217318e-01 -2.242662e-01 -1.976575e-01 -1.452782e-01 -5.891336e-02 5.372562e-02 1.966587e-01 3.705989e-01 5.603278e-01 6.555363e-01 5.603278e-01 3.705989e-01 1.966587e-01 5.372562e-02 -5.891336e-02 -1.452782e-01 -1.976575e-01 -2.242662e-01 -2.217318e-01 -2.006677e-01 -1.655747e-01 -1.238928e-01 -8.483215e-02 -4.907778e-02 -2.827692e-02 
