# vtk DataFile Version 2.0
Comment goes here
ASCII

DATASET STRUCTURED_POINTS
FIELD FieldData 1
TIME 1 1 double
0.12000000
DIMENSIONS    32   32   1

ORIGIN    0.000   0.000   0.000
SPACING   0.03125 0.03125   1.000

POINT_DATA   1024
SCALARS uY double
LOOKUP_TABLE default

-1.800047e-16 -3.147176e-16 -2.272949e-15 -3.238463e-15 -4.574957e-15 -4.955145e-15 -5.449131e-15 -5.340549e-15 -4.421246e-15 -4.097186e-15 -2.063101e-15 -3.949706e-15 -1.098314e-16 -2.536683e-15 1.144031e-16 -3.309876e-15 -2.209981e-16 1.371842e-15 -6.184020e-16 2.226793e-15 1.260781e-15 2.101231e-15 3.576218e-15 4.462120e-15 3.979589e-15 4.895629e-15 4.709272e-15 4.237301e-15 3.433128e-15 3.214764e-15 1.548216e-15 1.081709e-15 
1.770873e-01 1.769024e-01 1.762108e-01 1.731444e-01 1.679380e-01 1.552379e-01 1.373228e-01 1.072561e-01 6.928731e-02 1.893577e-02 -3.815047e-02 -9.706515e-02 -1.501482e-01 -1.937631e-01 -2.482749e-01 -3.406484e-01 -4.054580e-01 -3.406484e-01 -2.482749e-01 -1.937631e-01 -1.501482e-01 -9.706515e-02 -3.815047e-02 1.893577e-02 6.928731e-02 1.072561e-01 1.373228e-01 1.552379e-01 1.679380e-01 1.731444e-01 1.762108e-01 1.769024e-01 
3.558748e-01 3.549502e-01 3.556779e-01 3.506089e-01 3.427844e-01 3.190466e-01 2.839418e-01 2.237701e-01 1.445849e-01 3.963813e-02 -7.696424e-02 -1.921755e-01 -2.937541e-01 -3.772478e-01 -5.077463e-01 -7.185907e-01 -8.529232e-01 -7.185907e-01 -5.077463e-01 -3.772478e-01 -2.937541e-01 -1.921755e-01 -7.696424e-02 3.963813e-02 1.445849e-01 2.237701e-01 2.839418e-01 3.190466e-01 3.427844e-01 3.506089e-01 3.556779e-01 3.549502e-01 
5.328421e-01 5.343218e-01 5.358262e-01 5.333652e-01 5.258720e-01 4.955545e-01 4.497163e-01 3.620672e-01 2.458361e-01 8.202992e-02 -1.099936e-01 -3.028623e-01 -4.631398e-01 -5.969982e-01 -8.193449e-01 -1.107478e+00 -1.262387e+00 -1.107478e+00 -8.193449e-01 -5.969982e-01 -4.631398e-01 -3.028623e-01 -1.099936e-01 8.202992e-02 2.458361e-01 3.620672e-01 4.497163e-01 4.955545e-01 5.258720e-01 5.333652e-01 5.358262e-01 5.343218e-01 
7.117558e-01 7.138993e-01 7.236890e-01 7.281147e-01 7.311549e-01 7.019542e-01 6.502869e-01 5.368557e-01 3.681347e-01 1.247749e-01 -1.527085e-01 -4.260528e-01 -6.738020e-01 -9.001656e-01 -1.206088e+00 -1.479380e+00 -1.593090e+00 -1.479380e+00 -1.206088e+00 -9.001656e-01 -6.738020e-01 -4.260528e-01 -1.527085e-01 1.247749e-01 3.681347e-01 5.368557e-01 6.502869e-01 7.019542e-01 7.311549e-01 7.281147e-01 7.236890e-01 7.138993e-01 
8.821291e-01 8.922996e-01 9.077955e-01 9.298547e-01 9.494073e-01 9.332481e-01 8.974876e-01 7.710636e-01 5.842472e-01 2.787115e-01 -1.344723e-01 -5.866117e-01 -9.882769e-01 -1.326977e+00 -1.671104e+00 -1.891588e+00 -1.972299e+00 -1.891588e+00 -1.671104e+00 -1.326977e+00 -9.882769e-01 -5.866117e-01 -1.344723e-01 2.787115e-01 5.842472e-01 7.710636e-01 8.974876e-01 9.332481e-01 9.494073e-01 9.298547e-01 9.077955e-01 8.922996e-01 
1.042863e+00 1.057788e+00 1.095318e+00 1.145629e+00 1.209767e+00 1.235186e+00 1.249105e+00 1.145324e+00 9.114453e-01 4.847165e-01 -9.329620e-02 -7.637103e-01 -1.393973e+00 -1.850441e+00 -2.224899e+00 -2.454493e+00 -2.549797e+00 -2.454493e+00 -2.224899e+00 -1.850441e+00 -1.393973e+00 -7.637103e-01 -9.329620e-02 4.847165e-01 9.114453e-01 1.145324e+00 1.249105e+00 1.235186e+00 1.209767e+00 1.145629e+00 1.095318e+00 1.057788e+00 
1.179238e+00 1.212214e+00 1.263825e+00 1.363665e+00 1.478756e+00 1.576811e+00 1.704630e+00 1.699559e+00 1.619090e+00 1.062779e+00 -1.700477e-01 -1.497504e+00 -2.219633e+00 -2.462773e+00 -2.709499e+00 -2.954751e+00 -3.113479e+00 -2.954751e+00 -2.709499e+00 -2.462773e+00 -2.219633e+00 -1.497504e+00 -1.700477e-01 1.062779e+00 1.619090e+00 1.699559e+00 1.704630e+00 1.576811e+00 1.478756e+00 1.363665e+00 1.263825e+00 1.212214e+00 
1.267640e+00 1.312466e+00 1.405043e+00 1.569726e+00 1.803718e+00 2.085779e+00 2.585360e+00 2.860956e+00 2.167327e+00 3.064090e-01 -1.488718e+00 -2.313174e+00 -2.471839e+00 -2.721602e+00 -3.044435e+00 -3.100560e+00 -3.180554e+00 -3.100560e+00 -3.044435e+00 -2.721602e+00 -2.471839e+00 -2.313174e+00 -1.488718e+00 3.064090e-01 2.167327e+00 2.860956e+00 2.585360e+00 2.085779e+00 1.803718e+00 1.569726e+00 1.405043e+00 1.312466e+00 
1.305963e+00 1.381451e+00 1.501763e+00 1.788483e+00 2.151768e+00 2.714189e+00 3.352763e+00 2.759792e+00 7.773832e-01 -1.297674e+00 -2.267497e+00 -2.452676e+00 -2.321888e+00 -2.428817e+00 -2.641984e+00 -2.464748e+00 -2.410579e+00 -2.464748e+00 -2.641984e+00 -2.428817e+00 -2.321888e+00 -2.452676e+00 -2.267497e+00 -1.297674e+00 7.773832e-01 2.759792e+00 3.352763e+00 2.714189e+00 2.151768e+00 1.788483e+00 1.501763e+00 1.381451e+00 
1.218497e+00 1.313299e+00 1.486567e+00 1.883509e+00 2.448386e+00 3.054687e+00 3.482430e+00 1.689917e+00 -9.690600e-01 -2.513274e+00 -3.073767e+00 -2.787942e+00 -2.226458e+00 -1.653569e+00 -1.290029e+00 -9.866284e-01 -9.346376e-01 -9.866284e-01 -1.290029e+00 -1.653569e+00 -2.226458e+00 -2.787942e+00 -3.073767e+00 -2.513274e+00 -9.690600e-01 1.689917e+00 3.482430e+00 3.054687e+00 2.448386e+00 1.883509e+00 1.486567e+00 1.313299e+00 
1.046795e+00 1.161479e+00 1.386774e+00 1.973759e+00 2.355305e+00 3.163024e+00 2.886823e+00 -3.359055e-01 -2.474165e+00 -2.984605e+00 -2.714806e+00 -1.736618e+00 -1.124061e+00 -7.655654e-01 -6.105604e-01 -4.755685e-01 -4.574162e-01 -4.755685e-01 -6.105604e-01 -7.655654e-01 -1.124061e+00 -1.736618e+00 -2.714806e+00 -2.984605e+00 -2.474165e+00 -3.359055e-01 2.886823e+00 3.163024e+00 2.355305e+00 1.973759e+00 1.386774e+00 1.161479e+00 
6.634705e-01 7.878345e-01 1.033896e+00 1.709478e+00 2.113908e+00 3.420956e+00 1.867027e+00 -2.036838e+00 -2.316659e+00 -1.528204e+00 -9.054769e-01 -9.282788e-01 -1.181262e+00 -8.808821e-01 -6.857490e-01 -5.440654e-01 -5.148373e-01 -5.440654e-01 -6.857490e-01 -8.808821e-01 -1.181262e+00 -9.282788e-01 -9.054769e-01 -1.528204e+00 -2.316659e+00 -2.036838e+00 1.867027e+00 3.420956e+00 2.113908e+00 1.709478e+00 1.033896e+00 7.878345e-01 
2.157578e-01 2.487619e-01 7.484544e-01 1.154217e+00 2.339567e+00 3.229042e+00 2.784542e-01 -1.769847e+00 -6.433933e-01 -3.927904e-01 -7.295755e-01 -1.103482e+00 -1.228760e+00 -8.768093e-01 -6.462778e-01 -4.890920e-01 -4.526957e-01 -4.890920e-01 -6.462778e-01 -8.768093e-01 -1.228760e+00 -1.103482e+00 -7.295755e-01 -3.927904e-01 -6.433933e-01 -1.769847e+00 2.784542e-01 3.229042e+00 2.339567e+00 1.154217e+00 7.484544e-01 2.487619e-01 
-2.392852e-01 -2.469854e-01 6.482749e-02 1.007961e+00 2.593349e+00 1.903663e+00 -4.236580e-01 -6.247121e-01 -1.685068e-01 -2.225225e-01 -2.837000e-01 -6.258877e-01 -8.751460e-01 -7.439945e-01 -5.791421e-01 -4.475213e-01 -4.167617e-01 -4.475213e-01 -5.791421e-01 -7.439945e-01 -8.751460e-01 -6.258877e-01 -2.837000e-01 -2.225225e-01 -1.685068e-01 -6.247121e-01 -4.236580e-01 1.903663e+00 2.593349e+00 1.007961e+00 6.482749e-02 -2.469854e-01 
-5.054573e-01 -5.637611e-01 -1.556918e-01 1.230836e+00 1.655024e+00 5.865559e-01 -1.247560e-02 4.301720e-03 -7.548829e-02 -1.870718e-01 -1.806779e-01 -3.495448e-01 -4.997940e-01 -4.561550e-01 -3.576895e-01 -2.651610e-01 -2.409560e-01 -2.651610e-01 -3.576895e-01 -4.561550e-01 -4.997940e-01 -3.495448e-01 -1.806779e-01 -1.870718e-01 -7.548829e-02 4.301720e-03 -1.247560e-02 5.865559e-01 1.655024e+00 1.230836e+00 -1.556918e-01 -5.637611e-01 
-4.175009e-15 -3.140778e-15 -8.270566e-15 -5.368078e-14 -1.058662e-13 -4.044398e-14 1.805424e-13 1.742554e-13 6.771456e-15 -3.907934e-14 -2.466697e-14 -1.242094e-14 -1.387370e-14 -4.425198e-15 -6.868325e-15 -9.954220e-16 -2.277830e-15 -6.242227e-15 9.368301e-16 -4.882006e-15 7.478523e-15 7.938952e-15 2.640285e-14 4.077382e-14 1.056140e-14 -1.122838e-13 -1.246518e-13 2.329325e-14 4.227040e-14 3.148877e-14 1.439754e-14 -4.306674e-15 
5.054573e-01 5.637611e-01 1.556918e-01 -1.230836e+00 -1.655024e+00 -5.865559e-01 1.247560e-02 -4.301720e-03 7.548829e-02 1.870718e-01 1.806779e-01 3.495448e-01 4.997940e-01 4.561550e-01 3.576895e-01 2.651610e-01 2.409560e-01 2.651610e-01 3.576895e-01 4.561550e-01 4.997940e-01 3.495448e-01 1.806779e-01 1.870718e-01 7.548829e-02 -4.301720e-03 1.247560e-02 -5.865559e-01 -1.655024e+00 -1.230836e+00 1.556918e-01 5.637611e-01 
2.392852e-01 2.469854e-01 -6.482749e-02 -1.007961e+00 -2.593349e+00 -1.903663e+00 4.236580e-01 6.247121e-01 1.685068e-01 2.225225e-01 2.837000e-01 6.258877e-01 8.751460e-01 7.439945e-01 5.791421e-01 4.475213e-01 4.167617e-01 4.475213e-01 5.791421e-01 7.439945e-01 8.751460e-01 6.258877e-01 2.837000e-01 2.225225e-01 1.685068e-01 6.247121e-01 4.236580e-01 -1.903663e+00 -2.593349e+00 -1.007961e+00 -6.482749e-02 2.469854e-01 
-2.157578e-01 -2.487619e-01 -7.484544e-01 -1.154217e+00 -2.339567e+00 -3.229042e+00 -2.784542e-01 1.769847e+00 6.433933e-01 3.927904e-01 7.295755e-01 1.103482e+00 1.228760e+00 8.768093e-01 6.462778e-01 4.890920e-01 4.526957e-01 4.890920e-01 6.462778e-01 8.768093e-01 1.228760e+00 1.103482e+00 7.295755e-01 3.927904e-01 6.433933e-01 1.769847e+00 -2.784542e-01 -3.229042e+00 -2.339567e+00 -1.154217e+00 -7.484544e-01 -2.487619e-01 
-6.634705e-01 -7.878345e-01 -1.033896e+00 -1.709478e+00 -2.113908e+00 -3.420956e+00 -1.867027e+00 2.036838e+00 2.316659e+00 1.528204e+00 9.054769e-01 9.282788e-01 1.181262e+00 8.808821e-01 6.857490e-01 5.440654e-01 5.148373e-01 5.440654e-01 6.857490e-01 8.808821e-01 1.181262e+00 9.282788e-01 9.054769e-01 1.528204e+00 2.316659e+00 2.036838e+00 -1.867027e+00 -3.420956e+00 -2.113908e+00 -1.709478e+00 -1.033896e+00 -7.878345e-01 
-1.046795e+00 -1.161479e+00 -1.386774e+00 -1.973759e+00 -2.355305e+00 -3.163024e+00 -2.886823e+00 3.359055e-01 2.474165e+00 2.984605e+00 2.714806e+00 1.736618e+00 1.124061e+00 7.655654e-01 6.105604e-01 4.755685e-01 4.574162e-01 4.755685e-01 6.105604e-01 7.655654e-01 1.124061e+00 1.736618e+00 2.714806e+00 2.984605e+00 2.474165e+00 3.359055e-01 -2.886823e+00 -3.163024e+00 -2.355305e+00 -1.973759e+00 -1.386774e+00 -1.161479e+00 
-1.218497e+00 -1.313299e+00 -1.486567e+00 -1.883509e+00 -2.448386e+00 -3.054687e+00 -3.482430e+00 -1.689917e+00 9.690600e-01 2.513274e+00 3.073767e+00 2.787942e+00 2.226458e+00 1.653569e+00 1.290029e+00 9.866284e-01 9.346376e-01 9.866284e-01 1.290029e+00 1.653569e+00 2.226458e+00 2.787942e+00 3.073767e+00 2.513274e+00 9.690600e-01 -1.689917e+00 -3.482430e+00 -3.054687e+00 -2.448386e+00 -1.883509e+00 -1.486567e+00 -1.313299e+00 
-1.305963e+00 -1.381451e+00 -1.501763e+00 -1.788483e+00 -2.151768e+00 -2.714189e+00 -3.352763e+00 -2.759792e+00 -7.773832e-01 1.297674e+00 2.267497e+00 2.452676e+00 2.321888e+00 2.428817e+00 2.641984e+00 2.464748e+00 2.410579e+00 2.464748e+00 2.641984e+00 2.428817e+00 2.321888e+00 2.452676e+00 2.267497e+00 1.297674e+00 -7.773832e-01 -2.759792e+00 -3.352763e+00 -2.714189e+00 -2.151768e+00 -1.788483e+00 -1.501763e+00 -1.381451e+00 
-1.267640e+00 -1.312466e+00 -1.405043e+00 -1.569726e+00 -1.803718e+00 -2.085779e+00 -2.585360e+00 -2.860956e+00 -2.167327e+00 -3.064090e-01 1.488718e+00 2.313174e+00 2.471839e+00 2.721602e+00 3.044435e+00 3.100560e+00 3.180554e+00 3.100560e+00 3.044435e+00 2.721602e+00 2.471839e+00 2.313174e+00 1.488718e+00 -3.064090e-01 -2.167327e+00 -2.860956e+00 -2.585360e+00 -2.085779e+00 -1.803718e+00 -1.569726e+00 -1.405043e+00 -1.312466e+00 
-1.179238e+00 -1.212214e+00 -1.263825e+00 -1.363665e+00 -1.478756e+00 -1.576811e+00 -1.704630e+00 -1.699559e+00 -1.619090e+00 -1.062779e+00 1.700477e-01 1.497504e+00 2.219633e+00 2.462773e+00 2.709499e+00 2.954751e+00 3.113479e+00 2.954751e+00 2.709499e+00 2.462773e+00 2.219633e+00 1.497504e+00 1.700477e-01 -1.062779e+00 -1.619090e+00 -1.699559e+00 -1.704630e+00 -1.576811e+00 -1.478756e+00 -1.363665e+00 -1.263825e+00 -1.212214e+00 
-1.042863e+00 -1.057788e+00 -1.095318e+00 -1.145629e+00 -1.209767e+00 -1.235186e+00 -1.249105e+00 -1.145324e+00 -9.114453e-01 -4.847165e-01 9.329620e-02 7.637103e-01 1.393973e+00 1.850441e+00 2.224899e+00 2.454493e+00 2.549797e+00 2.454493e+00 2.224899e+00 1.850441e+00 1.393973e+00 7.637103e-01 9.329620e-02 -4.847165e-01 -9.114453e-01 -1.145324e+00 -1.249105e+00 -1.235186e+00 -1.209767e+00 -1.145629e+00 -1.095318e+00 -1.057788e+00 
-8.821291e-01 -8.922996e-01 -9.077955e-01 -9.298547e-01 -9.494073e-01 -9.332481e-01 -8.974876e-01 -7.710636e-01 -5.842472e-01 -2.787115e-01 1.344723e-01 5.866117e-01 9.882769e-01 1.326977e+00 1.671104e+00 1.891588e+00 1.972299e+00 1.891588e+00 1.671104e+00 1.326977e+00 9.882769e-01 5.866117e-01 1.344723e-01 -2.787115e-01 -5.842472e-01 -7.710636e-01 -8.974876e-01 -9.332481e-01 -9.494073e-01 -9.298547e-01 -9.077955e-01 -8.922996e-01 
-7.117558e-01 -7.138993e-01 -7.236890e-01 -7.281147e-01 -7.311549e-01 -7.019542e-01 -6.502869e-01 -5.368557e-01 -3.681347e-01 -1.247749e-01 1.527085e-01 4.260528e-01 6.738020e-01 9.001656e-01 1.206088e+00 1.479380e+00 1.593090e+00 1.479380e+00 1.206088e+00 9.001656e-01 6.738020e-01 4.260528e-01 1.527085e-01 -1.247749e-01 -3.681347e-01 -5.368557e-01 -6.502869e-01 -7.019542e-01 -7.311549e-01 -7.281147e-01 -7.236890e-01 -7.138993e-01 
-5.328421e-01 -5.343218e-01 -5.358262e-01 -5.333652e-01 -5.258720e-01 -4.955545e-01 -4.497163e-01 -3.620672e-01 -2.458361e-01 -8.202992e-02 1.099936e-01 3.028623e-01 4.631398e-01 5.969982e-01 8.193449e-01 1.107478e+00 1.262387e+00 1.107478e+00 8.193449e-01 5.969982e-01 4.631398e-01 3.028623e-01 1.099936e-01 -8.202992e-02 -2.458361e-01 -3.620672e-01 -4.497163e-01 -4.955545e-01 -5.258720e-01 -5.333652e-01 -5.358262e-01 -5.343218e-01 
-3.558748e-01 -3.549502e-01 -3.556779e-01 -3.506089e-01 -3.427844e-01 -3.190466e-01 -2.839418e-01 -2.237701e-01 -1.445849e-01 -3.963813e-02 7.696424e-02 1.921755e-01 2.937541e-01 3.772478e-01 5.077463e-01 7.185907e-01 8.529232e-01 7.185907e-01 5.077463e-01 3.772478e-01 2.937541e-01 1.921755e-01 7.696424e-02 -3.963813e-02 -1.445849e-01 -2.237701e-01 -2.839418e-01 -3.190466e-01 -3.427844e-01 -3.506089e-01 -3.556779e-01 -3.549502e-01 
-1.770873e-01 -1.769024e-01 -1.762108e-01 -1.731444e-01 -1.679380e-01 -1.552379e-01 -1.373228e-01 -1.072561e-01 -6.928731e-02 -1.893577e-02 3.815047e-02 9.706515e-02 1.501482e-01 1.937631e-01 2.482749e-01 3.406484e-01 4.054580e-01 3.406484e-01 2.482749e-01 1.937631e-01 1.501482e-01 9.706515e-02 3.815047e-02 -1.893577e-02 -6.928731e-02 -1.072561e-01 -1.373228e-01 -1.552379e-01 -1.679380e-01 -1.731444e-01 -1.762108e-01 -1.769024e-01 
