# vtk DataFile Version 2.0
Comment goes here
ASCII

DATASET STRUCTURED_POINTS
FIELD FieldData 1
TIME 1 1 double
1.14000000
DIMENSIONS    32   32   1

ORIGIN    0.000   0.000   0.000
SPACING   0.03125 0.03125   1.000

POINT_DATA   1024
SCALARS uY double
LOOKUP_TABLE default

-5.898250e-14 -5.419065e-14 -5.995748e-14 -5.824867e-14 -5.514297e-14 -5.743012e-14 -4.731319e-14 -3.827191e-14 7.674560e-15 6.769622e-14 1.700769e-13 2.715148e-13 3.846158e-13 4.384187e-13 4.604026e-13 3.205382e-13 1.078969e-13 -2.290308e-13 -3.799411e-13 -4.956911e-13 -4.857442e-13 -4.144416e-13 -3.346554e-13 -2.077691e-13 -1.524815e-13 -6.117359e-14 -6.180288e-14 -1.950393e-14 -4.675917e-14 -2.531487e-14 -5.170695e-14 -4.065435e-14 
-3.810362e-02 -3.116995e-02 -5.837220e-03 2.788231e-02 7.199630e-02 1.132711e-01 1.542924e-01 1.784595e-01 1.918364e-01 1.787135e-01 1.492570e-01 8.980988e-02 1.365831e-03 -1.198486e-01 -2.898866e-01 -4.371178e-01 -5.079445e-01 -4.371178e-01 -2.898866e-01 -1.198486e-01 1.365831e-03 8.980988e-02 1.492570e-01 1.787135e-01 1.918364e-01 1.784595e-01 1.542924e-01 1.132711e-01 7.199630e-02 2.788231e-02 -5.837220e-03 -3.116995e-02 
-9.323669e-02 -7.922040e-02 -2.986302e-02 3.578152e-02 1.195253e-01 1.977339e-01 2.740553e-01 3.196088e-01 3.451143e-01 3.215282e-01 2.714855e-01 1.654184e-01 1.681632e-02 -1.904399e-01 -4.953836e-01 -7.704105e-01 -9.102636e-01 -7.704105e-01 -4.953836e-01 -1.904399e-01 1.681632e-02 1.654184e-01 2.714855e-01 3.215282e-01 3.451143e-01 3.196088e-01 2.740553e-01 1.977339e-01 1.195253e-01 3.578152e-02 -2.986302e-02 -7.922040e-02 
-1.735785e-01 -1.521296e-01 -7.701958e-02 2.067217e-02 1.442770e-01 2.561836e-01 3.676361e-01 4.322076e-01 4.735703e-01 4.429340e-01 3.816384e-01 2.446743e-01 5.985752e-02 -2.038507e-01 -6.487065e-01 -1.040691e+00 -1.228928e+00 -1.040691e+00 -6.487065e-01 -2.038507e-01 5.985752e-02 2.446743e-01 3.816384e-01 4.429340e-01 4.735703e-01 4.322076e-01 3.676361e-01 2.561836e-01 1.442770e-01 2.067217e-02 -7.701958e-02 -1.521296e-01 
-2.929927e-01 -2.630623e-01 -1.635214e-01 -3.494907e-02 1.204715e-01 2.581973e-01 3.897522e-01 4.652236e-01 5.132886e-01 4.767659e-01 4.190394e-01 2.656902e-01 1.147239e-01 -9.878549e-02 -5.820758e-01 -1.069080e+00 -1.330364e+00 -1.069080e+00 -5.820758e-01 -9.878549e-02 1.147239e-01 2.656902e-01 4.190394e-01 4.767659e-01 5.132886e-01 4.652236e-01 3.897522e-01 2.581973e-01 1.204715e-01 -3.494907e-02 -1.635214e-01 -2.630623e-01 
-4.481692e-01 -4.081955e-01 -2.792975e-01 -1.152241e-01 7.866952e-02 2.426619e-01 4.010913e-01 4.870237e-01 5.558213e-01 5.257697e-01 4.901723e-01 3.408724e-01 2.584765e-01 7.139698e-02 -5.949310e-01 -1.144305e+00 -1.371835e+00 -1.144305e+00 -5.949310e-01 7.139698e-02 2.584765e-01 3.408724e-01 4.901723e-01 5.257697e-01 5.558213e-01 4.870237e-01 4.010913e-01 2.426619e-01 7.866952e-02 -1.152241e-01 -2.792975e-01 -4.081955e-01 
-6.371717e-01 -5.858874e-01 -4.283844e-01 -2.280893e-01 -2.826960e-03 1.823144e-01 3.463488e-01 4.325592e-01 4.908110e-01 4.569773e-01 4.268573e-01 1.718794e-01 1.817514e-01 3.010474e-01 -1.807474e-01 -7.308011e-01 -1.030448e+00 -7.308011e-01 -1.807474e-01 3.010474e-01 1.817514e-01 1.718794e-01 4.268573e-01 4.569773e-01 4.908110e-01 4.325592e-01 3.463488e-01 1.823144e-01 -2.826960e-03 -2.280893e-01 -4.283844e-01 -5.858874e-01 
-8.511444e-01 -7.860145e-01 -5.962817e-01 -3.542263e-01 -8.896294e-02 1.199732e-01 3.052694e-01 3.883058e-01 4.642803e-01 4.472258e-01 4.116868e-01 1.952028e-01 5.430574e-01 4.230331e-01 -5.920008e-01 -4.335000e-01 -4.295267e-02 -4.335000e-01 -5.920008e-01 4.230331e-01 5.430574e-01 1.952028e-01 4.116868e-01 4.472258e-01 4.642803e-01 3.883058e-01 3.052694e-01 1.199732e-01 -8.896294e-02 -3.542263e-01 -5.962817e-01 -7.860145e-01 
-1.062013e+00 -9.834431e-01 -7.633276e-01 -4.825962e-01 -1.865143e-01 3.889589e-02 2.176496e-01 2.910674e-01 3.155442e-01 3.917981e-01 2.440312e-01 -3.897506e-01 -5.835614e-01 -2.688466e-01 5.530078e-01 1.402875e+00 1.468354e+00 1.402875e+00 5.530078e-01 -2.688466e-01 -5.835614e-01 -3.897506e-01 2.440312e-01 3.917981e-01 3.155442e-01 2.910674e-01 2.176496e-01 3.889589e-02 -1.865143e-01 -4.825962e-01 -7.633276e-01 -9.834431e-01 
-1.268654e+00 -1.173280e+00 -9.267899e-01 -6.050243e-01 -2.803650e-01 -4.097646e-02 1.446690e-01 1.756197e-01 2.481716e-01 2.195289e-01 -3.375434e-01 -5.165845e-01 3.805865e-01 1.202622e+00 1.167058e+00 7.380954e-01 4.770810e-01 7.380954e-01 1.167058e+00 1.202622e+00 3.805865e-01 -5.165845e-01 -3.375434e-01 2.195289e-01 2.481716e-01 1.756197e-01 1.446690e-01 -4.097646e-02 -2.803650e-01 -6.050243e-01 -9.267899e-01 -1.173280e+00 
-1.413003e+00 -1.305782e+00 -1.036691e+00 -6.833789e-01 -3.352345e-01 -9.923112e-02 7.277018e-02 -1.947227e-02 3.643959e-02 2.373333e-01 3.706805e-01 6.963258e-01 1.068142e+00 8.715026e-01 2.913527e-01 3.027025e-01 4.780839e-01 3.027025e-01 2.913527e-01 8.715026e-01 1.068142e+00 6.963258e-01 3.706805e-01 2.373333e-01 3.643959e-02 -1.947227e-02 7.277018e-02 -9.923112e-02 -3.352345e-01 -6.833789e-01 -1.036691e+00 -1.305782e+00 
-1.515571e+00 -1.395664e+00 -1.124355e+00 -7.430118e-01 -3.980001e-01 -1.500374e-01 -2.094416e-02 -5.508926e-02 6.539269e-01 9.129340e-01 2.536173e-01 2.380477e-01 5.061335e-01 4.890169e-01 4.265198e-01 7.038039e-01 9.217742e-01 7.038039e-01 4.265198e-01 4.890169e-01 5.061335e-01 2.380477e-01 2.536173e-01 9.129340e-01 6.539269e-01 -5.508926e-02 -2.094416e-02 -1.500374e-01 -3.980001e-01 -7.430118e-01 -1.124355e+00 -1.395664e+00 
-1.490900e+00 -1.370970e+00 -1.105773e+00 -7.084323e-01 -3.452326e-01 -2.191114e-02 1.606324e-01 3.458718e-01 9.778349e-01 2.954533e-01 -1.533241e-01 6.719173e-01 6.661050e-01 3.463293e-01 2.659764e-01 4.417419e-01 5.584632e-01 4.417419e-01 2.659764e-01 3.463293e-01 6.661050e-01 6.719173e-01 -1.533241e-01 2.954533e-01 9.778349e-01 3.458718e-01 1.606324e-01 -2.191114e-02 -3.452326e-01 -7.084323e-01 -1.105773e+00 -1.370970e+00 
-1.382942e+00 -1.271343e+00 -1.051291e+00 -6.743574e-01 -3.698128e-01 1.387720e-02 8.770684e-02 7.329262e-01 1.293145e+00 -3.494207e-01 -1.706871e-02 9.789497e-01 2.868629e-01 1.762585e-01 2.225952e-01 3.931097e-01 4.786673e-01 3.931097e-01 2.225952e-01 1.762585e-01 2.868629e-01 9.789497e-01 -1.706871e-02 -3.494207e-01 1.293145e+00 7.329262e-01 8.770684e-02 1.387720e-02 -3.698128e-01 -6.743574e-01 -1.051291e+00 -1.271343e+00 
-1.089159e+00 -1.005592e+00 -8.466253e-01 -5.432918e-01 -2.986023e-01 9.584247e-02 1.677524e-01 9.298360e-01 8.439824e-01 -7.637728e-01 3.193023e-01 8.846971e-01 1.393678e-01 1.861587e-01 1.061612e-01 2.161218e-01 2.264822e-01 2.161218e-01 1.061612e-01 1.861587e-01 1.393678e-01 8.846971e-01 3.193023e-01 -7.637728e-01 8.439824e-01 9.298360e-01 1.677524e-01 9.584247e-02 -2.986023e-01 -5.432918e-01 -8.466253e-01 -1.005592e+00 
-6.446213e-01 -5.972579e-01 -5.042334e-01 -3.196039e-01 -1.552817e-01 9.520212e-02 1.852455e-01 6.204743e-01 3.009940e-01 -4.438735e-01 4.919057e-01 4.835309e-01 -6.783319e-02 5.878588e-02 1.888124e-02 1.027421e-01 1.052650e-01 1.027421e-01 1.888124e-02 5.878588e-02 -6.783319e-02 4.835309e-01 4.919057e-01 -4.438735e-01 3.009940e-01 6.204743e-01 1.852455e-01 9.520212e-02 -1.552817e-01 -3.196039e-01 -5.042334e-01 -5.972579e-01 
2.051352e-13 4.257719e-14 -7.291500e-14 -1.143206e-13 -1.107687e-13 7.372222e-15 1.305479e-13 4.124645e-13 4.094355e-13 -1.178972e-13 4.392671e-13 3.578245e-13 2.762250e-13 1.666360e-13 1.084795e-13 -2.830327e-14 -1.159447e-13 -2.220220e-13 -4.123753e-13 -4.198468e-13 -5.986327e-13 1.086697e-13 5.426390e-13 7.412647e-13 -7.913170e-13 -1.755871e-12 -1.178642e-12 -5.672986e-13 6.274559e-14 4.042817e-13 5.023000e-13 3.809160e-13 
6.446213e-01 5.972579e-01 5.042334e-01 3.196039e-01 1.552817e-01 -9.520212e-02 -1.852455e-01 -6.204743e-01 -3.009940e-01 4.438735e-01 -4.919057e-01 -4.835309e-01 6.783319e-02 -5.878588e-02 -1.888124e-02 -1.027421e-01 -1.052650e-01 -1.027421e-01 -1.888124e-02 -5.878588e-02 6.783319e-02 -4.835309e-01 -4.919057e-01 4.438735e-01 -3.009940e-01 -6.204743e-01 -1.852455e-01 -9.520212e-02 1.552817e-01 3.196039e-01 5.042334e-01 5.972579e-01 
1.089159e+00 1.005592e+00 8.466253e-01 5.432918e-01 2.986023e-01 -9.584247e-02 -1.677524e-01 -9.298360e-01 -8.439824e-01 7.637728e-01 -3.193023e-01 -8.846971e-01 -1.393678e-01 -1.861587e-01 -1.061612e-01 -2.161218e-01 -2.264822e-01 -2.161218e-01 -1.061612e-01 -1.861587e-01 -1.393678e-01 -8.846971e-01 -3.193023e-01 7.637728e-01 -8.439824e-01 -9.298360e-01 -1.677524e-01 -9.584247e-02 2.986023e-01 5.432918e-01 8.466253e-01 1.005592e+00 
1.382942e+00 1.271343e+00 1.051291e+00 6.743574e-01 3.698128e-01 -1.387720e-02 -8.770684e-02 -7.329262e-01 -1.293145e+00 3.494207e-01 1.706871e-02 -9.789497e-01 -2.868629e-01 -1.762585e-01 -2.225952e-01 -3.931097e-01 -4.786673e-01 -3.931097e-01 -2.225952e-01 -1.762585e-01 -2.868629e-01 -9.789497e-01 1.706871e-02 3.494207e-01 -1.293145e+00 -7.329262e-01 -8.770684e-02 -1.387720e-02 3.698128e-01 6.743574e-01 1.051291e+00 1.271343e+00 
1.490900e+00 1.370970e+00 1.105773e+00 7.084323e-01 3.452326e-01 2.191114e-02 -1.606324e-01 -3.458718e-01 -9.778349e-01 -2.954533e-01 1.533241e-01 -6.719173e-01 -6.661050e-01 -3.463293e-01 -2.659764e-01 -4.417419e-01 -5.584632e-01 -4.417419e-01 -2.659764e-01 -3.463293e-01 -6.661050e-01 -6.719173e-01 1.533241e-01 -2.954533e-01 -9.778349e-01 -3.458718e-01 -1.606324e-01 2.191114e-02 3.452326e-01 7.084323e-01 1.105773e+00 1.370970e+00 
1.515571e+00 1.395664e+00 1.124355e+00 7.430118e-01 3.980001e-01 1.500374e-01 2.094416e-02 5.508926e-02 -6.539269e-01 -9.129340e-01 -2.536173e-01 -2.380477e-01 -5.061335e-01 -4.890169e-01 -4.265198e-01 -7.038039e-01 -9.217742e-01 -7.038039e-01 -4.265198e-01 -4.890169e-01 -5.061335e-01 -2.380477e-01 -2.536173e-01 -9.129340e-01 -6.539269e-01 5.508926e-02 2.094416e-02 1.500374e-01 3.980001e-01 7.430118e-01 1.124355e+00 1.395664e+00 
1.413003e+00 1.305782e+00 1.036691e+00 6.833789e-01 3.352345e-01 9.923112e-02 -7.277018e-02 1.947227e-02 -3.643959e-02 -2.373333e-01 -3.706805e-01 -6.963258e-01 -1.068142e+00 -8.715026e-01 -2.913527e-01 -3.027025e-01 -4.780839e-01 -3.027025e-01 -2.913527e-01 -8.715026e-01 -1.068142e+00 -6.963258e-01 -3.706805e-01 -2.373333e-01 -3.643959e-02 1.947227e-02 -7.277018e-02 9.923112e-02 3.352345e-01 6.833789e-01 1.036691e+00 1.305782e+00 
1.268654e+00 1.173280e+00 9.267899e-01 6.050243e-01 2.803650e-01 4.097646e-02 -1.446690e-01 -1.756197e-01 -2.481716e-01 -2.195289e-01 3.375434e-01 5.165845e-01 -3.805865e-01 -1.202622e+00 -1.167058e+00 -7.380954e-01 -4.770810e-01 -7.380954e-01 -1.167058e+00 -1.202622e+00 -3.805865e-01 5.165845e-01 3.375434e-01 -2.195289e-01 -2.481716e-01 -1.756197e-01 -1.446690e-01 4.097646e-02 2.803650e-01 6.050243e-01 9.267899e-01 1.173280e+00 
1.062013e+00 9.834431e-01 7.633276e-01 4.825962e-01 1.865143e-01 -3.889589e-02 -2.176496e-01 -2.910674e-01 -3.155442e-01 -3.917981e-01 -2.440312e-01 3.897506e-01 5.835614e-01 2.688466e-01 -5.530078e-01 -1.402875e+00 -1.468354e+00 -1.402875e+00 -5.530078e-01 2.688466e-01 5.835614e-01 3.897506e-01 -2.440312e-01 -3.917981e-01 -3.155442e-01 -2.910674e-01 -2.176496e-01 -3.889589e-02 1.865143e-01 4.825962e-01 7.633276e-01 9.834431e-01 
8.511444e-01 7.860145e-01 5.962817e-01 3.542263e-01 8.896294e-02 -1.199732e-01 -3.052694e-01 -3.883058e-01 -4.642803e-01 -4.472258e-01 -4.116868e-01 -1.952028e-01 -5.430574e-01 -4.230331e-01 5.920008e-01 4.335000e-01 4.295267e-02 4.335000e-01 5.920008e-01 -4.230331e-01 -5.430574e-01 -1.952028e-01 -4.116868e-01 -4.472258e-01 -4.642803e-01 -3.883058e-01 -3.052694e-01 -1.199732e-01 8.896294e-02 3.542263e-01 5.962817e-01 7.860145e-01 
6.371717e-01 5.858874e-01 4.283844e-01 2.280893e-01 2.826960e-03 -1.823144e-01 -3.463488e-01 -4.325592e-01 -4.908110e-01 -4.569773e-01 -4.268573e-01 -1.718794e-01 -1.817514e-01 -3.010474e-01 1.807474e-01 7.308011e-01 1.030448e+00 7.308011e-01 1.807474e-01 -3.010474e-01 -1.817514e-01 -1.718794e-01 -4.268573e-01 -4.569773e-01 -4.908110e-01 -4.325592e-01 -3.463488e-01 -1.823144e-01 2.826960e-03 2.280893e-01 4.283844e-01 5.858874e-01 
4.481692e-01 4.081955e-01 2.792975e-01 1.152241e-01 -7.866952e-02 -2.426619e-01 -4.010913e-01 -4.870237e-01 -5.558213e-01 -5.257697e-01 -4.901723e-01 -3.408724e-01 -2.584765e-01 -7.139698e-02 5.949310e-01 1.144305e+00 1.371835e+00 1.144305e+00 5.949310e-01 -7.139698e-02 -2.584765e-01 -3.408724e-01 -4.901723e-01 -5.257697e-01 -5.558213e-01 -4.870237e-01 -4.010913e-01 -2.426619e-01 -7.866952e-02 1.152241e-01 2.792975e-01 4.081955e-01 
2.929927e-01 2.630623e-01 1.635214e-01 3.494907e-02 -1.204715e-01 -2.581973e-01 -3.897522e-01 -4.652236e-01 -5.132886e-01 -4.767659e-01 -4.190394e-01 -2.656902e-01 -1.147239e-01 9.878549e-02 5.820758e-01 1.069080e+00 1.330364e+00 1.069080e+00 5.820758e-01 9.878549e-02 -1.147239e-01 -2.656902e-01 -4.190394e-01 -4.767659e-01 -5.132886e-01 -4.652236e-01 -3.897522e-01 -2.581973e-01 -1.204715e-01 3.494907e-02 1.635214e-01 2.630623e-01 
1.735785e-01 1.521296e-01 7.701958e-02 -2.067217e-02 -1.442770e-01 -2.561836e-01 -3.676361e-01 -4.322076e-01 -4.735703e-01 -4.429340e-01 -3.816384e-01 -2.446743e-01 -5.985752e-02 2.038507e-01 6.487065e-01 1.040691e+00 1.228928e+00 1.040691e+00 6.487065e-01 2.038507e-01 -5.985752e-02 -2.446743e-01 -3.816384e-01 -4.429340e-01 -4.735703e-01 -4.322076e-01 -3.676361e-01 -2.561836e-01 -1.442770e-01 -2.067217e-02 7.701958e-02 1.521296e-01 
9.323669e-02 7.922040e-02 2.986302e-02 -3.578152e-02 -1.195253e-01 -1.977339e-01 -2.740553e-01 -3.196088e-01 -3.451143e-01 -3.215282e-01 -2.714855e-01 -1.654184e-01 -1.681632e-02 1.904399e-01 4.953836e-01 7.704105e-01 9.102636e-01 7.704105e-01 4.953836e-01 1.904399e-01 -1.681632e-02 -1.654184e-01 -2.714855e-01 -3.215282e-01 -3.451143e-01 -3.196088e-01 -2.740553e-01 -1.977339e-01 -1.195253e-01 -3.578152e-02 2.986302e-02 7.922040e-02 
3.810362e-02 3.116995e-02 5.837220e-03 -2.788231e-02 -7.199630e-02 -1.132711e-01 -1.542924e-01 -1.784595e-01 -1.918364e-01 -1.787135e-01 -1.492570e-01 -8.980988e-02 -1.365831e-03 1.198486e-01 2.898866e-01 4.371178e-01 5.079445e-01 4.371178e-01 2.898866e-01 1.198486e-01 -1.365831e-03 -8.980988e-02 -1.492570e-01 -1.787135e-01 -1.918364e-01 -1.784595e-01 -1.542924e-01 -1.132711e-01 -7.199630e-02 -2.788231e-02 5.837220e-03 3.116995e-02 
