# vtk DataFile Version 2.0
Comment goes here
ASCII

DATASET STRUCTURED_POINTS
FIELD FieldData 1
TIME 1 1 double
0.98000000
DIMENSIONS    32   32   1

ORIGIN    0.000   0.000   0.000
SPACING   0.03125 0.03125   1.000

POINT_DATA   1024
SCALARS uY double
LOOKUP_TABLE default

-1.302761e-14 -9.115548e-15 -7.621925e-15 -3.898534e-15 7.356801e-16 2.828588e-15 8.039135e-15 8.041860e-15 1.469130e-14 1.467043e-14 2.819521e-14 2.836430e-14 4.970963e-14 3.373142e-14 4.467671e-14 4.691773e-14 3.988371e-14 2.118655e-14 7.651637e-15 -2.633250e-14 -6.816146e-14 -6.322620e-14 -6.502746e-14 -4.687524e-14 -4.153974e-14 -2.999433e-14 -2.975291e-14 -2.181211e-14 -2.306005e-14 -1.482767e-14 -1.665468e-14 -1.104381e-14 
-4.320324e-02 -3.576438e-02 -1.429764e-02 1.820085e-02 5.831137e-02 1.020801e-01 1.428999e-01 1.763931e-01 1.926155e-01 1.928009e-01 1.643428e-01 1.107645e-01 1.452909e-02 -1.229835e-01 -2.864394e-01 -4.414916e-01 -5.007200e-01 -4.414916e-01 -2.864394e-01 -1.229835e-01 1.452909e-02 1.107645e-01 1.643428e-01 1.928009e-01 1.926155e-01 1.763931e-01 1.428999e-01 1.020801e-01 5.831137e-02 1.820085e-02 -1.429764e-02 -3.576438e-02 
-1.018381e-01 -8.720127e-02 -4.488014e-02 1.776220e-02 9.425778e-02 1.762611e-01 2.534554e-01 3.170695e-01 3.508620e-01 3.560479e-01 3.103892e-01 2.246802e-01 5.404522e-02 -1.813300e-01 -4.993573e-01 -8.232896e-01 -9.357062e-01 -8.232896e-01 -4.993573e-01 -1.813300e-01 5.404522e-02 2.246802e-01 3.103892e-01 3.560479e-01 3.508620e-01 3.170695e-01 2.534554e-01 1.762611e-01 9.425778e-02 1.776220e-02 -4.488014e-02 -8.720127e-02 
-1.830417e-01 -1.604511e-01 -9.668511e-02 -4.460964e-03 1.047210e-01 2.184598e-01 3.233628e-01 4.090599e-01 4.518712e-01 4.593265e-01 3.960893e-01 2.904026e-01 8.016728e-02 -2.267847e-01 -5.959451e-01 -9.855520e-01 -1.144121e+00 -9.855520e-01 -5.959451e-01 -2.267847e-01 8.016728e-02 2.904026e-01 3.960893e-01 4.593265e-01 4.518712e-01 4.090599e-01 3.233628e-01 2.184598e-01 1.047210e-01 -4.460964e-03 -9.668511e-02 -1.604511e-01 
-3.019594e-01 -2.711106e-01 -1.848563e-01 -6.496852e-02 7.191432e-02 2.065776e-01 3.288441e-01 4.256871e-01 4.803268e-01 5.012879e-01 4.622497e-01 3.997760e-01 2.092750e-01 -4.500166e-02 -5.289246e-01 -1.152248e+00 -1.375699e+00 -1.152248e+00 -5.289246e-01 -4.500166e-02 2.092750e-01 3.997760e-01 4.622497e-01 5.012879e-01 4.803268e-01 4.256871e-01 3.288441e-01 2.065776e-01 7.191432e-02 -6.496852e-02 -1.848563e-01 -2.711106e-01 
-4.540345e-01 -4.122882e-01 -2.989132e-01 -1.455436e-01 2.225506e-02 1.770123e-01 3.124753e-01 4.145236e-01 4.704637e-01 5.023574e-01 4.592897e-01 4.280022e-01 1.981576e-01 -1.326786e-01 -4.150479e-01 -8.313851e-01 -1.043326e+00 -8.313851e-01 -4.150479e-01 -1.326786e-01 1.981576e-01 4.280022e-01 4.592897e-01 5.023574e-01 4.704637e-01 4.145236e-01 3.124753e-01 1.770123e-01 2.225506e-02 -1.455436e-01 -2.989132e-01 -4.122882e-01 
-6.451246e-01 -5.914913e-01 -4.480355e-01 -2.599409e-01 -6.319477e-02 1.017768e-01 2.355201e-01 3.178701e-01 3.598833e-01 3.791028e-01 3.987435e-01 4.548934e-01 3.925426e-01 5.047195e-01 1.443238e-02 -9.069304e-01 -1.134659e+00 -9.069304e-01 1.443238e-02 5.047195e-01 3.925426e-01 4.548934e-01 3.987435e-01 3.791028e-01 3.598833e-01 3.178701e-01 2.355201e-01 1.017768e-01 -6.319477e-02 -2.599409e-01 -4.480355e-01 -5.914913e-01 
-8.603141e-01 -7.912825e-01 -6.125765e-01 -3.805737e-01 -1.452793e-01 3.722988e-02 1.804514e-01 2.454945e-01 2.808722e-01 3.078667e-01 3.175077e-01 4.427277e-01 -9.391567e-02 -7.178696e-01 -1.937411e-01 8.564071e-01 1.393676e+00 8.564071e-01 -1.937411e-01 -7.178696e-01 -9.391567e-02 4.427277e-01 3.175077e-01 3.078667e-01 2.808722e-01 2.454945e-01 1.804514e-01 3.722988e-02 -1.452793e-01 -3.805737e-01 -6.125765e-01 -7.912825e-01 
-1.084693e+00 -1.000146e+00 -7.854872e-01 -5.098508e-01 -2.405060e-01 -5.036070e-02 7.650059e-02 8.282519e-02 2.117904e-02 -3.295900e-02 -1.994902e-01 -4.954290e-01 -6.525499e-01 5.537117e-01 1.693584e+00 1.452209e+00 1.258233e+00 1.452209e+00 1.693584e+00 5.537117e-01 -6.525499e-01 -4.954290e-01 -1.994902e-01 -3.295900e-02 2.117904e-02 8.282519e-02 7.650059e-02 -5.036070e-02 -2.405060e-01 -5.098508e-01 -7.854872e-01 -1.000146e+00 
-1.301342e+00 -1.199103e+00 -9.506946e-01 -6.273726e-01 -3.209274e-01 -1.176248e-01 1.769594e-02 -4.688410e-02 -6.783266e-02 -2.180510e-01 -3.659852e-01 3.908841e-01 1.294728e+00 1.789245e+00 1.072008e+00 2.890599e-02 -5.664212e-02 2.890599e-02 1.072008e+00 1.789245e+00 1.294728e+00 3.908841e-01 -3.659852e-01 -2.180510e-01 -6.783266e-02 -4.688410e-02 1.769594e-02 -1.176248e-01 -3.209274e-01 -6.273726e-01 -9.506946e-01 -1.199103e+00 
-1.468615e+00 -1.352452e+00 -1.075514e+00 -7.081035e-01 -3.663654e-01 -1.446895e-01 -3.347459e-03 -1.745311e-01 -1.069566e-01 1.382425e-01 3.828264e-01 9.603439e-01 8.473933e-01 6.375907e-01 5.405818e-01 6.435992e-01 1.031379e+00 6.435992e-01 5.405818e-01 6.375907e-01 8.473933e-01 9.603439e-01 3.828264e-01 1.382425e-01 -1.069566e-01 -1.745311e-01 -3.347459e-03 -1.446895e-01 -3.663654e-01 -7.081035e-01 -1.075514e+00 -1.352452e+00 
-1.580592e+00 -1.453583e+00 -1.169319e+00 -7.687324e-01 -4.218510e-01 -1.776015e-01 -8.686241e-02 -1.845344e-01 6.741441e-01 7.796371e-01 1.564663e-01 7.372241e-01 7.673394e-01 6.041351e-01 5.007378e-01 4.634554e-01 7.392814e-01 4.634554e-01 5.007378e-01 6.041351e-01 7.673394e-01 7.372241e-01 1.564663e-01 7.796371e-01 6.741441e-01 -1.845344e-01 -8.686241e-02 -1.776015e-01 -4.218510e-01 -7.687324e-01 -1.169319e+00 -1.453583e+00 
-1.575592e+00 -1.449110e+00 -1.171892e+00 -7.513494e-01 -3.875478e-01 -5.126932e-02 6.746509e-02 2.769445e-01 9.432340e-01 8.845830e-02 -4.068266e-02 1.044244e+00 5.778327e-01 2.988879e-01 4.175051e-01 5.431943e-01 7.637639e-01 5.431943e-01 4.175051e-01 2.988879e-01 5.778327e-01 1.044244e+00 -4.068266e-02 8.845830e-02 9.432340e-01 2.769445e-01 6.746509e-02 -5.126932e-02 -3.875478e-01 -7.513494e-01 -1.171892e+00 -1.449110e+00 
-1.458714e+00 -1.344163e+00 -1.107988e+00 -7.057606e-01 -3.703216e-01 5.221573e-02 1.356121e-01 7.497406e-01 1.037676e+00 -3.046579e-01 4.381721e-01 1.060631e+00 1.757081e-01 1.947911e-01 2.161371e-01 2.972028e-01 4.087207e-01 2.972028e-01 2.161371e-01 1.947911e-01 1.757081e-01 1.060631e+00 4.381721e-01 -3.046579e-01 1.037676e+00 7.497406e-01 1.356121e-01 5.221573e-02 -3.703216e-01 -7.057606e-01 -1.107988e+00 -1.344163e+00 
-1.163608e+00 -1.079998e+00 -9.108343e-01 -5.897349e-01 -3.050846e-01 1.299999e-01 2.656262e-01 9.541072e-01 5.811331e-01 -6.782266e-01 6.410699e-01 8.341382e-01 3.904862e-02 1.881897e-01 1.311769e-01 2.415243e-01 2.793364e-01 2.415243e-01 1.311769e-01 1.881897e-01 3.904862e-02 8.341382e-01 6.410699e-01 -6.782266e-01 5.811331e-01 9.541072e-01 2.656262e-01 1.299999e-01 -3.050846e-01 -5.897349e-01 -9.108343e-01 -1.079998e+00 
-6.838094e-01 -6.385435e-01 -5.422003e-01 -3.454648e-01 -1.516217e-01 1.229814e-01 2.287460e-01 6.103169e-01 2.254686e-01 -3.757599e-01 5.874300e-01 4.824094e-01 -6.207330e-02 6.732733e-02 1.360869e-02 7.673304e-02 8.509316e-02 7.673304e-02 1.360869e-02 6.732733e-02 -6.207330e-02 4.824094e-01 5.874300e-01 -3.757599e-01 2.254686e-01 6.103169e-01 2.287460e-01 1.229814e-01 -1.516217e-01 -3.454648e-01 -5.422003e-01 -6.385435e-01 
-9.602577e-15 -4.598332e-14 -8.332469e-14 -1.235903e-13 -1.383077e-13 -1.179526e-13 -6.035389e-14 -1.316819e-14 3.425537e-14 9.241317e-14 1.817884e-13 1.118164e-13 1.088524e-13 3.373283e-14 4.486244e-14 -1.299751e-14 -2.915629e-14 -6.439423e-14 -1.297895e-13 -1.387572e-13 -2.012985e-13 -3.968542e-14 1.710832e-13 4.319010e-13 -5.390412e-14 -4.025817e-13 -1.762381e-13 4.989997e-14 1.812647e-13 1.474307e-13 8.860606e-14 2.053135e-14 
6.838094e-01 6.385435e-01 5.422003e-01 3.454648e-01 1.516217e-01 -1.229814e-01 -2.287460e-01 -6.103169e-01 -2.254686e-01 3.757599e-01 -5.874300e-01 -4.824094e-01 6.207330e-02 -6.732733e-02 -1.360869e-02 -7.673304e-02 -8.509316e-02 -7.673304e-02 -1.360869e-02 -6.732733e-02 6.207330e-02 -4.824094e-01 -5.874300e-01 3.757599e-01 -2.254686e-01 -6.103169e-01 -2.287460e-01 -1.229814e-01 1.516217e-01 3.454648e-01 5.422003e-01 6.385435e-01 
1.163608e+00 1.079998e+00 9.108343e-01 5.897349e-01 3.050846e-01 -1.299999e-01 -2.656262e-01 -9.541072e-01 -5.811331e-01 6.782266e-01 -6.410699e-01 -8.341382e-01 -3.904862e-02 -1.881897e-01 -1.311769e-01 -2.415243e-01 -2.793364e-01 -2.415243e-01 -1.311769e-01 -1.881897e-01 -3.904862e-02 -8.341382e-01 -6.410699e-01 6.782266e-01 -5.811331e-01 -9.541072e-01 -2.656262e-01 -1.299999e-01 3.050846e-01 5.897349e-01 9.108343e-01 1.079998e+00 
1.458714e+00 1.344163e+00 1.107988e+00 7.057606e-01 3.703216e-01 -5.221573e-02 -1.356121e-01 -7.497406e-01 -1.037676e+00 3.046579e-01 -4.381721e-01 -1.060631e+00 -1.757081e-01 -1.947911e-01 -2.161371e-01 -2.972028e-01 -4.087207e-01 -2.972028e-01 -2.161371e-01 -1.947911e-01 -1.757081e-01 -1.060631e+00 -4.381721e-01 3.046579e-01 -1.037676e+00 -7.497406e-01 -1.356121e-01 -5.221573e-02 3.703216e-01 7.057606e-01 1.107988e+00 1.344163e+00 
1.575592e+00 1.449110e+00 1.171892e+00 7.513494e-01 3.875478e-01 5.126932e-02 -6.746509e-02 -2.769445e-01 -9.432340e-01 -8.845830e-02 4.068266e-02 -1.044244e+00 -5.778327e-01 -2.988879e-01 -4.175051e-01 -5.431943e-01 -7.637639e-01 -5.431943e-01 -4.175051e-01 -2.988879e-01 -5.778327e-01 -1.044244e+00 4.068266e-02 -8.845830e-02 -9.432340e-01 -2.769445e-01 -6.746509e-02 5.126932e-02 3.875478e-01 7.513494e-01 1.171892e+00 1.449110e+00 
1.580592e+00 1.453583e+00 1.169319e+00 7.687324e-01 4.218510e-01 1.776015e-01 8.686241e-02 1.845344e-01 -6.741441e-01 -7.796371e-01 -1.564663e-01 -7.372241e-01 -7.673394e-01 -6.041351e-01 -5.007378e-01 -4.634554e-01 -7.392814e-01 -4.634554e-01 -5.007378e-01 -6.041351e-01 -7.673394e-01 -7.372241e-01 -1.564663e-01 -7.796371e-01 -6.741441e-01 1.845344e-01 8.686241e-02 1.776015e-01 4.218510e-01 7.687324e-01 1.169319e+00 1.453583e+00 
1.468615e+00 1.352452e+00 1.075514e+00 7.081035e-01 3.663654e-01 1.446895e-01 3.347459e-03 1.745311e-01 1.069566e-01 -1.382425e-01 -3.828264e-01 -9.603439e-01 -8.473933e-01 -6.375907e-01 -5.405818e-01 -6.435992e-01 -1.031379e+00 -6.435992e-01 -5.405818e-01 -6.375907e-01 -8.473933e-01 -9.603439e-01 -3.828264e-01 -1.382425e-01 1.069566e-01 1.745311e-01 3.347459e-03 1.446895e-01 3.663654e-01 7.081035e-01 1.075514e+00 1.352452e+00 
1.301342e+00 1.199103e+00 9.506946e-01 6.273726e-01 3.209274e-01 1.176248e-01 -1.769594e-02 4.688410e-02 6.783266e-02 2.180510e-01 3.659852e-01 -3.908841e-01 -1.294728e+00 -1.789245e+00 -1.072008e+00 -2.890599e-02 5.664212e-02 -2.890599e-02 -1.072008e+00 -1.789245e+00 -1.294728e+00 -3.908841e-01 3.659852e-01 2.180510e-01 6.783266e-02 4.688410e-02 -1.769594e-02 1.176248e-01 3.209274e-01 6.273726e-01 9.506946e-01 1.199103e+00 
1.084693e+00 1.000146e+00 7.854872e-01 5.098508e-01 2.405060e-01 5.036070e-02 -7.650059e-02 -8.282519e-02 -2.117904e-02 3.295900e-02 1.994902e-01 4.954290e-01 6.525499e-01 -5.537117e-01 -1.693584e+00 -1.452209e+00 -1.258233e+00 -1.452209e+00 -1.693584e+00 -5.537117e-01 6.525499e-01 4.954290e-01 1.994902e-01 3.295900e-02 -2.117904e-02 -8.282519e-02 -7.650059e-02 5.036070e-02 2.405060e-01 5.098508e-01 7.854872e-01 1.000146e+00 
8.603141e-01 7.912825e-01 6.125765e-01 3.805737e-01 1.452793e-01 -3.722988e-02 -1.804514e-01 -2.454945e-01 -2.808722e-01 -3.078667e-01 -3.175077e-01 -4.427277e-01 9.391567e-02 7.178696e-01 1.937411e-01 -8.564071e-01 -1.393676e+00 -8.564071e-01 1.937411e-01 7.178696e-01 9.391567e-02 -4.427277e-01 -3.175077e-01 -3.078667e-01 -2.808722e-01 -2.454945e-01 -1.804514e-01 -3.722988e-02 1.452793e-01 3.805737e-01 6.125765e-01 7.912825e-01 
6.451246e-01 5.914913e-01 4.480355e-01 2.599409e-01 6.319477e-02 -1.017768e-01 -2.355201e-01 -3.178701e-01 -3.598833e-01 -3.791028e-01 -3.987435e-01 -4.548934e-01 -3.925426e-01 -5.047195e-01 -1.443238e-02 9.069304e-01 1.134659e+00 9.069304e-01 -1.443238e-02 -5.047195e-01 -3.925426e-01 -4.548934e-01 -3.987435e-01 -3.791028e-01 -3.598833e-01 -3.178701e-01 -2.355201e-01 -1.017768e-01 6.319477e-02 2.599409e-01 4.480355e-01 5.914913e-01 
4.540345e-01 4.122882e-01 2.989132e-01 1.455436e-01 -2.225506e-02 -1.770123e-01 -3.124753e-01 -4.145236e-01 -4.704637e-01 -5.023574e-01 -4.592897e-01 -4.280022e-01 -1.981576e-01 1.326786e-01 4.150479e-01 8.313851e-01 1.043326e+00 8.313851e-01 4.150479e-01 1.326786e-01 -1.981576e-01 -4.280022e-01 -4.592897e-01 -5.023574e-01 -4.704637e-01 -4.145236e-01 -3.124753e-01 -1.770123e-01 -2.225506e-02 1.455436e-01 2.989132e-01 4.122882e-01 
3.019594e-01 2.711106e-01 1.848563e-01 6.496852e-02 -7.191432e-02 -2.065776e-01 -3.288441e-01 -4.256871e-01 -4.803268e-01 -5.012879e-01 -4.622497e-01 -3.997760e-01 -2.092750e-01 4.500166e-02 5.289246e-01 1.152248e+00 1.375699e+00 1.152248e+00 5.289246e-01 4.500166e-02 -2.092750e-01 -3.997760e-01 -4.622497e-01 -5.012879e-01 -4.803268e-01 -4.256871e-01 -3.288441e-01 -2.065776e-01 -7.191432e-02 6.496852e-02 1.848563e-01 2.711106e-01 
1.830417e-01 1.604511e-01 9.668511e-02 4.460964e-03 -1.047210e-01 -2.184598e-01 -3.233628e-01 -4.090599e-01 -4.518712e-01 -4.593265e-01 -3.960893e-01 -2.904026e-01 -8.016728e-02 2.267847e-01 5.959451e-01 9.855520e-01 1.144121e+00 9.855520e-01 5.959451e-01 2.267847e-01 -8.016728e-02 -2.904026e-01 -3.960893e-01 -4.593265e-01 -4.518712e-01 -4.090599e-01 -3.233628e-01 -2.184598e-01 -1.047210e-01 4.460964e-03 9.668511e-02 1.604511e-01 
1.018381e-01 8.720127e-02 4.488014e-02 -1.776220e-02 -9.425778e-02 -1.762611e-01 -2.534554e-01 -3.170695e-01 -3.508620e-01 -3.560479e-01 -3.103892e-01 -2.246802e-01 -5.404522e-02 1.813300e-01 4.993573e-01 8.232896e-01 9.357062e-01 8.232896e-01 4.993573e-01 1.813300e-01 -5.404522e-02 -2.246802e-01 -3.103892e-01 -3.560479e-01 -3.508620e-01 -3.170695e-01 -2.534554e-01 -1.762611e-01 -9.425778e-02 -1.776220e-02 4.488014e-02 8.720127e-02 
4.320324e-02 3.576438e-02 1.429764e-02 -1.820085e-02 -5.831137e-02 -1.020801e-01 -1.428999e-01 -1.763931e-01 -1.926155e-01 -1.928009e-01 -1.643428e-01 -1.107645e-01 -1.452909e-02 1.229835e-01 2.864394e-01 4.414916e-01 5.007200e-01 4.414916e-01 2.864394e-01 1.229835e-01 -1.452909e-02 -1.107645e-01 -1.643428e-01 -1.928009e-01 -1.926155e-01 -1.763931e-01 -1.428999e-01 -1.020801e-01 -5.831137e-02 -1.820085e-02 1.429764e-02 3.576438e-02 
