# vtk DataFile Version 2.0
Comment goes here
ASCII

DATASET STRUCTURED_POINTS
FIELD FieldData 1
TIME 1 1 double
0.52000000
DIMENSIONS    32   32   1

ORIGIN    0.000   0.000   0.000
SPACING   0.03125 0.03125   1.000

POINT_DATA   1024
SCALARS uY double
LOOKUP_TABLE default

-3.674916e-15 -8.339363e-16 -2.656740e-15 1.228821e-15 -7.417879e-16 5.726955e-15 3.202266e-15 1.280716e-14 7.435761e-15 1.533148e-14 1.776683e-15 3.578568e-17 -1.952958e-14 -3.438634e-14 -3.862920e-14 -4.909726e-14 3.885326e-15 2.199895e-14 3.316512e-14 3.016019e-14 1.969407e-14 7.688357e-16 -2.106052e-15 -1.098246e-14 -9.670665e-15 -9.145563e-15 -8.240342e-15 -5.390277e-15 -6.334070e-15 -3.298926e-15 -4.734342e-15 -2.011064e-15 
-9.665631e-02 -9.264221e-02 -8.612833e-02 -7.241572e-02 -5.309301e-02 -2.718587e-02 1.288091e-02 5.706103e-02 1.220686e-01 1.723987e-01 2.284746e-01 2.311667e-01 1.860974e-01 7.769491e-02 -1.316522e-01 -3.460775e-01 -4.606397e-01 -3.460775e-01 -1.316522e-01 7.769491e-02 1.860974e-01 2.311667e-01 2.284746e-01 1.723987e-01 1.220686e-01 5.706103e-02 1.288091e-02 -2.718587e-02 -5.309301e-02 -7.241572e-02 -8.612833e-02 -9.264221e-02 
-1.961237e-01 -1.881681e-01 -1.759171e-01 -1.500070e-01 -1.151514e-01 -6.872983e-02 1.544180e-03 7.925898e-02 1.948324e-01 2.877747e-01 3.962477e-01 4.164003e-01 3.466284e-01 1.768636e-01 -1.397450e-01 -5.533928e-01 -8.207547e-01 -5.533928e-01 -1.397450e-01 1.768636e-01 3.466284e-01 4.164003e-01 3.962477e-01 2.877747e-01 1.948324e-01 7.925898e-02 1.544180e-03 -6.872983e-02 -1.151514e-01 -1.500070e-01 -1.759171e-01 -1.881681e-01 
-3.093664e-01 -2.966020e-01 -2.796174e-01 -2.421046e-01 -1.961938e-01 -1.352863e-01 -4.518589e-02 5.283374e-02 2.114549e-01 3.366560e-01 5.371777e-01 5.976879e-01 6.033096e-01 4.692160e-01 -1.003681e-01 -7.824007e-01 -1.151788e+00 -7.824007e-01 -1.003681e-01 4.692160e-01 6.033096e-01 5.976879e-01 5.371777e-01 3.366560e-01 2.114549e-01 5.283374e-02 -4.518589e-02 -1.352863e-01 -1.961938e-01 -2.421046e-01 -2.796174e-01 -2.966020e-01 
-4.285735e-01 -4.107199e-01 -3.892166e-01 -3.417763e-01 -2.909872e-01 -2.246246e-01 -1.324593e-01 -3.127739e-02 1.401742e-01 2.797975e-01 5.497339e-01 6.334444e-01 6.156211e-01 6.422905e-01 3.007585e-01 -5.471342e-01 -1.158675e+00 -5.471342e-01 3.007585e-01 6.422905e-01 6.156211e-01 6.334444e-01 5.497339e-01 2.797975e-01 1.401742e-01 -3.127739e-02 -1.324593e-01 -2.246246e-01 -2.909872e-01 -3.417763e-01 -3.892166e-01 -4.107199e-01 
-5.729999e-01 -5.473835e-01 -5.207119e-01 -4.608241e-01 -4.101120e-01 -3.439019e-01 -2.661850e-01 -1.760564e-01 -1.845661e-02 1.171526e-01 5.349499e-01 6.123055e-01 1.017964e+00 1.259844e+00 2.104990e-01 -4.611365e-01 -5.228947e-01 -4.611365e-01 2.104990e-01 1.259844e+00 1.017964e+00 6.123055e-01 5.349499e-01 1.171526e-01 -1.845661e-02 -1.760564e-01 -2.661850e-01 -3.439019e-01 -4.101120e-01 -4.608241e-01 -5.207119e-01 -5.473835e-01 
-7.222495e-01 -6.873023e-01 -6.510040e-01 -5.762964e-01 -5.277671e-01 -4.699867e-01 -4.221162e-01 -3.584241e-01 -2.572477e-01 -1.099108e-01 5.043080e-01 4.983002e-01 2.623350e-02 -1.648089e-01 5.896488e-01 1.868429e+00 2.198139e+00 1.868429e+00 5.896488e-01 -1.648089e-01 2.623350e-02 4.983002e-01 5.043080e-01 -1.099108e-01 -2.572477e-01 -3.584241e-01 -4.221162e-01 -4.699867e-01 -5.277671e-01 -5.762964e-01 -6.510040e-01 -6.873023e-01 
-9.044310e-01 -8.549070e-01 -8.030644e-01 -7.038622e-01 -6.585048e-01 -6.126719e-01 -6.182209e-01 -6.122014e-01 -6.649644e-01 -4.613007e-01 -8.296680e-02 -6.093200e-01 2.396586e-02 1.740425e+00 2.383428e+00 2.113839e+00 1.745087e+00 2.113839e+00 2.383428e+00 1.740425e+00 2.396586e-02 -6.093200e-01 -8.296680e-02 -4.613007e-01 -6.649644e-01 -6.122014e-01 -6.182209e-01 -6.126719e-01 -6.585048e-01 -7.038622e-01 -8.030644e-01 -8.549070e-01 
-1.082085e+00 -1.015631e+00 -9.374192e-01 -8.042717e-01 -7.566701e-01 -7.340010e-01 -8.047075e-01 -9.665935e-01 -1.053889e+00 -7.635303e-01 8.834776e-02 9.069481e-01 2.055625e+00 2.209589e+00 1.448059e+00 1.167491e+00 1.003395e+00 1.167491e+00 1.448059e+00 2.209589e+00 2.055625e+00 9.069481e-01 8.834776e-02 -7.635303e-01 -1.053889e+00 -9.665935e-01 -8.047075e-01 -7.340010e-01 -7.566701e-01 -8.042717e-01 -9.374192e-01 -1.015631e+00 
-1.285018e+00 -1.196855e+00 -1.083230e+00 -8.984776e-01 -8.376176e-01 -8.326414e-01 -9.784586e-01 -1.283428e+00 -9.099721e-01 -3.940818e-03 1.008188e+00 1.508885e+00 1.606768e+00 1.264353e+00 1.088195e+00 1.442104e+00 1.497272e+00 1.442104e+00 1.088195e+00 1.264353e+00 1.606768e+00 1.508885e+00 1.008188e+00 -3.940818e-03 -9.099721e-01 -1.283428e+00 -9.784586e-01 -8.326414e-01 -8.376176e-01 -8.984776e-01 -1.083230e+00 -1.196855e+00 
-1.446878e+00 -1.339275e+00 -1.180773e+00 -9.277313e-01 -8.447434e-01 -8.199987e-01 -1.106323e+00 -1.136461e+00 -1.360154e-01 5.631293e-01 1.147458e+00 1.424174e+00 1.167836e+00 9.597748e-01 9.912028e-01 1.276388e+00 1.369595e+00 1.276388e+00 9.912028e-01 9.597748e-01 1.167836e+00 1.424174e+00 1.147458e+00 5.631293e-01 -1.360154e-01 -1.136461e+00 -1.106323e+00 -8.199987e-01 -8.447434e-01 -9.277313e-01 -1.180773e+00 -1.339275e+00 
-1.593992e+00 -1.469082e+00 -1.267550e+00 -9.377750e-01 -8.266798e-01 -7.452923e-01 -1.107819e+00 -5.013001e-01 5.951207e-01 4.260321e-01 1.304944e+00 1.430353e+00 6.178875e-01 5.854161e-01 8.122613e-01 1.211648e+00 1.337664e+00 1.211648e+00 8.122613e-01 5.854161e-01 6.178875e-01 1.430353e+00 1.304944e+00 4.260321e-01 5.951207e-01 -5.013001e-01 -1.107819e+00 -7.452923e-01 -8.266798e-01 -9.377750e-01 -1.267550e+00 -1.469082e+00 
-1.632080e+00 -1.502994e+00 -1.249810e+00 -8.597823e-01 -6.555808e-01 -5.369129e-01 -7.047400e-01 1.096963e-01 5.969417e-01 3.527197e-01 1.542185e+00 1.067548e+00 2.653352e-01 4.811657e-01 5.437403e-01 8.885600e-01 9.559366e-01 8.885600e-01 5.437403e-01 4.811657e-01 2.653352e-01 1.067548e+00 1.542185e+00 3.527197e-01 5.969417e-01 1.096963e-01 -7.047400e-01 -5.369129e-01 -6.555808e-01 -8.597823e-01 -1.249810e+00 -1.502994e+00 
-1.583880e+00 -1.460153e+00 -1.174649e+00 -7.672911e-01 -4.779332e-01 -3.448055e-01 -2.072451e-01 4.656980e-01 3.146140e-01 4.579831e-01 1.627464e+00 7.316504e-01 7.433575e-02 3.082119e-01 3.179548e-01 6.087065e-01 6.347967e-01 6.087065e-01 3.179548e-01 3.082119e-01 7.433575e-02 7.316504e-01 1.627464e+00 4.579831e-01 3.146140e-01 4.656980e-01 -2.072451e-01 -3.448055e-01 -4.779332e-01 -7.672911e-01 -1.174649e+00 -1.460153e+00 
-1.326812e+00 -1.219228e+00 -9.384628e-01 -5.426551e-01 -1.792329e-01 9.786953e-03 1.835024e-01 3.898428e-01 -2.346406e-02 4.458970e-01 1.341043e+00 4.398636e-01 -7.867327e-03 1.524755e-01 1.288019e-01 3.240176e-01 3.181722e-01 3.240176e-01 1.288019e-01 1.524755e-01 -7.867327e-03 4.398636e-01 1.341043e+00 4.458970e-01 -2.346406e-02 3.898428e-01 1.835024e-01 9.786953e-03 -1.792329e-01 -5.426551e-01 -9.384628e-01 -1.219228e+00 
-8.331151e-01 -7.514117e-01 -5.316703e-01 -2.457872e-01 -3.619233e-03 6.490423e-02 9.142436e-02 1.145359e-01 -1.599347e-02 4.248316e-01 7.842490e-01 2.137841e-01 -9.391320e-03 4.415397e-02 3.637141e-02 1.349890e-01 1.303740e-01 1.349890e-01 3.637141e-02 4.415397e-02 -9.391320e-03 2.137841e-01 7.842490e-01 4.248316e-01 -1.599347e-02 1.145359e-01 9.142436e-02 6.490423e-02 -3.619233e-03 -2.457872e-01 -5.316703e-01 -7.514117e-01 
1.593444e-15 5.979111e-15 1.543552e-14 2.231286e-14 3.022592e-14 2.149682e-14 3.276069e-14 6.484241e-14 1.329472e-14 -4.384939e-14 -3.884798e-14 -2.723764e-15 -6.185588e-15 -3.960986e-16 -9.886049e-15 -9.304213e-15 -1.645175e-14 -2.116371e-14 -2.745517e-14 -4.411352e-14 -5.496199e-14 -7.418561e-14 -2.992152e-14 6.432696e-15 2.206916e-15 -1.444787e-14 1.630134e-15 2.984696e-14 4.758649e-14 3.074623e-14 1.181775e-14 1.439444e-15 
8.331151e-01 7.514117e-01 5.316703e-01 2.457872e-01 3.619233e-03 -6.490423e-02 -9.142436e-02 -1.145359e-01 1.599347e-02 -4.248316e-01 -7.842490e-01 -2.137841e-01 9.391320e-03 -4.415397e-02 -3.637141e-02 -1.349890e-01 -1.303740e-01 -1.349890e-01 -3.637141e-02 -4.415397e-02 9.391320e-03 -2.137841e-01 -7.842490e-01 -4.248316e-01 1.599347e-02 -1.145359e-01 -9.142436e-02 -6.490423e-02 3.619233e-03 2.457872e-01 5.316703e-01 7.514117e-01 
1.326812e+00 1.219228e+00 9.384628e-01 5.426551e-01 1.792329e-01 -9.786953e-03 -1.835024e-01 -3.898428e-01 2.346406e-02 -4.458970e-01 -1.341043e+00 -4.398636e-01 7.867327e-03 -1.524755e-01 -1.288019e-01 -3.240176e-01 -3.181722e-01 -3.240176e-01 -1.288019e-01 -1.524755e-01 7.867327e-03 -4.398636e-01 -1.341043e+00 -4.458970e-01 2.346406e-02 -3.898428e-01 -1.835024e-01 -9.786953e-03 1.792329e-01 5.426551e-01 9.384628e-01 1.219228e+00 
1.583880e+00 1.460153e+00 1.174649e+00 7.672911e-01 4.779332e-01 3.448055e-01 2.072451e-01 -4.656980e-01 -3.146140e-01 -4.579831e-01 -1.627464e+00 -7.316504e-01 -7.433575e-02 -3.082119e-01 -3.179548e-01 -6.087065e-01 -6.347967e-01 -6.087065e-01 -3.179548e-01 -3.082119e-01 -7.433575e-02 -7.316504e-01 -1.627464e+00 -4.579831e-01 -3.146140e-01 -4.656980e-01 2.072451e-01 3.448055e-01 4.779332e-01 7.672911e-01 1.174649e+00 1.460153e+00 
1.632080e+00 1.502994e+00 1.249810e+00 8.597823e-01 6.555808e-01 5.369129e-01 7.047400e-01 -1.096963e-01 -5.969417e-01 -3.527197e-01 -1.542185e+00 -1.067548e+00 -2.653352e-01 -4.811657e-01 -5.437403e-01 -8.885600e-01 -9.559366e-01 -8.885600e-01 -5.437403e-01 -4.811657e-01 -2.653352e-01 -1.067548e+00 -1.542185e+00 -3.527197e-01 -5.969417e-01 -1.096963e-01 7.047400e-01 5.369129e-01 6.555808e-01 8.597823e-01 1.249810e+00 1.502994e+00 
1.593992e+00 1.469082e+00 1.267550e+00 9.377750e-01 8.266798e-01 7.452923e-01 1.107819e+00 5.013001e-01 -5.951207e-01 -4.260321e-01 -1.304944e+00 -1.430353e+00 -6.178875e-01 -5.854161e-01 -8.122613e-01 -1.211648e+00 -1.337664e+00 -1.211648e+00 -8.122613e-01 -5.854161e-01 -6.178875e-01 -1.430353e+00 -1.304944e+00 -4.260321e-01 -5.951207e-01 5.013001e-01 1.107819e+00 7.452923e-01 8.266798e-01 9.377750e-01 1.267550e+00 1.469082e+00 
1.446878e+00 1.339275e+00 1.180773e+00 9.277313e-01 8.447434e-01 8.199987e-01 1.106323e+00 1.136461e+00 1.360154e-01 -5.631293e-01 -1.147458e+00 -1.424174e+00 -1.167836e+00 -9.597748e-01 -9.912028e-01 -1.276388e+00 -1.369595e+00 -1.276388e+00 -9.912028e-01 -9.597748e-01 -1.167836e+00 -1.424174e+00 -1.147458e+00 -5.631293e-01 1.360154e-01 1.136461e+00 1.106323e+00 8.199987e-01 8.447434e-01 9.277313e-01 1.180773e+00 1.339275e+00 
1.285018e+00 1.196855e+00 1.083230e+00 8.984776e-01 8.376176e-01 8.326414e-01 9.784586e-01 1.283428e+00 9.099721e-01 3.940818e-03 -1.008188e+00 -1.508885e+00 -1.606768e+00 -1.264353e+00 -1.088195e+00 -1.442104e+00 -1.497272e+00 -1.442104e+00 -1.088195e+00 -1.264353e+00 -1.606768e+00 -1.508885e+00 -1.008188e+00 3.940818e-03 9.099721e-01 1.283428e+00 9.784586e-01 8.326414e-01 8.376176e-01 8.984776e-01 1.083230e+00 1.196855e+00 
1.082085e+00 1.015631e+00 9.374192e-01 8.042717e-01 7.566701e-01 7.340010e-01 8.047075e-01 9.665935e-01 1.053889e+00 7.635303e-01 -8.834776e-02 -9.069481e-01 -2.055625e+00 -2.209589e+00 -1.448059e+00 -1.167491e+00 -1.003395e+00 -1.167491e+00 -1.448059e+00 -2.209589e+00 -2.055625e+00 -9.069481e-01 -8.834776e-02 7.635303e-01 1.053889e+00 9.665935e-01 8.047075e-01 7.340010e-01 7.566701e-01 8.042717e-01 9.374192e-01 1.015631e+00 
9.044310e-01 8.549070e-01 8.030644e-01 7.038622e-01 6.585048e-01 6.126719e-01 6.182209e-01 6.122014e-01 6.649644e-01 4.613007e-01 8.296680e-02 6.093200e-01 -2.396586e-02 -1.740425e+00 -2.383428e+00 -2.113839e+00 -1.745087e+00 -2.113839e+00 -2.383428e+00 -1.740425e+00 -2.396586e-02 6.093200e-01 8.296680e-02 4.613007e-01 6.649644e-01 6.122014e-01 6.182209e-01 6.126719e-01 6.585048e-01 7.038622e-01 8.030644e-01 8.549070e-01 
7.222495e-01 6.873023e-01 6.510040e-01 5.762964e-01 5.277671e-01 4.699867e-01 4.221162e-01 3.584241e-01 2.572477e-01 1.099108e-01 -5.043080e-01 -4.983002e-01 -2.623350e-02 1.648089e-01 -5.896488e-01 -1.868429e+00 -2.198139e+00 -1.868429e+00 -5.896488e-01 1.648089e-01 -2.623350e-02 -4.983002e-01 -5.043080e-01 1.099108e-01 2.572477e-01 3.584241e-01 4.221162e-01 4.699867e-01 5.277671e-01 5.762964e-01 6.510040e-01 6.873023e-01 
5.729999e-01 5.473835e-01 5.207119e-01 4.608241e-01 4.101120e-01 3.439019e-01 2.661850e-01 1.760564e-01 1.845661e-02 -1.171526e-01 -5.349499e-01 -6.123055e-01 -1.017964e+00 -1.259844e+00 -2.104990e-01 4.611365e-01 5.228947e-01 4.611365e-01 -2.104990e-01 -1.259844e+00 -1.017964e+00 -6.123055e-01 -5.349499e-01 -1.171526e-01 1.845661e-02 1.760564e-01 2.661850e-01 3.439019e-01 4.101120e-01 4.608241e-01 5.207119e-01 5.473835e-01 
4.285735e-01 4.107199e-01 3.892166e-01 3.417763e-01 2.909872e-01 2.246246e-01 1.324593e-01 3.127739e-02 -1.401742e-01 -2.797975e-01 -5.497339e-01 -6.334444e-01 -6.156211e-01 -6.422905e-01 -3.007585e-01 5.471342e-01 1.158675e+00 5.471342e-01 -3.007585e-01 -6.422905e-01 -6.156211e-01 -6.334444e-01 -5.497339e-01 -2.797975e-01 -1.401742e-01 3.127739e-02 1.324593e-01 2.246246e-01 2.909872e-01 3.417763e-01 3.892166e-01 4.107199e-01 
3.093664e-01 2.966020e-01 2.796174e-01 2.421046e-01 1.961938e-01 1.352863e-01 4.518589e-02 -5.283374e-02 -2.114549e-01 -3.366560e-01 -5.371777e-01 -5.976879e-01 -6.033096e-01 -4.692160e-01 1.003681e-01 7.824007e-01 1.151788e+00 7.824007e-01 1.003681e-01 -4.692160e-01 -6.033096e-01 -5.976879e-01 -5.371777e-01 -3.366560e-01 -2.114549e-01 -5.283374e-02 4.518589e-02 1.352863e-01 1.961938e-01 2.421046e-01 2.796174e-01 2.966020e-01 
1.961237e-01 1.881681e-01 1.759171e-01 1.500070e-01 1.151514e-01 6.872983e-02 -1.544180e-03 -7.925898e-02 -1.948324e-01 -2.877747e-01 -3.962477e-01 -4.164003e-01 -3.466284e-01 -1.768636e-01 1.397450e-01 5.533928e-01 8.207547e-01 5.533928e-01 1.397450e-01 -1.768636e-01 -3.466284e-01 -4.164003e-01 -3.962477e-01 -2.877747e-01 -1.948324e-01 -7.925898e-02 -1.544180e-03 6.872983e-02 1.151514e-01 1.500070e-01 1.759171e-01 1.881681e-01 
9.665631e-02 9.264221e-02 8.612833e-02 7.241572e-02 5.309301e-02 2.718587e-02 -1.288091e-02 -5.706103e-02 -1.220686e-01 -1.723987e-01 -2.284746e-01 -2.311667e-01 -1.860974e-01 -7.769491e-02 1.316522e-01 3.460775e-01 4.606397e-01 3.460775e-01 1.316522e-01 -7.769491e-02 -1.860974e-01 -2.311667e-01 -2.284746e-01 -1.723987e-01 -1.220686e-01 -5.706103e-02 -1.288091e-02 2.718587e-02 5.309301e-02 7.241572e-02 8.612833e-02 9.264221e-02 
