# vtk DataFile Version 2.0
Comment goes here
ASCII

DATASET STRUCTURED_POINTS
FIELD FieldData 1
TIME 1 1 double
0.38000000
DIMENSIONS    32   32   1

ORIGIN    0.000   0.000   0.000
SPACING   0.03125 0.03125   1.000

POINT_DATA   1024
SCALARS uY double
LOOKUP_TABLE default

-8.284567e-16 -1.966832e-15 -8.025057e-16 -2.667025e-15 3.383339e-16 -2.602083e-15 2.101886e-15 -6.612333e-16 4.186907e-15 1.806887e-15 4.584586e-15 -1.771718e-15 -6.155890e-15 -2.952925e-14 -3.005094e-14 -5.080732e-14 -7.394713e-15 4.199657e-14 1.485466e-14 2.297173e-14 3.757715e-15 6.256620e-16 -2.137788e-15 -2.147224e-15 -2.332095e-15 9.192858e-16 -1.435581e-15 1.343537e-15 -4.522413e-16 6.831481e-16 -1.975063e-16 -1.741826e-16 
-1.170552e-01 -1.152671e-01 -1.093958e-01 -9.947370e-02 -8.488556e-02 -6.338169e-02 -3.501590e-02 6.565731e-03 5.761482e-02 1.256160e-01 1.947716e-01 2.507776e-01 2.563505e-01 1.756800e-01 4.862574e-03 -2.805168e-01 -4.515492e-01 -2.805168e-01 4.862574e-03 1.756800e-01 2.563505e-01 2.507776e-01 1.947716e-01 1.256160e-01 5.761482e-02 6.565731e-03 -3.501590e-02 -6.338169e-02 -8.488556e-02 -9.947370e-02 -1.093958e-01 -1.152671e-01 
-2.386928e-01 -2.352389e-01 -2.235298e-01 -2.044093e-01 -1.759072e-01 -1.350445e-01 -8.026788e-02 -9.595163e-04 9.630748e-02 2.287941e-01 3.638182e-01 4.880112e-01 5.100321e-01 3.783771e-01 7.763024e-02 -5.195302e-01 -8.974736e-01 -5.195302e-01 7.763024e-02 3.783771e-01 5.100321e-01 4.880112e-01 3.638182e-01 2.287941e-01 9.630748e-02 -9.595163e-04 -8.026788e-02 -1.350445e-01 -1.759072e-01 -2.044093e-01 -2.235298e-01 -2.352389e-01 
-3.659623e-01 -3.609361e-01 -3.440746e-01 -3.172852e-01 -2.782787e-01 -2.230244e-01 -1.498070e-01 -4.287889e-02 8.630058e-02 2.664529e-01 4.595473e-01 6.572427e-01 7.474807e-01 6.537144e-01 2.706520e-01 -6.332854e-01 -1.217678e+00 -6.332854e-01 2.706520e-01 6.537144e-01 7.474807e-01 6.572427e-01 4.595473e-01 2.664529e-01 8.630058e-02 -4.287889e-02 -1.498070e-01 -2.230244e-01 -2.782787e-01 -3.172852e-01 -3.440746e-01 -3.609361e-01 
-5.061149e-01 -4.994333e-01 -4.769301e-01 -4.436759e-01 -3.953449e-01 -3.311460e-01 -2.420298e-01 -1.151632e-01 4.292601e-02 2.687979e-01 5.206367e-01 8.175124e-01 9.533023e-01 1.007653e+00 5.602741e-01 -7.045446e-01 -1.419554e+00 -7.045446e-01 5.602741e-01 1.007653e+00 9.533023e-01 8.175124e-01 5.206367e-01 2.687979e-01 4.292601e-02 -1.151632e-01 -2.420298e-01 -3.311460e-01 -3.953449e-01 -4.436759e-01 -4.769301e-01 -4.994333e-01 
-6.547463e-01 -6.459758e-01 -6.173497e-01 -5.786641e-01 -5.260353e-01 -4.602992e-01 -3.684472e-01 -2.352672e-01 -7.111510e-02 1.779077e-01 4.543085e-01 7.822638e-01 1.171990e+00 1.353686e+00 5.994143e-01 -3.936513e-01 -6.307851e-01 -3.936513e-01 5.994143e-01 1.353686e+00 1.171990e+00 7.822638e-01 4.543085e-01 1.779077e-01 -7.111510e-02 -2.352672e-01 -3.684472e-01 -4.602992e-01 -5.260353e-01 -5.786641e-01 -6.173497e-01 -6.459758e-01 
-8.228406e-01 -8.102139e-01 -7.726602e-01 -7.276373e-01 -6.720761e-01 -6.147579e-01 -5.241005e-01 -4.114723e-01 -2.287341e-01 4.050333e-02 4.620455e-01 1.163732e+00 1.246959e+00 6.106672e-01 2.655775e-01 7.491788e-01 1.268818e+00 7.491788e-01 2.655775e-01 6.106672e-01 1.246959e+00 1.163732e+00 4.620455e-01 4.050333e-02 -2.287341e-01 -4.114723e-01 -5.241005e-01 -6.147579e-01 -6.720761e-01 -7.276373e-01 -7.726602e-01 -8.102139e-01 
-9.981379e-01 -9.795495e-01 -9.274974e-01 -8.736699e-01 -8.195256e-01 -7.830175e-01 -7.204841e-01 -6.592103e-01 -4.634863e-01 1.492841e-02 4.369420e-01 4.963455e-01 3.235315e-01 7.428086e-01 1.626131e+00 2.041365e+00 2.086916e+00 2.041365e+00 1.626131e+00 7.428086e-01 3.235315e-01 4.963455e-01 4.369420e-01 1.492841e-02 -4.634863e-01 -6.592103e-01 -7.204841e-01 -7.830175e-01 -8.195256e-01 -8.736699e-01 -9.274974e-01 -9.795495e-01 
-1.195200e+00 -1.165213e+00 -1.091429e+00 -1.021273e+00 -9.730987e-01 -9.797616e-01 -9.944617e-01 -9.983946e-01 -6.277707e-01 -8.642971e-02 1.894095e-01 6.326468e-01 1.407123e+00 1.780313e+00 1.874226e+00 1.838113e+00 1.627205e+00 1.838113e+00 1.874226e+00 1.780313e+00 1.407123e+00 6.326468e-01 1.894095e-01 -8.642971e-02 -6.277707e-01 -9.983946e-01 -9.944617e-01 -9.797616e-01 -9.730987e-01 -1.021273e+00 -1.091429e+00 -1.165213e+00 
-1.385815e+00 -1.340673e+00 -1.232693e+00 -1.139580e+00 -1.102116e+00 -1.191921e+00 -1.329332e+00 -1.183991e+00 -4.241175e-01 3.080586e-01 8.524382e-01 1.466265e+00 1.776704e+00 1.448961e+00 1.318764e+00 1.632881e+00 1.666521e+00 1.632881e+00 1.318764e+00 1.448961e+00 1.776704e+00 1.466265e+00 8.524382e-01 3.080586e-01 -4.241175e-01 -1.183991e+00 -1.329332e+00 -1.191921e+00 -1.102116e+00 -1.139580e+00 -1.232693e+00 -1.340673e+00 
-1.577943e+00 -1.509784e+00 -1.360161e+00 -1.228918e+00 -1.206324e+00 -1.401618e+00 -1.443477e+00 -8.058865e-01 1.903612e-01 7.238149e-01 1.142779e+00 1.354372e+00 1.077674e+00 1.044842e+00 1.386987e+00 1.823179e+00 2.002269e+00 1.823179e+00 1.386987e+00 1.044842e+00 1.077674e+00 1.354372e+00 1.142779e+00 7.238149e-01 1.903612e-01 -8.058865e-01 -1.443477e+00 -1.401618e+00 -1.206324e+00 -1.228918e+00 -1.360161e+00 -1.509784e+00 
-1.714180e+00 -1.618142e+00 -1.413837e+00 -1.231651e+00 -1.198205e+00 -1.441894e+00 -9.112464e-01 6.179434e-02 4.351223e-01 8.091531e-01 1.152349e+00 1.004362e+00 7.265555e-01 8.770807e-01 1.205077e+00 1.539297e+00 1.722549e+00 1.539297e+00 1.205077e+00 8.770807e-01 7.265555e-01 1.004362e+00 1.152349e+00 8.091531e-01 4.351223e-01 6.179434e-02 -9.112464e-01 -1.441894e+00 -1.198205e+00 -1.231651e+00 -1.413837e+00 -1.618142e+00 
-1.785913e+00 -1.654750e+00 -1.400680e+00 -1.134938e+00 -1.113519e+00 -1.136135e+00 -1.856415e-01 2.354940e-01 2.215983e-01 1.238534e+00 1.437309e+00 5.740787e-01 3.087673e-01 6.156663e-01 9.072550e-01 1.262050e+00 1.435736e+00 1.262050e+00 9.072550e-01 6.156663e-01 3.087673e-01 5.740787e-01 1.437309e+00 1.238534e+00 2.215983e-01 2.354940e-01 -1.856415e-01 -1.136135e+00 -1.113519e+00 -1.134938e+00 -1.400680e+00 -1.654750e+00 
-1.704296e+00 -1.534749e+00 -1.246425e+00 -8.830358e-01 -8.677699e-01 -5.245181e-01 2.777150e-01 -2.102163e-02 4.333669e-01 1.609797e+00 1.143509e+00 1.286352e-01 8.828775e-02 3.869760e-01 5.491649e-01 8.379159e-01 9.485975e-01 8.379159e-01 5.491649e-01 3.869760e-01 8.828775e-02 1.286352e-01 1.143509e+00 1.609797e+00 4.333669e-01 -2.102163e-02 2.777150e-01 -5.245181e-01 -8.677699e-01 -8.830358e-01 -1.246425e+00 -1.534749e+00 
-1.416577e+00 -1.244715e+00 -9.391708e-01 -5.628978e-01 -4.998569e-01 -1.307751e-01 1.720322e-01 -2.149820e-01 6.377352e-01 1.509213e+00 8.492593e-01 -1.600989e-02 -6.598886e-02 1.679439e-01 2.774004e-01 4.922235e-01 5.537558e-01 4.922235e-01 2.774004e-01 1.679439e-01 -6.598886e-02 -1.600989e-02 8.492593e-01 1.509213e+00 6.377352e-01 -2.149820e-01 1.720322e-01 -1.307751e-01 -4.998569e-01 -5.628978e-01 -9.391708e-01 -1.244715e+00 
-8.325875e-01 -7.040519e-01 -4.755164e-01 -2.365524e-01 -1.977928e-01 2.321869e-02 1.005790e-01 -1.618429e-01 4.374302e-01 9.083614e-01 4.435850e-01 -5.667536e-02 -9.205011e-02 3.055008e-02 8.896531e-02 1.969924e-01 2.221870e-01 1.969924e-01 8.896531e-02 3.055008e-02 -9.205011e-02 -5.667536e-02 4.435850e-01 9.083614e-01 4.374302e-01 -1.618429e-01 1.005790e-01 2.321869e-02 -1.977928e-01 -2.365524e-01 -4.755164e-01 -7.040519e-01 
1.130784e-15 -4.930184e-15 -1.343433e-14 -2.085210e-14 -1.080845e-14 8.587693e-14 1.507478e-13 -4.139718e-14 -1.488098e-13 -2.700187e-14 2.768204e-14 1.283975e-14 1.647515e-14 -4.794521e-16 4.454355e-15 -7.348655e-15 -3.986257e-15 -1.402977e-14 -1.412998e-14 -2.479296e-14 -3.160332e-14 -3.998418e-14 -5.010822e-14 -3.534217e-14 8.409112e-15 1.000653e-13 5.734144e-14 -1.242179e-14 -1.826410e-14 3.510400e-15 2.940147e-15 4.307868e-15 
8.325875e-01 7.040519e-01 4.755164e-01 2.365524e-01 1.977928e-01 -2.321869e-02 -1.005790e-01 1.618429e-01 -4.374302e-01 -9.083614e-01 -4.435850e-01 5.667536e-02 9.205011e-02 -3.055008e-02 -8.896531e-02 -1.969924e-01 -2.221870e-01 -1.969924e-01 -8.896531e-02 -3.055008e-02 9.205011e-02 5.667536e-02 -4.435850e-01 -9.083614e-01 -4.374302e-01 1.618429e-01 -1.005790e-01 -2.321869e-02 1.977928e-01 2.365524e-01 4.755164e-01 7.040519e-01 
1.416577e+00 1.244715e+00 9.391708e-01 5.628978e-01 4.998569e-01 1.307751e-01 -1.720322e-01 2.149820e-01 -6.377352e-01 -1.509213e+00 -8.492593e-01 1.600989e-02 6.598886e-02 -1.679439e-01 -2.774004e-01 -4.922235e-01 -5.537558e-01 -4.922235e-01 -2.774004e-01 -1.679439e-01 6.598886e-02 1.600989e-02 -8.492593e-01 -1.509213e+00 -6.377352e-01 2.149820e-01 -1.720322e-01 1.307751e-01 4.998569e-01 5.628978e-01 9.391708e-01 1.244715e+00 
1.704296e+00 1.534749e+00 1.246425e+00 8.830358e-01 8.677699e-01 5.245181e-01 -2.777150e-01 2.102163e-02 -4.333669e-01 -1.609797e+00 -1.143509e+00 -1.286352e-01 -8.828775e-02 -3.869760e-01 -5.491649e-01 -8.379159e-01 -9.485975e-01 -8.379159e-01 -5.491649e-01 -3.869760e-01 -8.828775e-02 -1.286352e-01 -1.143509e+00 -1.609797e+00 -4.333669e-01 2.102163e-02 -2.777150e-01 5.245181e-01 8.677699e-01 8.830358e-01 1.246425e+00 1.534749e+00 
1.785913e+00 1.654750e+00 1.400680e+00 1.134938e+00 1.113519e+00 1.136135e+00 1.856415e-01 -2.354940e-01 -2.215983e-01 -1.238534e+00 -1.437309e+00 -5.740787e-01 -3.087673e-01 -6.156663e-01 -9.072550e-01 -1.262050e+00 -1.435736e+00 -1.262050e+00 -9.072550e-01 -6.156663e-01 -3.087673e-01 -5.740787e-01 -1.437309e+00 -1.238534e+00 -2.215983e-01 -2.354940e-01 1.856415e-01 1.136135e+00 1.113519e+00 1.134938e+00 1.400680e+00 1.654750e+00 
1.714180e+00 1.618142e+00 1.413837e+00 1.231651e+00 1.198205e+00 1.441894e+00 9.112464e-01 -6.179434e-02 -4.351223e-01 -8.091531e-01 -1.152349e+00 -1.004362e+00 -7.265555e-01 -8.770807e-01 -1.205077e+00 -1.539297e+00 -1.722549e+00 -1.539297e+00 -1.205077e+00 -8.770807e-01 -7.265555e-01 -1.004362e+00 -1.152349e+00 -8.091531e-01 -4.351223e-01 -6.179434e-02 9.112464e-01 1.441894e+00 1.198205e+00 1.231651e+00 1.413837e+00 1.618142e+00 
1.577943e+00 1.509784e+00 1.360161e+00 1.228918e+00 1.206324e+00 1.401618e+00 1.443477e+00 8.058865e-01 -1.903612e-01 -7.238149e-01 -1.142779e+00 -1.354372e+00 -1.077674e+00 -1.044842e+00 -1.386987e+00 -1.823179e+00 -2.002269e+00 -1.823179e+00 -1.386987e+00 -1.044842e+00 -1.077674e+00 -1.354372e+00 -1.142779e+00 -7.238149e-01 -1.903612e-01 8.058865e-01 1.443477e+00 1.401618e+00 1.206324e+00 1.228918e+00 1.360161e+00 1.509784e+00 
1.385815e+00 1.340673e+00 1.232693e+00 1.139580e+00 1.102116e+00 1.191921e+00 1.329332e+00 1.183991e+00 4.241175e-01 -3.080586e-01 -8.524382e-01 -1.466265e+00 -1.776704e+00 -1.448961e+00 -1.318764e+00 -1.632881e+00 -1.666521e+00 -1.632881e+00 -1.318764e+00 -1.448961e+00 -1.776704e+00 -1.466265e+00 -8.524382e-01 -3.080586e-01 4.241175e-01 1.183991e+00 1.329332e+00 1.191921e+00 1.102116e+00 1.139580e+00 1.232693e+00 1.340673e+00 
1.195200e+00 1.165213e+00 1.091429e+00 1.021273e+00 9.730987e-01 9.797616e-01 9.944617e-01 9.983946e-01 6.277707e-01 8.642971e-02 -1.894095e-01 -6.326468e-01 -1.407123e+00 -1.780313e+00 -1.874226e+00 -1.838113e+00 -1.627205e+00 -1.838113e+00 -1.874226e+00 -1.780313e+00 -1.407123e+00 -6.326468e-01 -1.894095e-01 8.642971e-02 6.277707e-01 9.983946e-01 9.944617e-01 9.797616e-01 9.730987e-01 1.021273e+00 1.091429e+00 1.165213e+00 
9.981379e-01 9.795495e-01 9.274974e-01 8.736699e-01 8.195256e-01 7.830175e-01 7.204841e-01 6.592103e-01 4.634863e-01 -1.492841e-02 -4.369420e-01 -4.963455e-01 -3.235315e-01 -7.428086e-01 -1.626131e+00 -2.041365e+00 -2.086916e+00 -2.041365e+00 -1.626131e+00 -7.428086e-01 -3.235315e-01 -4.963455e-01 -4.369420e-01 -1.492841e-02 4.634863e-01 6.592103e-01 7.204841e-01 7.830175e-01 8.195256e-01 8.736699e-01 9.274974e-01 9.795495e-01 
8.228406e-01 8.102139e-01 7.726602e-01 7.276373e-01 6.720761e-01 6.147579e-01 5.241005e-01 4.114723e-01 2.287341e-01 -4.050333e-02 -4.620455e-01 -1.163732e+00 -1.246959e+00 -6.106672e-01 -2.655775e-01 -7.491788e-01 -1.268818e+00 -7.491788e-01 -2.655775e-01 -6.106672e-01 -1.246959e+00 -1.163732e+00 -4.620455e-01 -4.050333e-02 2.287341e-01 4.114723e-01 5.241005e-01 6.147579e-01 6.720761e-01 7.276373e-01 7.726602e-01 8.102139e-01 
6.547463e-01 6.459758e-01 6.173497e-01 5.786641e-01 5.260353e-01 4.602992e-01 3.684472e-01 2.352672e-01 7.111510e-02 -1.779077e-01 -4.543085e-01 -7.822638e-01 -1.171990e+00 -1.353686e+00 -5.994143e-01 3.936513e-01 6.307851e-01 3.936513e-01 -5.994143e-01 -1.353686e+00 -1.171990e+00 -7.822638e-01 -4.543085e-01 -1.779077e-01 7.111510e-02 2.352672e-01 3.684472e-01 4.602992e-01 5.260353e-01 5.786641e-01 6.173497e-01 6.459758e-01 
5.061149e-01 4.994333e-01 4.769301e-01 4.436759e-01 3.953449e-01 3.311460e-01 2.420298e-01 1.151632e-01 -4.292601e-02 -2.687979e-01 -5.206367e-01 -8.175124e-01 -9.533023e-01 -1.007653e+00 -5.602741e-01 7.045446e-01 1.419554e+00 7.045446e-01 -5.602741e-01 -1.007653e+00 -9.533023e-01 -8.175124e-01 -5.206367e-01 -2.687979e-01 -4.292601e-02 1.151632e-01 2.420298e-01 3.311460e-01 3.953449e-01 4.436759e-01 4.769301e-01 4.994333e-01 
3.659623e-01 3.609361e-01 3.440746e-01 3.172852e-01 2.782787e-01 2.230244e-01 1.498070e-01 4.287889e-02 -8.630058e-02 -2.664529e-01 -4.595473e-01 -6.572427e-01 -7.474807e-01 -6.537144e-01 -2.706520e-01 6.332854e-01 1.217678e+00 6.332854e-01 -2.706520e-01 -6.537144e-01 -7.474807e-01 -6.572427e-01 -4.595473e-01 -2.664529e-01 -8.630058e-02 4.287889e-02 1.498070e-01 2.230244e-01 2.782787e-01 3.172852e-01 3.440746e-01 3.609361e-01 
2.386928e-01 2.352389e-01 2.235298e-01 2.044093e-01 1.759072e-01 1.350445e-01 8.026788e-02 9.595163e-04 -9.630748e-02 -2.287941e-01 -3.638182e-01 -4.880112e-01 -5.100321e-01 -3.783771e-01 -7.763024e-02 5.195302e-01 8.974736e-01 5.195302e-01 -7.763024e-02 -3.783771e-01 -5.100321e-01 -4.880112e-01 -3.638182e-01 -2.287941e-01 -9.630748e-02 9.595163e-04 8.026788e-02 1.350445e-01 1.759072e-01 2.044093e-01 2.235298e-01 2.352389e-01 
1.170552e-01 1.152671e-01 1.093958e-01 9.947370e-02 8.488556e-02 6.338169e-02 3.501590e-02 -6.565731e-03 -5.761482e-02 -1.256160e-01 -1.947716e-01 -2.507776e-01 -2.563505e-01 -1.756800e-01 -4.862574e-03 2.805168e-01 4.515492e-01 2.805168e-01 -4.862574e-03 -1.756800e-01 -2.563505e-01 -2.507776e-01 -1.947716e-01 -1.256160e-01 -5.761482e-02 -6.565731e-03 3.501590e-02 6.338169e-02 8.488556e-02 9.947370e-02 1.093958e-01 1.152671e-01 
