# vtk DataFile Version 2.0
Comment goes here
ASCII

DATASET STRUCTURED_POINTS
FIELD FieldData 1
TIME 1 1 double
0.86000000
DIMENSIONS    32   32   1

ORIGIN    0.000   0.000   0.000
SPACING   0.03125 0.03125   1.000

POINT_DATA   1024
SCALARS uY double
LOOKUP_TABLE default

7.964959e-16 -2.009376e-15 -5.621182e-15 -2.487527e-15 -7.904614e-15 -1.178827e-15 -8.915457e-15 -3.011735e-15 -1.082389e-14 -5.819040e-15 -5.884854e-15 -6.885559e-15 1.650643e-15 -9.150992e-15 -2.147194e-15 9.826319e-15 3.900115e-15 -2.078822e-14 -1.400185e-14 5.583235e-15 -3.744560e-15 1.723208e-14 1.680010e-14 1.921524e-14 2.348441e-14 1.337310e-14 1.974718e-14 8.519060e-15 1.504723e-14 6.160563e-15 9.053626e-15 2.361609e-15 
-4.506662e-02 -3.889757e-02 -1.933617e-02 9.205723e-03 4.745121e-02 8.869719e-02 1.343893e-01 1.718169e-01 2.023957e-01 2.088959e-01 1.932049e-01 1.380715e-01 3.870701e-02 -1.057635e-01 -2.892554e-01 -4.720262e-01 -5.700465e-01 -4.720262e-01 -2.892554e-01 -1.057635e-01 3.870701e-02 1.380715e-01 1.932049e-01 2.088959e-01 2.023957e-01 1.718169e-01 1.343893e-01 8.869719e-02 4.745121e-02 9.205723e-03 -1.933617e-02 -3.889757e-02 
-1.037550e-01 -9.139323e-02 -5.288067e-02 2.254740e-03 7.431992e-02 1.502728e-01 2.337780e-01 3.011195e-01 3.578634e-01 3.696907e-01 3.486058e-01 2.589378e-01 9.913613e-02 -1.388083e-01 -4.778563e-01 -8.520741e-01 -1.062177e+00 -8.520741e-01 -4.778563e-01 -1.388083e-01 9.913613e-02 2.589378e-01 3.486058e-01 3.696907e-01 3.578634e-01 3.011195e-01 2.337780e-01 1.502728e-01 7.431992e-02 2.254740e-03 -5.288067e-02 -9.139323e-02 
-1.823081e-01 -1.626216e-01 -1.034578e-01 -2.034450e-02 8.402126e-02 1.910286e-01 3.068602e-01 4.001684e-01 4.832640e-01 5.054867e-01 4.915027e-01 3.903538e-01 1.879345e-01 -1.294676e-01 -6.077659e-01 -1.174604e+00 -1.502410e+00 -1.174604e+00 -6.077659e-01 -1.294676e-01 1.879345e-01 3.903538e-01 4.915027e-01 5.054867e-01 4.832640e-01 4.001684e-01 3.068602e-01 1.910286e-01 8.402126e-02 -2.034450e-02 -1.034578e-01 -1.626216e-01 
-2.953110e-01 -2.673155e-01 -1.861892e-01 -7.553319e-02 5.530058e-02 1.824091e-01 3.133166e-01 4.136022e-01 5.075751e-01 5.273238e-01 5.335982e-01 4.426612e-01 2.877130e-01 4.590104e-02 -5.036957e-01 -1.269049e+00 -1.719926e+00 -1.269049e+00 -5.036957e-01 4.590104e-02 2.877130e-01 4.426612e-01 5.335982e-01 5.273238e-01 5.075751e-01 4.136022e-01 3.133166e-01 1.824091e-01 5.530058e-02 -7.553319e-02 -1.861892e-01 -2.673155e-01 
-4.412543e-01 -4.019792e-01 -2.924235e-01 -1.456827e-01 1.767396e-02 1.695388e-01 3.166987e-01 4.266233e-01 5.390173e-01 5.660211e-01 6.176362e-01 5.674914e-01 3.918521e-01 1.028957e-01 -5.115147e-01 -1.284909e+00 -1.716626e+00 -1.284909e+00 -5.115147e-01 1.028957e-01 3.918521e-01 5.674914e-01 6.176362e-01 5.660211e-01 5.390173e-01 4.266233e-01 3.166987e-01 1.695388e-01 1.767396e-02 -1.456827e-01 -2.924235e-01 -4.019792e-01 
-6.243974e-01 -5.722397e-01 -4.299161e-01 -2.431663e-01 -4.859062e-02 1.224249e-01 2.673002e-01 3.662666e-01 4.610960e-01 4.452566e-01 5.052937e-01 3.686225e-01 3.340129e-01 4.208636e-01 -1.555046e-01 -9.080283e-01 -1.242986e+00 -9.080283e-01 -1.555046e-01 4.208636e-01 3.340129e-01 3.686225e-01 5.052937e-01 4.452566e-01 4.610960e-01 3.662666e-01 2.673002e-01 1.224249e-01 -4.859062e-02 -2.431663e-01 -4.299161e-01 -5.722397e-01 
-8.363828e-01 -7.688877e-01 -5.867030e-01 -3.495733e-01 -1.145320e-01 8.656395e-02 2.365840e-01 3.395411e-01 4.358549e-01 3.951890e-01 6.058948e-01 6.839828e-01 4.701709e-01 -1.170044e-01 -6.905427e-01 -2.698114e-01 1.229288e-01 -2.698114e-01 -6.905427e-01 -1.170044e-01 4.701709e-01 6.839828e-01 6.058948e-01 3.951890e-01 4.358549e-01 3.395411e-01 2.365840e-01 8.656395e-02 -1.145320e-01 -3.495733e-01 -5.867030e-01 -7.688877e-01 
-1.055688e+00 -9.736744e-01 -7.484793e-01 -4.596455e-01 -1.848740e-01 4.314717e-02 1.790919e-01 2.860988e-01 3.329993e-01 3.001106e-01 3.999568e-01 -2.734913e-01 -7.204457e-01 4.911784e-02 7.784688e-01 1.028337e+00 9.822529e-01 1.028337e+00 7.784688e-01 4.911784e-02 -7.204457e-01 -2.734913e-01 3.999568e-01 3.001106e-01 3.329993e-01 2.860988e-01 1.790919e-01 4.314717e-02 -1.848740e-01 -4.596455e-01 -7.484793e-01 -9.736744e-01 
-1.273548e+00 -1.178634e+00 -9.093240e-01 -5.681141e-01 -2.547221e-01 1.430694e-03 1.173466e-01 2.452446e-01 3.001090e-01 8.679834e-02 -1.898240e-01 -1.153146e-01 6.998572e-01 1.127980e+00 7.261470e-01 4.006086e-01 2.943684e-01 4.006086e-01 7.261470e-01 1.127980e+00 6.998572e-01 -1.153146e-01 -1.898240e-01 8.679834e-02 3.001090e-01 2.452446e-01 1.173466e-01 1.430694e-03 -2.547221e-01 -5.681141e-01 -9.093240e-01 -1.178634e+00 
-1.442554e+00 -1.338971e+00 -1.025279e+00 -6.405668e-01 -2.876076e-01 -2.235099e-02 6.176059e-02 2.891544e-01 4.956333e-01 3.562735e-01 3.444872e-01 6.511364e-01 7.722964e-01 4.213424e-01 1.511381e-01 2.839824e-01 4.176961e-01 2.839824e-01 1.511381e-01 4.213424e-01 7.722964e-01 6.511364e-01 3.444872e-01 3.562735e-01 4.956333e-01 2.891544e-01 6.176059e-02 -2.235099e-02 -2.876076e-01 -6.405668e-01 -1.025279e+00 -1.338971e+00 
-1.566528e+00 -1.460428e+00 -1.110008e+00 -7.007664e-01 -3.246576e-01 -6.402999e-02 1.885074e-02 7.216117e-01 9.360885e-01 2.361072e-01 2.837004e-01 2.937873e-01 1.710550e-01 3.324834e-01 4.296837e-01 6.412347e-01 7.571033e-01 6.412347e-01 4.296837e-01 3.324834e-01 1.710550e-01 2.937873e-01 2.837004e-01 2.361072e-01 9.360885e-01 7.216117e-01 1.885074e-02 -6.402999e-02 -3.246576e-01 -7.007664e-01 -1.110008e+00 -1.460428e+00 
-1.578461e+00 -1.472721e+00 -1.094572e+00 -6.798176e-01 -2.538727e-01 -8.291990e-03 4.367146e-01 1.554057e+00 6.714767e-01 -4.621973e-01 4.136354e-01 4.673487e-01 1.493967e-01 2.123371e-01 2.234880e-01 3.892858e-01 4.859275e-01 3.892858e-01 2.234880e-01 2.123371e-01 1.493967e-01 4.673487e-01 4.136354e-01 -4.621973e-01 6.714767e-01 1.554057e+00 4.367146e-01 -8.291990e-03 -2.538727e-01 -6.798176e-01 -1.094572e+00 -1.472721e+00 
-1.477914e+00 -1.383854e+00 -1.003984e+00 -6.314735e-01 -1.503810e-01 5.253698e-02 9.821406e-01 1.507508e+00 -5.582653e-01 -3.627314e-01 9.954578e-01 3.616664e-01 4.642218e-02 1.002143e-01 2.106501e-01 3.561333e-01 4.338331e-01 3.561333e-01 2.106501e-01 1.002143e-01 4.642218e-02 3.616664e-01 9.954578e-01 -3.627314e-01 -5.582653e-01 1.507508e+00 9.821406e-01 5.253698e-02 -1.503810e-01 -6.314735e-01 -1.003984e+00 -1.383854e+00 
-1.182079e+00 -1.098010e+00 -7.706600e-01 -4.426298e-01 -2.854791e-03 2.483879e-01 1.151590e+00 7.387870e-01 -1.103761e+00 2.336367e-01 1.147059e+00 1.558845e-01 2.618188e-03 1.246523e-02 6.931473e-02 1.514781e-01 1.954664e-01 1.514781e-01 6.931473e-02 1.246523e-02 2.618188e-03 1.558845e-01 1.147059e+00 2.336367e-01 -1.103761e+00 7.387870e-01 1.151590e+00 2.483879e-01 -2.854791e-03 -4.426298e-01 -7.706600e-01 -1.098010e+00 
-6.798429e-01 -6.199483e-01 -4.182258e-01 -2.096647e-01 1.631084e-02 1.972547e-01 6.117083e-01 1.415153e-01 -6.282264e-01 3.820275e-01 7.177182e-01 5.319737e-02 -3.949645e-02 -2.210999e-02 2.905737e-02 7.772819e-02 1.021507e-01 7.772819e-02 2.905737e-02 -2.210999e-02 -3.949645e-02 5.319737e-02 7.177182e-01 3.820275e-01 -6.282264e-01 1.415153e-01 6.117083e-01 1.972547e-01 1.631084e-02 -2.096647e-01 -4.182258e-01 -6.199483e-01 
-3.252260e-15 -1.138914e-15 -2.066981e-14 -4.944322e-14 -5.669778e-14 -5.261437e-14 -3.927114e-14 7.636570e-15 -1.860723e-14 6.858091e-15 -1.313245e-14 3.713933e-15 9.202301e-15 1.992384e-14 -1.285988e-15 2.950127e-14 2.914207e-16 3.059346e-14 1.782321e-15 1.630561e-14 -1.656544e-14 4.302932e-15 2.498303e-14 -1.764778e-13 5.295079e-14 1.783583e-13 1.080054e-13 2.691674e-14 2.298651e-14 2.383253e-15 -1.928352e-14 -1.587983e-14 
6.798429e-01 6.199483e-01 4.182258e-01 2.096647e-01 -1.631084e-02 -1.972547e-01 -6.117083e-01 -1.415153e-01 6.282264e-01 -3.820275e-01 -7.177182e-01 -5.319737e-02 3.949645e-02 2.210999e-02 -2.905737e-02 -7.772819e-02 -1.021507e-01 -7.772819e-02 -2.905737e-02 2.210999e-02 3.949645e-02 -5.319737e-02 -7.177182e-01 -3.820275e-01 6.282264e-01 -1.415153e-01 -6.117083e-01 -1.972547e-01 -1.631084e-02 2.096647e-01 4.182258e-01 6.199483e-01 
1.182079e+00 1.098010e+00 7.706600e-01 4.426298e-01 2.854791e-03 -2.483879e-01 -1.151590e+00 -7.387870e-01 1.103761e+00 -2.336367e-01 -1.147059e+00 -1.558845e-01 -2.618188e-03 -1.246523e-02 -6.931473e-02 -1.514781e-01 -1.954664e-01 -1.514781e-01 -6.931473e-02 -1.246523e-02 -2.618188e-03 -1.558845e-01 -1.147059e+00 -2.336367e-01 1.103761e+00 -7.387870e-01 -1.151590e+00 -2.483879e-01 2.854791e-03 4.426298e-01 7.706600e-01 1.098010e+00 
1.477914e+00 1.383854e+00 1.003984e+00 6.314735e-01 1.503810e-01 -5.253698e-02 -9.821406e-01 -1.507508e+00 5.582653e-01 3.627314e-01 -9.954578e-01 -3.616664e-01 -4.642218e-02 -1.002143e-01 -2.106501e-01 -3.561333e-01 -4.338331e-01 -3.561333e-01 -2.106501e-01 -1.002143e-01 -4.642218e-02 -3.616664e-01 -9.954578e-01 3.627314e-01 5.582653e-01 -1.507508e+00 -9.821406e-01 -5.253698e-02 1.503810e-01 6.314735e-01 1.003984e+00 1.383854e+00 
1.578461e+00 1.472721e+00 1.094572e+00 6.798176e-01 2.538727e-01 8.291990e-03 -4.367146e-01 -1.554057e+00 -6.714767e-01 4.621973e-01 -4.136354e-01 -4.673487e-01 -1.493967e-01 -2.123371e-01 -2.234880e-01 -3.892858e-01 -4.859275e-01 -3.892858e-01 -2.234880e-01 -2.123371e-01 -1.493967e-01 -4.673487e-01 -4.136354e-01 4.621973e-01 -6.714767e-01 -1.554057e+00 -4.367146e-01 8.291990e-03 2.538727e-01 6.798176e-01 1.094572e+00 1.472721e+00 
1.566528e+00 1.460428e+00 1.110008e+00 7.007664e-01 3.246576e-01 6.402999e-02 -1.885074e-02 -7.216117e-01 -9.360885e-01 -2.361072e-01 -2.837004e-01 -2.937873e-01 -1.710550e-01 -3.324834e-01 -4.296837e-01 -6.412347e-01 -7.571033e-01 -6.412347e-01 -4.296837e-01 -3.324834e-01 -1.710550e-01 -2.937873e-01 -2.837004e-01 -2.361072e-01 -9.360885e-01 -7.216117e-01 -1.885074e-02 6.402999e-02 3.246576e-01 7.007664e-01 1.110008e+00 1.460428e+00 
1.442554e+00 1.338971e+00 1.025279e+00 6.405668e-01 2.876076e-01 2.235099e-02 -6.176059e-02 -2.891544e-01 -4.956333e-01 -3.562735e-01 -3.444872e-01 -6.511364e-01 -7.722964e-01 -4.213424e-01 -1.511381e-01 -2.839824e-01 -4.176961e-01 -2.839824e-01 -1.511381e-01 -4.213424e-01 -7.722964e-01 -6.511364e-01 -3.444872e-01 -3.562735e-01 -4.956333e-01 -2.891544e-01 -6.176059e-02 2.235099e-02 2.876076e-01 6.405668e-01 1.025279e+00 1.338971e+00 
1.273548e+00 1.178634e+00 9.093240e-01 5.681141e-01 2.547221e-01 -1.430694e-03 -1.173466e-01 -2.452446e-01 -3.001090e-01 -8.679834e-02 1.898240e-01 1.153146e-01 -6.998572e-01 -1.127980e+00 -7.261470e-01 -4.006086e-01 -2.943684e-01 -4.006086e-01 -7.261470e-01 -1.127980e+00 -6.998572e-01 1.153146e-01 1.898240e-01 -8.679834e-02 -3.001090e-01 -2.452446e-01 -1.173466e-01 -1.430694e-03 2.547221e-01 5.681141e-01 9.093240e-01 1.178634e+00 
1.055688e+00 9.736744e-01 7.484793e-01 4.596455e-01 1.848740e-01 -4.314717e-02 -1.790919e-01 -2.860988e-01 -3.329993e-01 -3.001106e-01 -3.999568e-01 2.734913e-01 7.204457e-01 -4.911784e-02 -7.784688e-01 -1.028337e+00 -9.822529e-01 -1.028337e+00 -7.784688e-01 -4.911784e-02 7.204457e-01 2.734913e-01 -3.999568e-01 -3.001106e-01 -3.329993e-01 -2.860988e-01 -1.790919e-01 -4.314717e-02 1.848740e-01 4.596455e-01 7.484793e-01 9.736744e-01 
8.363828e-01 7.688877e-01 5.867030e-01 3.495733e-01 1.145320e-01 -8.656395e-02 -2.365840e-01 -3.395411e-01 -4.358549e-01 -3.951890e-01 -6.058948e-01 -6.839828e-01 -4.701709e-01 1.170044e-01 6.905427e-01 2.698114e-01 -1.229288e-01 2.698114e-01 6.905427e-01 1.170044e-01 -4.701709e-01 -6.839828e-01 -6.058948e-01 -3.951890e-01 -4.358549e-01 -3.395411e-01 -2.365840e-01 -8.656395e-02 1.145320e-01 3.495733e-01 5.867030e-01 7.688877e-01 
6.243974e-01 5.722397e-01 4.299161e-01 2.431663e-01 4.859062e-02 -1.224249e-01 -2.673002e-01 -3.662666e-01 -4.610960e-01 -4.452566e-01 -5.052937e-01 -3.686225e-01 -3.340129e-01 -4.208636e-01 1.555046e-01 9.080283e-01 1.242986e+00 9.080283e-01 1.555046e-01 -4.208636e-01 -3.340129e-01 -3.686225e-01 -5.052937e-01 -4.452566e-01 -4.610960e-01 -3.662666e-01 -2.673002e-01 -1.224249e-01 4.859062e-02 2.431663e-01 4.299161e-01 5.722397e-01 
4.412543e-01 4.019792e-01 2.924235e-01 1.456827e-01 -1.767396e-02 -1.695388e-01 -3.166987e-01 -4.266233e-01 -5.390173e-01 -5.660211e-01 -6.176362e-01 -5.674914e-01 -3.918521e-01 -1.028957e-01 5.115147e-01 1.284909e+00 1.716626e+00 1.284909e+00 5.115147e-01 -1.028957e-01 -3.918521e-01 -5.674914e-01 -6.176362e-01 -5.660211e-01 -5.390173e-01 -4.266233e-01 -3.166987e-01 -1.695388e-01 -1.767396e-02 1.456827e-01 2.924235e-01 4.019792e-01 
2.953110e-01 2.673155e-01 1.861892e-01 7.553319e-02 -5.530058e-02 -1.824091e-01 -3.133166e-01 -4.136022e-01 -5.075751e-01 -5.273238e-01 -5.335982e-01 -4.426612e-01 -2.877130e-01 -4.590104e-02 5.036957e-01 1.269049e+00 1.719926e+00 1.269049e+00 5.036957e-01 -4.590104e-02 -2.877130e-01 -4.426612e-01 -5.335982e-01 -5.273238e-01 -5.075751e-01 -4.136022e-01 -3.133166e-01 -1.824091e-01 -5.530058e-02 7.553319e-02 1.861892e-01 2.673155e-01 
1.823081e-01 1.626216e-01 1.034578e-01 2.034450e-02 -8.402126e-02 -1.910286e-01 -3.068602e-01 -4.001684e-01 -4.832640e-01 -5.054867e-01 -4.915027e-01 -3.903538e-01 -1.879345e-01 1.294676e-01 6.077659e-01 1.174604e+00 1.502410e+00 1.174604e+00 6.077659e-01 1.294676e-01 -1.879345e-01 -3.903538e-01 -4.915027e-01 -5.054867e-01 -4.832640e-01 -4.001684e-01 -3.068602e-01 -1.910286e-01 -8.402126e-02 2.034450e-02 1.034578e-01 1.626216e-01 
1.037550e-01 9.139323e-02 5.288067e-02 -2.254740e-03 -7.431992e-02 -1.502728e-01 -2.337780e-01 -3.011195e-01 -3.578634e-01 -3.696907e-01 -3.486058e-01 -2.589378e-01 -9.913613e-02 1.388083e-01 4.778563e-01 8.520741e-01 1.062177e+00 8.520741e-01 4.778563e-01 1.388083e-01 -9.913613e-02 -2.589378e-01 -3.486058e-01 -3.696907e-01 -3.578634e-01 -3.011195e-01 -2.337780e-01 -1.502728e-01 -7.431992e-02 -2.254740e-03 5.288067e-02 9.139323e-02 
4.506662e-02 3.889757e-02 1.933617e-02 -9.205723e-03 -4.745121e-02 -8.869719e-02 -1.343893e-01 -1.718169e-01 -2.023957e-01 -2.088959e-01 -1.932049e-01 -1.380715e-01 -3.870701e-02 1.057635e-01 2.892554e-01 4.720262e-01 5.700465e-01 4.720262e-01 2.892554e-01 1.057635e-01 -3.870701e-02 -1.380715e-01 -1.932049e-01 -2.088959e-01 -2.023957e-01 -1.718169e-01 -1.343893e-01 -8.869719e-02 -4.745121e-02 -9.205723e-03 1.933617e-02 3.889757e-02 
