# vtk DataFile Version 2.0
Comment goes here
ASCII

DATASET STRUCTURED_POINTS
FIELD FieldData 1
TIME 1 1 double
0.16000000
DIMENSIONS    32   32   1

ORIGIN    0.000   0.000   0.000
SPACING   0.03125 0.03125   1.000

POINT_DATA   1024
SCALARS uY double
LOOKUP_TABLE default

-1.270394e-15 -8.967943e-16 -2.639851e-15 -2.692906e-15 -4.627744e-15 -4.183745e-15 -6.251020e-15 -2.975606e-15 -7.482706e-15 -1.048936e-15 -9.165003e-15 4.273235e-16 -7.170921e-15 -6.063584e-16 1.377820e-14 -2.494373e-14 -4.274541e-15 1.999800e-14 2.003265e-16 -7.547080e-15 1.668930e-16 -5.998040e-15 4.109314e-16 -6.999305e-16 1.816590e-15 2.592327e-15 2.625664e-15 3.982947e-15 2.027242e-15 2.040659e-15 -1.129548e-16 3.854171e-16 
3.491495e-02 3.433598e-02 3.825684e-02 4.146681e-02 4.815334e-02 5.577771e-02 6.481698e-02 7.762122e-02 8.878623e-02 1.055413e-01 1.173351e-01 1.244588e-01 8.821994e-02 -2.019463e-02 -2.180482e-01 -4.190072e-01 -4.899554e-01 -4.190072e-01 -2.180482e-01 -2.019463e-02 8.821994e-02 1.244588e-01 1.173351e-01 1.055413e-01 8.878623e-02 7.762122e-02 6.481698e-02 5.577771e-02 4.815334e-02 4.146681e-02 3.825684e-02 3.433598e-02 
6.689439e-02 6.532456e-02 7.386689e-02 8.002467e-02 9.469433e-02 1.102491e-01 1.303149e-01 1.572610e-01 1.785283e-01 2.082427e-01 2.105756e-01 1.897508e-01 4.156671e-02 -1.635244e-01 -3.607155e-01 -6.473284e-01 -8.045570e-01 -6.473284e-01 -3.607155e-01 -1.635244e-01 4.156671e-02 1.897508e-01 2.105756e-01 2.082427e-01 1.785283e-01 1.572610e-01 1.303149e-01 1.102491e-01 9.469433e-02 8.002467e-02 7.386689e-02 6.532456e-02 
9.792937e-02 9.576637e-02 1.080994e-01 1.171579e-01 1.377753e-01 1.599980e-01 1.872788e-01 2.263270e-01 2.597776e-01 3.154169e-01 3.681567e-01 4.262278e-01 3.267962e-01 -7.616840e-02 -7.506675e-01 -1.264726e+00 -1.372362e+00 -1.264726e+00 -7.506675e-01 -7.616840e-02 3.267962e-01 4.262278e-01 3.681567e-01 3.154169e-01 2.597776e-01 2.263270e-01 1.872788e-01 1.599980e-01 1.377753e-01 1.171579e-01 1.080994e-01 9.576637e-02 
1.195868e-01 1.157642e-01 1.337212e-01 1.445569e-01 1.750163e-01 2.044105e-01 2.488532e-01 3.109123e-01 3.708722e-01 4.570777e-01 4.823060e-01 2.787835e-01 -5.611527e-01 -1.179243e+00 -8.181131e-01 -3.322616e-01 -1.825930e-01 -3.322616e-01 -8.181131e-01 -1.179243e+00 -5.611527e-01 2.787835e-01 4.823060e-01 4.570777e-01 3.708722e-01 3.109123e-01 2.488532e-01 2.044105e-01 1.750163e-01 1.445569e-01 1.337212e-01 1.157642e-01 
1.401979e-01 1.355060e-01 1.581854e-01 1.717537e-01 2.095537e-01 2.459170e-01 2.969058e-01 3.665164e-01 3.948824e-01 3.871356e-01 1.671170e-01 -4.434416e-01 -8.713876e-01 -3.387815e-01 -1.064983e-01 -5.246056e-01 -6.377147e-01 -5.246056e-01 -1.064983e-01 -3.387815e-01 -8.713876e-01 -4.434416e-01 1.671170e-01 3.871356e-01 3.948824e-01 3.665164e-01 2.969058e-01 2.459170e-01 2.095537e-01 1.717537e-01 1.581854e-01 1.355060e-01 
1.433545e-01 1.370509e-01 1.665483e-01 1.806193e-01 2.315102e-01 2.718220e-01 3.526693e-01 4.567239e-01 5.137516e-01 5.446923e-01 2.905184e-01 -2.240748e-01 -1.375357e-01 1.403919e-01 -7.251291e-01 -1.507225e+00 -1.528020e+00 -1.507225e+00 -7.251291e-01 1.403919e-01 -1.375357e-01 -2.240748e-01 2.905184e-01 5.446923e-01 5.137516e-01 4.567239e-01 3.526693e-01 2.718220e-01 2.315102e-01 1.806193e-01 1.665483e-01 1.370509e-01 
1.459400e-01 1.391300e-01 1.767066e-01 1.956533e-01 2.628485e-01 3.202696e-01 4.536007e-01 6.433509e-01 5.979054e-01 5.835588e-01 3.751248e-02 -5.271334e-01 -5.058366e-01 -9.894911e-01 -1.095730e+00 -3.653381e-01 4.573967e-05 -3.653381e-01 -1.095730e+00 -9.894911e-01 -5.058366e-01 -5.271334e-01 3.751248e-02 5.835588e-01 5.979054e-01 6.433509e-01 4.536007e-01 3.202696e-01 2.628485e-01 1.956533e-01 1.767066e-01 1.391300e-01 
1.199048e-01 1.150693e-01 1.614487e-01 1.879141e-01 2.879347e-01 3.708566e-01 5.919391e-01 6.250831e-01 4.686154e-01 5.666027e-01 -2.416250e-01 -1.013871e+00 -9.240599e-01 -9.656113e-01 -6.005155e-01 1.139564e-01 3.926202e-01 1.139564e-01 -6.005155e-01 -9.656113e-01 -9.240599e-01 -1.013871e+00 -2.416250e-01 5.666027e-01 4.686154e-01 6.250831e-01 5.919391e-01 3.708566e-01 2.879347e-01 1.879141e-01 1.614487e-01 1.150693e-01 
8.997945e-02 8.887209e-02 1.524596e-01 1.982665e-01 3.424805e-01 4.434167e-01 7.143967e-01 4.505609e-01 3.675041e-01 2.312659e-01 -8.852871e-01 -8.115523e-01 -8.722919e-01 -1.145875e+00 -3.478680e-01 5.450457e-01 9.672329e-01 5.450457e-01 -3.478680e-01 -1.145875e+00 -8.722919e-01 -8.115523e-01 -8.852871e-01 2.312659e-01 3.675041e-01 4.505609e-01 7.143967e-01 4.434167e-01 3.424805e-01 1.982665e-01 1.524596e-01 8.887209e-02 
1.617487e-02 2.998388e-02 1.097135e-01 2.052113e-01 3.914044e-01 5.421147e-01 6.978977e-01 2.160218e-01 1.147451e-01 -2.104437e-01 -1.091063e+00 -3.606400e-01 -3.363170e-01 -7.542713e-01 -2.262644e-01 3.320233e-01 6.635918e-01 3.320233e-01 -2.262644e-01 -7.542713e-01 -3.363170e-01 -3.606400e-01 -1.091063e+00 -2.104437e-01 1.147451e-01 2.160218e-01 6.978977e-01 5.421147e-01 3.914044e-01 2.052113e-01 1.097135e-01 2.998388e-02 
-8.309482e-02 -5.216169e-02 6.485248e-02 2.206788e-01 4.071930e-01 5.302937e-01 4.981300e-01 9.162403e-02 -9.379990e-02 -5.515596e-01 -3.948871e-01 5.643883e-01 1.008712e-02 -6.360929e-01 -4.933475e-01 -1.671706e-01 8.663837e-02 -1.671706e-01 -4.933475e-01 -6.360929e-01 1.008712e-02 5.643883e-01 -3.948871e-01 -5.515596e-01 -9.379990e-02 9.162403e-02 4.981300e-01 5.302937e-01 4.071930e-01 2.206788e-01 6.485248e-02 -5.216169e-02 
-2.527722e-01 -1.981191e-01 -3.625169e-02 2.423368e-01 4.464197e-01 5.584741e-01 4.815269e-01 2.276335e-01 -1.789517e-01 -7.207768e-01 2.518164e-01 9.141983e-01 -1.684195e-01 -6.685658e-01 -5.665121e-01 -3.551811e-01 -2.064839e-01 -3.551811e-01 -5.665121e-01 -6.685658e-01 -1.684195e-01 9.141983e-01 2.518164e-01 -7.207768e-01 -1.789517e-01 2.276335e-01 4.815269e-01 5.584741e-01 4.464197e-01 2.423368e-01 -3.625169e-02 -1.981191e-01 
-4.656269e-01 -4.010528e-01 -1.344569e-01 2.336614e-01 3.730082e-01 6.295219e-01 7.349326e-01 4.230460e-01 -3.267959e-01 -9.324475e-01 2.592230e-01 8.736630e-01 -9.464589e-03 -4.125867e-01 -4.937653e-01 -4.138052e-01 -3.397353e-01 -4.138052e-01 -4.937653e-01 -4.125867e-01 -9.464589e-03 8.736630e-01 2.592230e-01 -9.324475e-01 -3.267959e-01 4.230460e-01 7.349326e-01 6.295219e-01 3.730082e-01 2.336614e-01 -1.344569e-01 -4.010528e-01 
-6.447590e-01 -5.899072e-01 -3.188903e-01 4.462354e-02 3.547058e-01 9.161819e-01 9.450000e-01 4.534727e-01 -2.076046e-01 -1.022895e+00 -1.720741e-01 7.869744e-01 2.702977e-01 -2.083611e-01 -3.792353e-01 -3.800896e-01 -3.396393e-01 -3.800896e-01 -3.792353e-01 -2.083611e-01 2.702977e-01 7.869744e-01 -1.720741e-01 -1.022895e+00 -2.076046e-01 4.534727e-01 9.450000e-01 9.161819e-01 3.547058e-01 4.462354e-02 -3.188903e-01 -5.899072e-01 
-6.418563e-01 -5.639544e-01 -2.706858e-01 1.129195e-01 4.393359e-01 7.893928e-01 6.230357e-01 2.440110e-01 -1.703219e-01 -8.461689e-01 -3.138521e-01 5.320645e-01 3.019791e-01 -5.093989e-02 -1.869207e-01 -2.173247e-01 -2.032841e-01 -2.173247e-01 -1.869207e-01 -5.093989e-02 3.019791e-01 5.320645e-01 -3.138521e-01 -8.461689e-01 -1.703219e-01 2.440110e-01 6.230357e-01 7.893928e-01 4.393359e-01 1.129195e-01 -2.706858e-01 -5.639544e-01 
-2.605081e-15 -2.290248e-15 -6.967921e-15 -9.809954e-15 1.493906e-14 -5.922772e-15 -5.668259e-14 4.966428e-15 5.117253e-14 -4.812204e-14 -3.425151e-14 5.142114e-14 3.568681e-14 2.121088e-15 -1.111072e-14 -1.571360e-14 -1.142322e-14 -1.273803e-14 -1.298309e-14 -2.707318e-14 -5.402994e-14 -8.826931e-14 2.115916e-14 1.465921e-13 2.416190e-14 -1.765677e-14 2.735808e-14 -1.759633e-14 -1.800647e-14 1.721480e-14 1.161371e-14 7.102476e-16 
6.418563e-01 5.639544e-01 2.706858e-01 -1.129195e-01 -4.393359e-01 -7.893928e-01 -6.230357e-01 -2.440110e-01 1.703219e-01 8.461689e-01 3.138521e-01 -5.320645e-01 -3.019791e-01 5.093989e-02 1.869207e-01 2.173247e-01 2.032841e-01 2.173247e-01 1.869207e-01 5.093989e-02 -3.019791e-01 -5.320645e-01 3.138521e-01 8.461689e-01 1.703219e-01 -2.440110e-01 -6.230357e-01 -7.893928e-01 -4.393359e-01 -1.129195e-01 2.706858e-01 5.639544e-01 
6.447590e-01 5.899072e-01 3.188903e-01 -4.462354e-02 -3.547058e-01 -9.161819e-01 -9.450000e-01 -4.534727e-01 2.076046e-01 1.022895e+00 1.720741e-01 -7.869744e-01 -2.702977e-01 2.083611e-01 3.792353e-01 3.800896e-01 3.396393e-01 3.800896e-01 3.792353e-01 2.083611e-01 -2.702977e-01 -7.869744e-01 1.720741e-01 1.022895e+00 2.076046e-01 -4.534727e-01 -9.450000e-01 -9.161819e-01 -3.547058e-01 -4.462354e-02 3.188903e-01 5.899072e-01 
4.656269e-01 4.010528e-01 1.344569e-01 -2.336614e-01 -3.730082e-01 -6.295219e-01 -7.349326e-01 -4.230460e-01 3.267959e-01 9.324475e-01 -2.592230e-01 -8.736630e-01 9.464589e-03 4.125867e-01 4.937653e-01 4.138052e-01 3.397353e-01 4.138052e-01 4.937653e-01 4.125867e-01 9.464589e-03 -8.736630e-01 -2.592230e-01 9.324475e-01 3.267959e-01 -4.230460e-01 -7.349326e-01 -6.295219e-01 -3.730082e-01 -2.336614e-01 1.344569e-01 4.010528e-01 
2.527722e-01 1.981191e-01 3.625169e-02 -2.423368e-01 -4.464197e-01 -5.584741e-01 -4.815269e-01 -2.276335e-01 1.789517e-01 7.207768e-01 -2.518164e-01 -9.141983e-01 1.684195e-01 6.685658e-01 5.665121e-01 3.551811e-01 2.064839e-01 3.551811e-01 5.665121e-01 6.685658e-01 1.684195e-01 -9.141983e-01 -2.518164e-01 7.207768e-01 1.789517e-01 -2.276335e-01 -4.815269e-01 -5.584741e-01 -4.464197e-01 -2.423368e-01 3.625169e-02 1.981191e-01 
8.309482e-02 5.216169e-02 -6.485248e-02 -2.206788e-01 -4.071930e-01 -5.302937e-01 -4.981300e-01 -9.162403e-02 9.379990e-02 5.515596e-01 3.948871e-01 -5.643883e-01 -1.008712e-02 6.360929e-01 4.933475e-01 1.671706e-01 -8.663837e-02 1.671706e-01 4.933475e-01 6.360929e-01 -1.008712e-02 -5.643883e-01 3.948871e-01 5.515596e-01 9.379990e-02 -9.162403e-02 -4.981300e-01 -5.302937e-01 -4.071930e-01 -2.206788e-01 -6.485248e-02 5.216169e-02 
-1.617487e-02 -2.998388e-02 -1.097135e-01 -2.052113e-01 -3.914044e-01 -5.421147e-01 -6.978977e-01 -2.160218e-01 -1.147451e-01 2.104437e-01 1.091063e+00 3.606400e-01 3.363170e-01 7.542713e-01 2.262644e-01 -3.320233e-01 -6.635918e-01 -3.320233e-01 2.262644e-01 7.542713e-01 3.363170e-01 3.606400e-01 1.091063e+00 2.104437e-01 -1.147451e-01 -2.160218e-01 -6.978977e-01 -5.421147e-01 -3.914044e-01 -2.052113e-01 -1.097135e-01 -2.998388e-02 
-8.997945e-02 -8.887209e-02 -1.524596e-01 -1.982665e-01 -3.424805e-01 -4.434167e-01 -7.143967e-01 -4.505609e-01 -3.675041e-01 -2.312659e-01 8.852871e-01 8.115523e-01 8.722919e-01 1.145875e+00 3.478680e-01 -5.450457e-01 -9.672329e-01 -5.450457e-01 3.478680e-01 1.145875e+00 8.722919e-01 8.115523e-01 8.852871e-01 -2.312659e-01 -3.675041e-01 -4.505609e-01 -7.143967e-01 -4.434167e-01 -3.424805e-01 -1.982665e-01 -1.524596e-01 -8.887209e-02 
-1.199048e-01 -1.150693e-01 -1.614487e-01 -1.879141e-01 -2.879347e-01 -3.708566e-01 -5.919391e-01 -6.250831e-01 -4.686154e-01 -5.666027e-01 2.416250e-01 1.013871e+00 9.240599e-01 9.656113e-01 6.005155e-01 -1.139564e-01 -3.926202e-01 -1.139564e-01 6.005155e-01 9.656113e-01 9.240599e-01 1.013871e+00 2.416250e-01 -5.666027e-01 -4.686154e-01 -6.250831e-01 -5.919391e-01 -3.708566e-01 -2.879347e-01 -1.879141e-01 -1.614487e-01 -1.150693e-01 
-1.459400e-01 -1.391300e-01 -1.767066e-01 -1.956533e-01 -2.628485e-01 -3.202696e-01 -4.536007e-01 -6.433509e-01 -5.979054e-01 -5.835588e-01 -3.751248e-02 5.271334e-01 5.058366e-01 9.894911e-01 1.095730e+00 3.653381e-01 -4.573967e-05 3.653381e-01 1.095730e+00 9.894911e-01 5.058366e-01 5.271334e-01 -3.751248e-02 -5.835588e-01 -5.979054e-01 -6.433509e-01 -4.536007e-01 -3.202696e-01 -2.628485e-01 -1.956533e-01 -1.767066e-01 -1.391300e-01 
-1.433545e-01 -1.370509e-01 -1.665483e-01 -1.806193e-01 -2.315102e-01 -2.718220e-01 -3.526693e-01 -4.567239e-01 -5.137516e-01 -5.446923e-01 -2.905184e-01 2.240748e-01 1.375357e-01 -1.403919e-01 7.251291e-01 1.507225e+00 1.528020e+00 1.507225e+00 7.251291e-01 -1.403919e-01 1.375357e-01 2.240748e-01 -2.905184e-01 -5.446923e-01 -5.137516e-01 -4.567239e-01 -3.526693e-01 -2.718220e-01 -2.315102e-01 -1.806193e-01 -1.665483e-01 -1.370509e-01 
-1.401979e-01 -1.355060e-01 -1.581854e-01 -1.717537e-01 -2.095537e-01 -2.459170e-01 -2.969058e-01 -3.665164e-01 -3.948824e-01 -3.871356e-01 -1.671170e-01 4.434416e-01 8.713876e-01 3.387815e-01 1.064983e-01 5.246056e-01 6.377147e-01 5.246056e-01 1.064983e-01 3.387815e-01 8.713876e-01 4.434416e-01 -1.671170e-01 -3.871356e-01 -3.948824e-01 -3.665164e-01 -2.969058e-01 -2.459170e-01 -2.095537e-01 -1.717537e-01 -1.581854e-01 -1.355060e-01 
-1.195868e-01 -1.157642e-01 -1.337212e-01 -1.445569e-01 -1.750163e-01 -2.044105e-01 -2.488532e-01 -3.109123e-01 -3.708722e-01 -4.570777e-01 -4.823060e-01 -2.787835e-01 5.611527e-01 1.179243e+00 8.181131e-01 3.322616e-01 1.825930e-01 3.322616e-01 8.181131e-01 1.179243e+00 5.611527e-01 -2.787835e-01 -4.823060e-01 -4.570777e-01 -3.708722e-01 -3.109123e-01 -2.488532e-01 -2.044105e-01 -1.750163e-01 -1.445569e-01 -1.337212e-01 -1.157642e-01 
-9.792937e-02 -9.576637e-02 -1.080994e-01 -1.171579e-01 -1.377753e-01 -1.599980e-01 -1.872788e-01 -2.263270e-01 -2.597776e-01 -3.154169e-01 -3.681567e-01 -4.262278e-01 -3.267962e-01 7.616840e-02 7.506675e-01 1.264726e+00 1.372362e+00 1.264726e+00 7.506675e-01 7.616840e-02 -3.267962e-01 -4.262278e-01 -3.681567e-01 -3.154169e-01 -2.597776e-01 -2.263270e-01 -1.872788e-01 -1.599980e-01 -1.377753e-01 -1.171579e-01 -1.080994e-01 -9.576637e-02 
-6.689439e-02 -6.532456e-02 -7.386689e-02 -8.002467e-02 -9.469433e-02 -1.102491e-01 -1.303149e-01 -1.572610e-01 -1.785283e-01 -2.082427e-01 -2.105756e-01 -1.897508e-01 -4.156671e-02 1.635244e-01 3.607155e-01 6.473284e-01 8.045570e-01 6.473284e-01 3.607155e-01 1.635244e-01 -4.156671e-02 -1.897508e-01 -2.105756e-01 -2.082427e-01 -1.785283e-01 -1.572610e-01 -1.303149e-01 -1.102491e-01 -9.469433e-02 -8.002467e-02 -7.386689e-02 -6.532456e-02 
-3.491495e-02 -3.433598e-02 -3.825684e-02 -4.146681e-02 -4.815334e-02 -5.577771e-02 -6.481698e-02 -7.762122e-02 -8.878623e-02 -1.055413e-01 -1.173351e-01 -1.244588e-01 -8.821994e-02 2.019463e-02 2.180482e-01 4.190072e-01 4.899554e-01 4.190072e-01 2.180482e-01 2.019463e-02 -8.821994e-02 -1.244588e-01 -1.173351e-01 -1.055413e-01 -8.878623e-02 -7.762122e-02 -6.481698e-02 -5.577771e-02 -4.815334e-02 -4.146681e-02 -3.825684e-02 -3.433598e-02 
