# vtk DataFile Version 2.0
Comment goes here
ASCII

DATASET STRUCTURED_POINTS
FIELD FieldData 1
TIME 1 1 double
1.04000000
DIMENSIONS    32   32   1

ORIGIN    0.000   0.000   0.000
SPACING   0.03125 0.03125   1.000

POINT_DATA   1024
SCALARS uY double
LOOKUP_TABLE default

-2.239228e-14 -2.635504e-14 -1.884962e-14 -1.725045e-14 -1.028905e-14 -5.896003e-15 1.224655e-15 4.320250e-15 1.938476e-14 2.769932e-14 6.637822e-14 7.810412e-14 1.284360e-13 1.203772e-13 1.401718e-13 1.157850e-13 3.463302e-14 -2.506713e-14 -1.124440e-13 -1.142640e-13 -1.655338e-13 -1.268094e-13 -1.213591e-13 -8.138155e-14 -5.981348e-14 -4.766227e-14 -3.292198e-14 -3.854745e-14 -2.549015e-14 -3.402112e-14 -2.305018e-14 -3.062079e-14 
3.137095e-04 9.380413e-03 3.089756e-02 6.526306e-02 1.048003e-01 1.465485e-01 1.836561e-01 2.080014e-01 2.163653e-01 1.969145e-01 1.534201e-01 7.400133e-02 -3.464882e-02 -1.743615e-01 -3.448283e-01 -5.257477e-01 -6.196382e-01 -5.257477e-01 -3.448283e-01 -1.743615e-01 -3.464882e-02 7.400133e-02 1.534201e-01 1.969145e-01 2.163653e-01 2.080014e-01 1.836561e-01 1.465485e-01 1.048003e-01 6.526306e-02 3.089756e-02 9.380413e-03 
-1.158107e-02 6.855767e-03 5.008160e-02 1.183138e-01 1.954450e-01 2.758481e-01 3.466626e-01 3.925344e-01 4.075902e-01 3.697724e-01 2.867351e-01 1.394633e-01 -6.118130e-02 -3.151077e-01 -6.309622e-01 -9.876801e-01 -1.177161e+00 -9.876801e-01 -6.309622e-01 -3.151077e-01 -6.118130e-02 1.394633e-01 2.867351e-01 3.697724e-01 4.075902e-01 3.925344e-01 3.466626e-01 2.758481e-01 1.954450e-01 1.183138e-01 5.008160e-02 6.855767e-03 
-5.441873e-02 -2.597470e-02 3.965177e-02 1.416266e-01 2.527594e-01 3.669261e-01 4.642953e-01 5.268568e-01 5.482698e-01 4.955792e-01 3.943957e-01 2.050842e-01 -4.178854e-02 -3.589029e-01 -8.094914e-01 -1.351195e+00 -1.641765e+00 -1.351195e+00 -8.094914e-01 -3.589029e-01 -4.178854e-02 2.050842e-01 3.943957e-01 4.955792e-01 5.482698e-01 5.268568e-01 4.642953e-01 3.669261e-01 2.527594e-01 1.416266e-01 3.965177e-02 -2.597470e-02 
-1.261976e-01 -8.602297e-02 5.218596e-03 1.442448e-01 2.901560e-01 4.357361e-01 5.557979e-01 6.306993e-01 6.559919e-01 5.878172e-01 4.649168e-01 2.367153e-01 -5.583431e-02 -3.933155e-01 -9.012278e-01 -1.555874e+00 -1.903841e+00 -1.555874e+00 -9.012278e-01 -3.933155e-01 -5.583431e-02 2.367153e-01 4.649168e-01 5.878172e-01 6.559919e-01 6.306993e-01 5.557979e-01 4.357361e-01 2.901560e-01 1.442448e-01 5.218596e-03 -8.602297e-02 
-2.446464e-01 -1.912798e-01 -7.042936e-02 1.102572e-01 2.911591e-01 4.679840e-01 6.019238e-01 6.847899e-01 7.089279e-01 6.209202e-01 5.068850e-01 2.520774e-01 -1.470289e-02 -2.925588e-01 -8.935946e-01 -1.652190e+00 -2.015692e+00 -1.652190e+00 -8.935946e-01 -2.925588e-01 -1.470289e-02 2.520774e-01 5.068850e-01 6.209202e-01 7.089279e-01 6.847899e-01 6.019238e-01 4.679840e-01 2.911591e-01 1.102572e-01 -7.042936e-02 -1.912798e-01 
-3.907381e-01 -3.215322e-01 -1.654705e-01 6.527560e-02 2.892244e-01 5.040097e-01 6.594419e-01 7.544458e-01 7.865717e-01 6.809566e-01 5.549488e-01 2.014912e-01 -2.036747e-01 -4.472753e-01 -8.843053e-01 -1.437371e+00 -1.682735e+00 -1.437371e+00 -8.843053e-01 -4.472753e-01 -2.036747e-01 2.014912e-01 5.549488e-01 6.809566e-01 7.865717e-01 7.544458e-01 6.594419e-01 5.040097e-01 2.892244e-01 6.527560e-02 -1.654705e-01 -3.215322e-01 
-5.733814e-01 -4.887856e-01 -2.927594e-01 -7.528637e-03 2.613757e-01 5.211764e-01 6.866237e-01 8.010402e-01 8.111261e-01 6.563739e-01 5.525270e-01 7.003296e-02 -1.914650e-01 -2.263641e-01 -8.054297e-01 -1.325945e+00 -1.470616e+00 -1.325945e+00 -8.054297e-01 -2.263641e-01 -1.914650e-01 7.003296e-02 5.525270e-01 6.563739e-01 8.111261e-01 8.010402e-01 6.866237e-01 5.211764e-01 2.613757e-01 -7.528637e-03 -2.927594e-01 -4.887856e-01 
-7.586620e-01 -6.574168e-01 -4.197167e-01 -7.483404e-02 2.435855e-01 5.572200e-01 7.519392e-01 9.042425e-01 9.587321e-01 8.600111e-01 7.907188e-01 -7.042427e-02 -9.538754e-01 -1.183028e+00 -9.110519e-01 -3.357709e-01 -1.620013e-01 -3.357709e-01 -9.110519e-01 -1.183028e+00 -9.538754e-01 -7.042427e-02 7.907188e-01 8.600111e-01 9.587321e-01 9.042425e-01 7.519392e-01 5.572200e-01 2.435855e-01 -7.483404e-02 -4.197167e-01 -6.574168e-01 
-9.451733e-01 -8.331663e-01 -5.502249e-01 -1.521285e-01 2.175447e-01 5.908305e-01 8.012272e-01 1.053513e+00 1.009599e+00 8.531781e-01 1.528168e-01 -9.542781e-01 -6.901629e-01 -2.497506e-01 -1.650386e-01 -3.081986e-01 -6.063501e-01 -3.081986e-01 -1.650386e-01 -2.497506e-01 -6.901629e-01 -9.542781e-01 1.528168e-01 8.531781e-01 1.009599e+00 1.053513e+00 8.012272e-01 5.908305e-01 2.175447e-01 -1.521285e-01 -5.502249e-01 -8.331663e-01 
-1.095309e+00 -9.740056e-01 -6.540156e-01 -2.096282e-01 1.936378e-01 6.218031e-01 8.323766e-01 1.139987e+00 1.244935e+00 7.046540e-01 -1.860905e-01 -2.386103e-01 2.614438e-01 -2.369880e-01 -6.683980e-01 -8.072115e-01 -9.524686e-01 -8.072115e-01 -6.683980e-01 -2.369880e-01 2.614438e-01 -2.386103e-01 -1.860905e-01 7.046540e-01 1.244935e+00 1.139987e+00 8.323766e-01 6.218031e-01 1.936378e-01 -2.096282e-01 -6.540156e-01 -9.740056e-01 
-1.203777e+00 -1.084930e+00 -7.291247e-01 -2.719368e-01 1.807549e-01 6.261771e-01 9.565689e-01 1.624122e+00 1.624103e+00 2.818690e-01 -3.513719e-01 -1.777719e-01 -5.580022e-01 -8.248726e-01 -5.637935e-01 -1.726569e-01 8.550799e-02 -1.726569e-01 -5.637935e-01 -8.248726e-01 -5.580022e-01 -1.777719e-01 -3.513719e-01 2.818690e-01 1.624103e+00 1.624122e+00 9.565689e-01 6.261771e-01 1.807549e-01 -2.719368e-01 -7.291247e-01 -1.084930e+00 
-1.226870e+00 -1.117402e+00 -7.485202e-01 -3.019362e-01 1.601205e-01 6.476250e-01 9.776942e-01 2.112429e+00 1.352808e+00 -7.045698e-01 -5.274253e-01 -3.075436e-01 -4.362549e-01 -1.651866e-01 -1.439640e-01 -1.634155e-01 -4.204537e-02 -1.634155e-01 -1.439640e-01 -1.651866e-01 -4.362549e-01 -3.075436e-01 -5.274253e-01 -7.045698e-01 1.352808e+00 2.112429e+00 9.776942e-01 6.476250e-01 1.601205e-01 -3.019362e-01 -7.485202e-01 -1.117402e+00 
-1.154931e+00 -1.064563e+00 -7.161176e-01 -3.475067e-01 1.339814e-01 4.661322e-01 1.232747e+00 2.712107e+00 4.220517e-01 -1.262771e+00 4.779539e-02 -3.627336e-03 -2.853792e-01 -3.665344e-01 -2.577264e-01 -1.332369e-01 2.271133e-04 -1.332369e-01 -2.577264e-01 -3.665344e-01 -2.853792e-01 -3.627336e-03 4.779539e-02 -1.262771e+00 4.220517e-01 2.712107e+00 1.232747e+00 4.661322e-01 1.339814e-01 -3.475067e-01 -7.161176e-01 -1.064563e+00 
-9.200379e-01 -8.695794e-01 -5.661584e-01 -3.364839e-01 1.740912e-01 2.461429e-01 1.616301e+00 2.132474e+00 -1.168140e+00 -7.944255e-01 6.603671e-01 -5.713966e-02 -1.215577e-01 -2.119601e-01 -1.200696e-01 -1.090281e-01 -2.962885e-02 -1.090281e-01 -1.200696e-01 -2.119601e-01 -1.215577e-01 -5.713966e-02 6.603671e-01 -7.944255e-01 -1.168140e+00 2.132474e+00 1.616301e+00 2.461429e-01 1.740912e-01 -3.364839e-01 -5.661584e-01 -8.695794e-01 
-5.291653e-01 -4.965226e-01 -3.288454e-01 -1.980034e-01 9.580277e-02 1.525760e-01 1.096349e+00 9.062807e-01 -9.314466e-01 -1.751709e-02 5.781557e-01 -7.549379e-02 -1.122450e-01 -1.859187e-01 -1.136680e-01 -8.540113e-02 -3.903968e-02 -8.540113e-02 -1.136680e-01 -1.859187e-01 -1.122450e-01 -7.549379e-02 5.781557e-01 -1.751709e-02 -9.314466e-01 9.062807e-01 1.096349e+00 1.525760e-01 9.580277e-02 -1.980034e-01 -3.288454e-01 -4.965226e-01 
5.124205e-14 -2.350426e-14 -8.256205e-14 -1.164170e-13 -8.710650e-14 -1.544500e-14 2.347396e-13 1.981802e-13 -2.161639e-13 6.346602e-14 2.372163e-13 1.686979e-13 1.970075e-13 9.047832e-14 5.812337e-14 1.470780e-14 -4.319610e-14 -1.008091e-13 -1.937376e-13 -2.753929e-13 -4.157875e-13 -3.374611e-13 1.827936e-13 3.111442e-13 2.674576e-13 -3.436170e-13 -6.941217e-13 -2.227606e-13 6.385429e-14 2.352976e-13 2.383257e-13 1.518456e-13 
5.291653e-01 4.965226e-01 3.288454e-01 1.980034e-01 -9.580277e-02 -1.525760e-01 -1.096349e+00 -9.062807e-01 9.314466e-01 1.751709e-02 -5.781557e-01 7.549379e-02 1.122450e-01 1.859187e-01 1.136680e-01 8.540113e-02 3.903968e-02 8.540113e-02 1.136680e-01 1.859187e-01 1.122450e-01 7.549379e-02 -5.781557e-01 1.751709e-02 9.314466e-01 -9.062807e-01 -1.096349e+00 -1.525760e-01 -9.580277e-02 1.980034e-01 3.288454e-01 4.965226e-01 
9.200379e-01 8.695794e-01 5.661584e-01 3.364839e-01 -1.740912e-01 -2.461429e-01 -1.616301e+00 -2.132474e+00 1.168140e+00 7.944255e-01 -6.603671e-01 5.713966e-02 1.215577e-01 2.119601e-01 1.200696e-01 1.090281e-01 2.962885e-02 1.090281e-01 1.200696e-01 2.119601e-01 1.215577e-01 5.713966e-02 -6.603671e-01 7.944255e-01 1.168140e+00 -2.132474e+00 -1.616301e+00 -2.461429e-01 -1.740912e-01 3.364839e-01 5.661584e-01 8.695794e-01 
1.154931e+00 1.064563e+00 7.161176e-01 3.475067e-01 -1.339814e-01 -4.661322e-01 -1.232747e+00 -2.712107e+00 -4.220517e-01 1.262771e+00 -4.779539e-02 3.627336e-03 2.853792e-01 3.665344e-01 2.577264e-01 1.332369e-01 -2.271133e-04 1.332369e-01 2.577264e-01 3.665344e-01 2.853792e-01 3.627336e-03 -4.779539e-02 1.262771e+00 -4.220517e-01 -2.712107e+00 -1.232747e+00 -4.661322e-01 -1.339814e-01 3.475067e-01 7.161176e-01 1.064563e+00 
1.226870e+00 1.117402e+00 7.485202e-01 3.019362e-01 -1.601205e-01 -6.476250e-01 -9.776942e-01 -2.112429e+00 -1.352808e+00 7.045698e-01 5.274253e-01 3.075436e-01 4.362549e-01 1.651866e-01 1.439640e-01 1.634155e-01 4.204537e-02 1.634155e-01 1.439640e-01 1.651866e-01 4.362549e-01 3.075436e-01 5.274253e-01 7.045698e-01 -1.352808e+00 -2.112429e+00 -9.776942e-01 -6.476250e-01 -1.601205e-01 3.019362e-01 7.485202e-01 1.117402e+00 
1.203777e+00 1.084930e+00 7.291247e-01 2.719368e-01 -1.807549e-01 -6.261771e-01 -9.565689e-01 -1.624122e+00 -1.624103e+00 -2.818690e-01 3.513719e-01 1.777719e-01 5.580022e-01 8.248726e-01 5.637935e-01 1.726569e-01 -8.550799e-02 1.726569e-01 5.637935e-01 8.248726e-01 5.580022e-01 1.777719e-01 3.513719e-01 -2.818690e-01 -1.624103e+00 -1.624122e+00 -9.565689e-01 -6.261771e-01 -1.807549e-01 2.719368e-01 7.291247e-01 1.084930e+00 
1.095309e+00 9.740056e-01 6.540156e-01 2.096282e-01 -1.936378e-01 -6.218031e-01 -8.323766e-01 -1.139987e+00 -1.244935e+00 -7.046540e-01 1.860905e-01 2.386103e-01 -2.614438e-01 2.369880e-01 6.683980e-01 8.072115e-01 9.524686e-01 8.072115e-01 6.683980e-01 2.369880e-01 -2.614438e-01 2.386103e-01 1.860905e-01 -7.046540e-01 -1.244935e+00 -1.139987e+00 -8.323766e-01 -6.218031e-01 -1.936378e-01 2.096282e-01 6.540156e-01 9.740056e-01 
9.451733e-01 8.331663e-01 5.502249e-01 1.521285e-01 -2.175447e-01 -5.908305e-01 -8.012272e-01 -1.053513e+00 -1.009599e+00 -8.531781e-01 -1.528168e-01 9.542781e-01 6.901629e-01 2.497506e-01 1.650386e-01 3.081986e-01 6.063501e-01 3.081986e-01 1.650386e-01 2.497506e-01 6.901629e-01 9.542781e-01 -1.528168e-01 -8.531781e-01 -1.009599e+00 -1.053513e+00 -8.012272e-01 -5.908305e-01 -2.175447e-01 1.521285e-01 5.502249e-01 8.331663e-01 
7.586620e-01 6.574168e-01 4.197167e-01 7.483404e-02 -2.435855e-01 -5.572200e-01 -7.519392e-01 -9.042425e-01 -9.587321e-01 -8.600111e-01 -7.907188e-01 7.042427e-02 9.538754e-01 1.183028e+00 9.110519e-01 3.357709e-01 1.620013e-01 3.357709e-01 9.110519e-01 1.183028e+00 9.538754e-01 7.042427e-02 -7.907188e-01 -8.600111e-01 -9.587321e-01 -9.042425e-01 -7.519392e-01 -5.572200e-01 -2.435855e-01 7.483404e-02 4.197167e-01 6.574168e-01 
5.733814e-01 4.887856e-01 2.927594e-01 7.528637e-03 -2.613757e-01 -5.211764e-01 -6.866237e-01 -8.010402e-01 -8.111261e-01 -6.563739e-01 -5.525270e-01 -7.003296e-02 1.914650e-01 2.263641e-01 8.054297e-01 1.325945e+00 1.470616e+00 1.325945e+00 8.054297e-01 2.263641e-01 1.914650e-01 -7.003296e-02 -5.525270e-01 -6.563739e-01 -8.111261e-01 -8.010402e-01 -6.866237e-01 -5.211764e-01 -2.613757e-01 7.528637e-03 2.927594e-01 4.887856e-01 
3.907381e-01 3.215322e-01 1.654705e-01 -6.527560e-02 -2.892244e-01 -5.040097e-01 -6.594419e-01 -7.544458e-01 -7.865717e-01 -6.809566e-01 -5.549488e-01 -2.014912e-01 2.036747e-01 4.472753e-01 8.843053e-01 1.437371e+00 1.682735e+00 1.437371e+00 8.843053e-01 4.472753e-01 2.036747e-01 -2.014912e-01 -5.549488e-01 -6.809566e-01 -7.865717e-01 -7.544458e-01 -6.594419e-01 -5.040097e-01 -2.892244e-01 -6.527560e-02 1.654705e-01 3.215322e-01 
2.446464e-01 1.912798e-01 7.042936e-02 -1.102572e-01 -2.911591e-01 -4.679840e-01 -6.019238e-01 -6.847899e-01 -7.089279e-01 -6.209202e-01 -5.068850e-01 -2.520774e-01 1.470289e-02 2.925588e-01 8.935946e-01 1.652190e+00 2.015692e+00 1.652190e+00 8.935946e-01 2.925588e-01 1.470289e-02 -2.520774e-01 -5.068850e-01 -6.209202e-01 -7.089279e-01 -6.847899e-01 -6.019238e-01 -4.679840e-01 -2.911591e-01 -1.102572e-01 7.042936e-02 1.912798e-01 
1.261976e-01 8.602297e-02 -5.218596e-03 -1.442448e-01 -2.901560e-01 -4.357361e-01 -5.557979e-01 -6.306993e-01 -6.559919e-01 -5.878172e-01 -4.649168e-01 -2.367153e-01 5.583431e-02 3.933155e-01 9.012278e-01 1.555874e+00 1.903841e+00 1.555874e+00 9.012278e-01 3.933155e-01 5.583431e-02 -2.367153e-01 -4.649168e-01 -5.878172e-01 -6.559919e-01 -6.306993e-01 -5.557979e-01 -4.357361e-01 -2.901560e-01 -1.442448e-01 -5.218596e-03 8.602297e-02 
5.441873e-02 2.597470e-02 -3.965177e-02 -1.416266e-01 -2.527594e-01 -3.669261e-01 -4.642953e-01 -5.268568e-01 -5.482698e-01 -4.955792e-01 -3.943957e-01 -2.050842e-01 4.178854e-02 3.589029e-01 8.094914e-01 1.351195e+00 1.641765e+00 1.351195e+00 8.094914e-01 3.589029e-01 4.178854e-02 -2.050842e-01 -3.943957e-01 -4.955792e-01 -5.482698e-01 -5.268568e-01 -4.642953e-01 -3.669261e-01 -2.527594e-01 -1.416266e-01 -3.965177e-02 2.597470e-02 
1.158107e-02 -6.855767e-03 -5.008160e-02 -1.183138e-01 -1.954450e-01 -2.758481e-01 -3.466626e-01 -3.925344e-01 -4.075902e-01 -3.697724e-01 -2.867351e-01 -1.394633e-01 6.118130e-02 3.151077e-01 6.309622e-01 9.876801e-01 1.177161e+00 9.876801e-01 6.309622e-01 3.151077e-01 6.118130e-02 -1.394633e-01 -2.867351e-01 -3.697724e-01 -4.075902e-01 -3.925344e-01 -3.466626e-01 -2.758481e-01 -1.954450e-01 -1.183138e-01 -5.008160e-02 -6.855767e-03 
-3.137095e-04 -9.380413e-03 -3.089756e-02 -6.526306e-02 -1.048003e-01 -1.465485e-01 -1.836561e-01 -2.080014e-01 -2.163653e-01 -1.969145e-01 -1.534201e-01 -7.400133e-02 3.464882e-02 1.743615e-01 3.448283e-01 5.257477e-01 6.196382e-01 5.257477e-01 3.448283e-01 1.743615e-01 3.464882e-02 -7.400133e-02 -1.534201e-01 -1.969145e-01 -2.163653e-01 -2.080014e-01 -1.836561e-01 -1.465485e-01 -1.048003e-01 -6.526306e-02 -3.089756e-02 -9.380413e-03 
