# vtk DataFile Version 2.0
Comment goes here
ASCII

DATASET STRUCTURED_POINTS
FIELD FieldData 1
TIME 1 1 double
0.94000000
DIMENSIONS    32   32   1

ORIGIN    0.000   0.000   0.000
SPACING   0.03125 0.03125   1.000

POINT_DATA   1024
SCALARS uY double
LOOKUP_TABLE default

-1.179750e-14 -9.090343e-15 -1.121957e-14 -7.101418e-15 -7.593313e-15 -3.022505e-15 -5.400155e-15 -6.581833e-16 -4.771038e-15 3.504081e-15 -1.927530e-15 1.114135e-14 4.278441e-15 1.776782e-14 1.016966e-14 3.161917e-14 3.891937e-14 2.510687e-14 4.085827e-14 -1.175737e-14 -8.016307e-15 -2.717158e-14 -1.523649e-14 -1.758294e-14 -1.302798e-14 -1.251219e-14 -1.507434e-14 -1.124075e-14 -1.414921e-14 -8.386706e-15 -1.164316e-14 -7.745638e-15 
1.404664e-02 2.183201e-02 4.223416e-02 7.386203e-02 1.124619e-01 1.530983e-01 1.905887e-01 2.148371e-01 2.206890e-01 1.997241e-01 1.522754e-01 7.377904e-02 -3.738030e-02 -1.855863e-01 -3.713921e-01 -5.515463e-01 -6.330001e-01 -5.515463e-01 -3.713921e-01 -1.855863e-01 -3.738030e-02 7.377904e-02 1.522754e-01 1.997241e-01 2.206890e-01 2.148371e-01 1.905887e-01 1.530983e-01 1.124619e-01 7.386203e-02 4.223416e-02 2.183201e-02 
1.393593e-02 2.960879e-02 6.984031e-02 1.314395e-01 2.051761e-01 2.818393e-01 3.527704e-01 3.991694e-01 4.133934e-01 3.776058e-01 2.945351e-01 1.503226e-01 -5.704889e-02 -3.343826e-01 -7.003748e-01 -1.035603e+00 -1.170519e+00 -1.035603e+00 -7.003748e-01 -3.343826e-01 -5.704889e-02 1.503226e-01 2.945351e-01 3.776058e-01 4.133934e-01 3.991694e-01 3.527704e-01 2.818393e-01 2.051761e-01 1.314395e-01 6.984031e-02 2.960879e-02 
-9.990419e-03 1.444702e-02 7.560030e-02 1.672876e-01 2.733021e-01 3.803164e-01 4.768987e-01 5.370693e-01 5.506890e-01 4.927862e-01 3.683384e-01 1.621497e-01 -1.181621e-01 -4.713878e-01 -9.030482e-01 -1.282668e+00 -1.437246e+00 -1.282668e+00 -9.030482e-01 -4.713878e-01 -1.181621e-01 1.621497e-01 3.683384e-01 4.927862e-01 5.506890e-01 5.370693e-01 4.768987e-01 3.803164e-01 2.733021e-01 1.672876e-01 7.560030e-02 1.444702e-02 
-6.931112e-02 -3.480807e-02 4.850534e-02 1.705157e-01 3.049888e-01 4.352401e-01 5.499067e-01 6.191188e-01 6.378330e-01 5.729568e-01 4.432104e-01 2.074456e-01 -1.031752e-01 -4.937135e-01 -1.042722e+00 -1.476755e+00 -1.607783e+00 -1.476755e+00 -1.042722e+00 -4.937135e-01 -1.031752e-01 2.074456e-01 4.432104e-01 5.729568e-01 6.378330e-01 6.191188e-01 5.499067e-01 4.352401e-01 3.049888e-01 1.705157e-01 4.850534e-02 -3.480807e-02 
-1.672237e-01 -1.198336e-01 -8.530499e-03 1.512149e-01 3.192914e-01 4.744585e-01 6.057856e-01 6.793204e-01 6.949403e-01 6.108959e-01 4.475964e-01 1.422671e-01 -2.691017e-01 -6.744081e-01 -1.024352e+00 -1.263915e+00 -1.364036e+00 -1.263915e+00 -1.024352e+00 -6.744081e-01 -2.691017e-01 1.422671e-01 4.475964e-01 6.108959e-01 6.949403e-01 6.793204e-01 6.057856e-01 4.744585e-01 3.192914e-01 1.512149e-01 -8.530499e-03 -1.198336e-01 
-3.047111e-01 -2.420297e-01 -9.937874e-02 1.028005e-01 3.049085e-01 4.817036e-01 6.223028e-01 6.936467e-01 7.094542e-01 6.347805e-01 5.124409e-01 1.647009e-01 -2.307349e-01 -5.649480e-01 -1.044752e+00 -1.270654e+00 -1.243771e+00 -1.270654e+00 -1.044752e+00 -5.649480e-01 -2.307349e-01 1.647009e-01 5.124409e-01 6.347805e-01 7.094542e-01 6.936467e-01 6.223028e-01 4.817036e-01 3.049085e-01 1.028005e-01 -9.937874e-02 -2.420297e-01 
-4.801073e-01 -3.988061e-01 -2.177254e-01 3.894976e-02 2.888672e-01 5.028676e-01 6.719297e-01 7.562063e-01 7.881870e-01 7.171023e-01 5.329507e-01 -1.460180e-01 -1.112366e+00 -1.435634e+00 -7.489509e-01 -3.466815e-02 7.432212e-02 -3.466815e-02 -7.489509e-01 -1.435634e+00 -1.112366e+00 -1.460180e-01 5.329507e-01 7.171023e-01 7.881870e-01 7.562063e-01 6.719297e-01 5.028676e-01 2.888672e-01 3.894976e-02 -2.177254e-01 -3.988061e-01 
-6.725198e-01 -5.711085e-01 -3.511041e-01 -3.791081e-02 2.566345e-01 5.013939e-01 6.798730e-01 7.400629e-01 7.265911e-01 6.608912e-01 1.158084e-01 -9.635543e-01 -1.125691e+00 -1.539145e-01 3.230282e-01 -1.758599e-01 -5.777600e-01 -1.758599e-01 3.230282e-01 -1.539145e-01 -1.125691e+00 -9.635543e-01 1.158084e-01 6.608912e-01 7.265911e-01 7.400629e-01 6.798730e-01 5.013939e-01 2.566345e-01 -3.791081e-02 -3.511041e-01 -5.711085e-01 
-8.834952e-01 -7.608513e-01 -5.020455e-01 -1.281551e-01 2.162475e-01 5.116577e-01 7.418788e-01 8.444945e-01 9.095240e-01 7.069679e-01 -1.354078e-01 -5.010866e-01 3.232419e-01 5.808465e-01 -3.690698e-01 -1.253873e+00 -1.485243e+00 -1.253873e+00 -3.690698e-01 5.808465e-01 3.232419e-01 -5.010866e-01 -1.354078e-01 7.069679e-01 9.095240e-01 8.444945e-01 7.418788e-01 5.116577e-01 2.162475e-01 -1.281551e-01 -5.020455e-01 -7.608513e-01 
-1.061567e+00 -9.194737e-01 -6.274856e-01 -1.968501e-01 1.929948e-01 5.439831e-01 8.300417e-01 8.264233e-01 9.361504e-01 8.220868e-01 8.131133e-02 -2.342956e-01 -1.926314e-01 -5.333062e-01 -6.343893e-01 -3.085676e-01 -1.104174e-01 -3.085676e-01 -6.343893e-01 -5.333062e-01 -1.926314e-01 -2.342956e-01 8.131133e-02 8.220868e-01 9.361504e-01 8.264233e-01 8.300417e-01 5.439831e-01 1.929948e-01 -1.968501e-01 -6.274856e-01 -9.194737e-01 
-1.216678e+00 -1.062581e+00 -7.597495e-01 -2.970202e-01 9.606056e-02 4.860429e-01 7.492223e-01 7.129473e-01 1.464721e+00 9.651878e-01 -3.572696e-01 -3.790984e-01 -3.665192e-01 -3.125683e-01 -2.437332e-01 -1.129106e-01 5.121260e-02 -1.129106e-01 -2.437332e-01 -3.125683e-01 -3.665192e-01 -3.790984e-01 -3.572696e-01 9.651878e-01 1.464721e+00 7.129473e-01 7.492223e-01 4.860429e-01 9.606056e-02 -2.970202e-01 -7.597495e-01 -1.062581e+00 
-1.265220e+00 -1.109795e+00 -8.198255e-01 -3.427060e-01 3.806273e-02 5.669594e-01 8.041966e-01 1.239180e+00 1.810671e+00 1.285876e-01 -5.653933e-01 5.149148e-02 -3.279535e-01 -4.164144e-01 -3.044973e-01 -1.173033e-01 -5.302161e-03 -1.173033e-01 -3.044973e-01 -4.164144e-01 -3.279535e-01 5.149148e-02 -5.653933e-01 1.285876e-01 1.810671e+00 1.239180e+00 8.041966e-01 5.669594e-01 3.806273e-02 -3.427060e-01 -8.198255e-01 -1.109795e+00 
-1.212515e+00 -1.076565e+00 -8.377653e-01 -4.097219e-01 -8.828474e-02 5.063622e-01 6.436974e-01 1.725250e+00 1.585967e+00 -7.042451e-01 -1.323096e-01 3.069880e-01 -2.897826e-01 -2.371337e-01 -2.434672e-01 -1.109344e-01 -6.359514e-02 -1.109344e-01 -2.434672e-01 -2.371337e-01 -2.897826e-01 3.069880e-01 -1.323096e-01 -7.042451e-01 1.585967e+00 1.725250e+00 6.436974e-01 5.063622e-01 -8.828474e-02 -4.097219e-01 -8.377653e-01 -1.076565e+00 
-9.805851e-01 -8.851821e-01 -7.291645e-01 -4.289603e-01 -1.892473e-01 3.069357e-01 7.079933e-01 1.861875e+00 1.066194e+00 -8.541021e-01 1.135081e-01 2.717202e-01 -2.169673e-01 -1.653878e-01 -2.147489e-01 -1.068988e-01 -9.455025e-02 -1.068988e-01 -2.147489e-01 -1.653878e-01 -2.169673e-01 2.717202e-01 1.135081e-01 -8.541021e-01 1.066194e+00 1.861875e+00 7.079933e-01 3.069357e-01 -1.892473e-01 -4.289603e-01 -7.291645e-01 -8.851821e-01 
-5.742100e-01 -5.320839e-01 -4.614865e-01 -3.178943e-01 -1.467225e-01 1.799738e-01 6.881919e-01 1.140671e+00 2.779730e-01 -4.655659e-01 2.353451e-01 1.694271e-01 -1.391135e-01 -1.033044e-01 -1.327297e-01 -7.122299e-02 -6.870576e-02 -7.122299e-02 -1.327297e-01 -1.033044e-01 -1.391135e-01 1.694271e-01 2.353451e-01 -4.655659e-01 2.779730e-01 1.140671e+00 6.881919e-01 1.799738e-01 -1.467225e-01 -3.178943e-01 -4.614865e-01 -5.320839e-01 
-8.450097e-15 -2.919635e-14 -4.822769e-14 -7.095605e-14 -7.901935e-14 -5.788210e-14 9.799510e-15 1.238855e-13 4.874082e-14 -1.364079e-13 1.134165e-14 4.450558e-14 1.855310e-14 1.289743e-14 5.744616e-15 -7.997859e-15 -8.402837e-15 -2.831117e-14 -3.033139e-14 -5.006522e-14 -3.861796e-14 -3.328842e-14 1.927257e-13 5.970327e-13 -6.305959e-14 -4.352229e-13 -1.155333e-13 2.696447e-14 5.978514e-14 2.458645e-14 1.932090e-14 -7.674491e-15 
5.742100e-01 5.320839e-01 4.614865e-01 3.178943e-01 1.467225e-01 -1.799738e-01 -6.881919e-01 -1.140671e+00 -2.779730e-01 4.655659e-01 -2.353451e-01 -1.694271e-01 1.391135e-01 1.033044e-01 1.327297e-01 7.122299e-02 6.870576e-02 7.122299e-02 1.327297e-01 1.033044e-01 1.391135e-01 -1.694271e-01 -2.353451e-01 4.655659e-01 -2.779730e-01 -1.140671e+00 -6.881919e-01 -1.799738e-01 1.467225e-01 3.178943e-01 4.614865e-01 5.320839e-01 
9.805851e-01 8.851821e-01 7.291645e-01 4.289603e-01 1.892473e-01 -3.069357e-01 -7.079933e-01 -1.861875e+00 -1.066194e+00 8.541021e-01 -1.135081e-01 -2.717202e-01 2.169673e-01 1.653878e-01 2.147489e-01 1.068988e-01 9.455025e-02 1.068988e-01 2.147489e-01 1.653878e-01 2.169673e-01 -2.717202e-01 -1.135081e-01 8.541021e-01 -1.066194e+00 -1.861875e+00 -7.079933e-01 -3.069357e-01 1.892473e-01 4.289603e-01 7.291645e-01 8.851821e-01 
1.212515e+00 1.076565e+00 8.377653e-01 4.097219e-01 8.828474e-02 -5.063622e-01 -6.436974e-01 -1.725250e+00 -1.585967e+00 7.042451e-01 1.323096e-01 -3.069880e-01 2.897826e-01 2.371337e-01 2.434672e-01 1.109344e-01 6.359514e-02 1.109344e-01 2.434672e-01 2.371337e-01 2.897826e-01 -3.069880e-01 1.323096e-01 7.042451e-01 -1.585967e+00 -1.725250e+00 -6.436974e-01 -5.063622e-01 8.828474e-02 4.097219e-01 8.377653e-01 1.076565e+00 
1.265220e+00 1.109795e+00 8.198255e-01 3.427060e-01 -3.806273e-02 -5.669594e-01 -8.041966e-01 -1.239180e+00 -1.810671e+00 -1.285876e-01 5.653933e-01 -5.149148e-02 3.279535e-01 4.164144e-01 3.044973e-01 1.173033e-01 5.302161e-03 1.173033e-01 3.044973e-01 4.164144e-01 3.279535e-01 -5.149148e-02 5.653933e-01 -1.285876e-01 -1.810671e+00 -1.239180e+00 -8.041966e-01 -5.669594e-01 -3.806273e-02 3.427060e-01 8.198255e-01 1.109795e+00 
1.216678e+00 1.062581e+00 7.597495e-01 2.970202e-01 -9.606056e-02 -4.860429e-01 -7.492223e-01 -7.129473e-01 -1.464721e+00 -9.651878e-01 3.572696e-01 3.790984e-01 3.665192e-01 3.125683e-01 2.437332e-01 1.129106e-01 -5.121260e-02 1.129106e-01 2.437332e-01 3.125683e-01 3.665192e-01 3.790984e-01 3.572696e-01 -9.651878e-01 -1.464721e+00 -7.129473e-01 -7.492223e-01 -4.860429e-01 -9.606056e-02 2.970202e-01 7.597495e-01 1.062581e+00 
1.061567e+00 9.194737e-01 6.274856e-01 1.968501e-01 -1.929948e-01 -5.439831e-01 -8.300417e-01 -8.264233e-01 -9.361504e-01 -8.220868e-01 -8.131133e-02 2.342956e-01 1.926314e-01 5.333062e-01 6.343893e-01 3.085676e-01 1.104174e-01 3.085676e-01 6.343893e-01 5.333062e-01 1.926314e-01 2.342956e-01 -8.131133e-02 -8.220868e-01 -9.361504e-01 -8.264233e-01 -8.300417e-01 -5.439831e-01 -1.929948e-01 1.968501e-01 6.274856e-01 9.194737e-01 
8.834952e-01 7.608513e-01 5.020455e-01 1.281551e-01 -2.162475e-01 -5.116577e-01 -7.418788e-01 -8.444945e-01 -9.095240e-01 -7.069679e-01 1.354078e-01 5.010866e-01 -3.232419e-01 -5.808465e-01 3.690698e-01 1.253873e+00 1.485243e+00 1.253873e+00 3.690698e-01 -5.808465e-01 -3.232419e-01 5.010866e-01 1.354078e-01 -7.069679e-01 -9.095240e-01 -8.444945e-01 -7.418788e-01 -5.116577e-01 -2.162475e-01 1.281551e-01 5.020455e-01 7.608513e-01 
6.725198e-01 5.711085e-01 3.511041e-01 3.791081e-02 -2.566345e-01 -5.013939e-01 -6.798730e-01 -7.400629e-01 -7.265911e-01 -6.608912e-01 -1.158084e-01 9.635543e-01 1.125691e+00 1.539145e-01 -3.230282e-01 1.758599e-01 5.777600e-01 1.758599e-01 -3.230282e-01 1.539145e-01 1.125691e+00 9.635543e-01 -1.158084e-01 -6.608912e-01 -7.265911e-01 -7.400629e-01 -6.798730e-01 -5.013939e-01 -2.566345e-01 3.791081e-02 3.511041e-01 5.711085e-01 
4.801073e-01 3.988061e-01 2.177254e-01 -3.894976e-02 -2.888672e-01 -5.028676e-01 -6.719297e-01 -7.562063e-01 -7.881870e-01 -7.171023e-01 -5.329507e-01 1.460180e-01 1.112366e+00 1.435634e+00 7.489509e-01 3.466815e-02 -7.432212e-02 3.466815e-02 7.489509e-01 1.435634e+00 1.112366e+00 1.460180e-01 -5.329507e-01 -7.171023e-01 -7.881870e-01 -7.562063e-01 -6.719297e-01 -5.028676e-01 -2.888672e-01 -3.894976e-02 2.177254e-01 3.988061e-01 
3.047111e-01 2.420297e-01 9.937874e-02 -1.028005e-01 -3.049085e-01 -4.817036e-01 -6.223028e-01 -6.936467e-01 -7.094542e-01 -6.347805e-01 -5.124409e-01 -1.647009e-01 2.307349e-01 5.649480e-01 1.044752e+00 1.270654e+00 1.243771e+00 1.270654e+00 1.044752e+00 5.649480e-01 2.307349e-01 -1.647009e-01 -5.124409e-01 -6.347805e-01 -7.094542e-01 -6.936467e-01 -6.223028e-01 -4.817036e-01 -3.049085e-01 -1.028005e-01 9.937874e-02 2.420297e-01 
1.672237e-01 1.198336e-01 8.530499e-03 -1.512149e-01 -3.192914e-01 -4.744585e-01 -6.057856e-01 -6.793204e-01 -6.949403e-01 -6.108959e-01 -4.475964e-01 -1.422671e-01 2.691017e-01 6.744081e-01 1.024352e+00 1.263915e+00 1.364036e+00 1.263915e+00 1.024352e+00 6.744081e-01 2.691017e-01 -1.422671e-01 -4.475964e-01 -6.108959e-01 -6.949403e-01 -6.793204e-01 -6.057856e-01 -4.744585e-01 -3.192914e-01 -1.512149e-01 8.530499e-03 1.198336e-01 
6.931112e-02 3.480807e-02 -4.850534e-02 -1.705157e-01 -3.049888e-01 -4.352401e-01 -5.499067e-01 -6.191188e-01 -6.378330e-01 -5.729568e-01 -4.432104e-01 -2.074456e-01 1.031752e-01 4.937135e-01 1.042722e+00 1.476755e+00 1.607783e+00 1.476755e+00 1.042722e+00 4.937135e-01 1.031752e-01 -2.074456e-01 -4.432104e-01 -5.729568e-01 -6.378330e-01 -6.191188e-01 -5.499067e-01 -4.352401e-01 -3.049888e-01 -1.705157e-01 -4.850534e-02 3.480807e-02 
9.990419e-03 -1.444702e-02 -7.560030e-02 -1.672876e-01 -2.733021e-01 -3.803164e-01 -4.768987e-01 -5.370693e-01 -5.506890e-01 -4.927862e-01 -3.683384e-01 -1.621497e-01 1.181621e-01 4.713878e-01 9.030482e-01 1.282668e+00 1.437246e+00 1.282668e+00 9.030482e-01 4.713878e-01 1.181621e-01 -1.621497e-01 -3.683384e-01 -4.927862e-01 -5.506890e-01 -5.370693e-01 -4.768987e-01 -3.803164e-01 -2.733021e-01 -1.672876e-01 -7.560030e-02 -1.444702e-02 
-1.393593e-02 -2.960879e-02 -6.984031e-02 -1.314395e-01 -2.051761e-01 -2.818393e-01 -3.527704e-01 -3.991694e-01 -4.133934e-01 -3.776058e-01 -2.945351e-01 -1.503226e-01 5.704889e-02 3.343826e-01 7.003748e-01 1.035603e+00 1.170519e+00 1.035603e+00 7.003748e-01 3.343826e-01 5.704889e-02 -1.503226e-01 -2.945351e-01 -3.776058e-01 -4.133934e-01 -3.991694e-01 -3.527704e-01 -2.818393e-01 -2.051761e-01 -1.314395e-01 -6.984031e-02 -2.960879e-02 
-1.404664e-02 -2.183201e-02 -4.223416e-02 -7.386203e-02 -1.124619e-01 -1.530983e-01 -1.905887e-01 -2.148371e-01 -2.206890e-01 -1.997241e-01 -1.522754e-01 -7.377904e-02 3.738030e-02 1.855863e-01 3.713921e-01 5.515463e-01 6.330001e-01 5.515463e-01 3.713921e-01 1.855863e-01 3.738030e-02 -7.377904e-02 -1.522754e-01 -1.997241e-01 -2.206890e-01 -2.148371e-01 -1.905887e-01 -1.530983e-01 -1.124619e-01 -7.386203e-02 -4.223416e-02 -2.183201e-02 
