# vtk DataFile Version 2.0
Comment goes here
ASCII

DATASET STRUCTURED_POINTS
FIELD FieldData 1
TIME 1 1 double
0.70000000
DIMENSIONS    32   32   1

ORIGIN    0.000   0.000   0.000
SPACING   0.03125 0.03125   1.000

POINT_DATA   1024
SCALARS uY double
LOOKUP_TABLE default

-7.826301e-16 -6.800858e-15 -6.440134e-15 -8.798238e-15 -9.321453e-15 -7.698647e-15 -9.043602e-15 -5.599364e-15 -1.015721e-14 -6.854044e-15 -1.103500e-14 -3.234747e-15 3.173340e-15 7.625125e-15 4.370418e-15 5.634623e-15 -1.593069e-14 -8.957712e-15 -2.070759e-14 -6.498459e-15 -1.032622e-14 4.577801e-15 1.395832e-14 7.703815e-15 1.713035e-14 3.472411e-15 1.385308e-14 2.514366e-15 1.114473e-14 1.147913e-15 5.613285e-15 -2.706183e-15 
-6.557792e-02 -6.016445e-02 -4.660237e-02 -2.300202e-02 5.492988e-03 4.519719e-02 8.558802e-02 1.364582e-01 1.749044e-01 2.093184e-01 2.080045e-01 1.745355e-01 8.871353e-02 -5.346508e-02 -2.206741e-01 -4.288777e-01 -5.252760e-01 -4.288777e-01 -2.206741e-01 -5.346508e-02 8.871353e-02 1.745355e-01 2.080045e-01 2.093184e-01 1.749044e-01 1.364582e-01 8.558802e-02 4.519719e-02 5.492988e-03 -2.300202e-02 -4.660237e-02 -6.016445e-02 
-1.416768e-01 -1.311428e-01 -1.041920e-01 -5.890246e-02 -5.373804e-03 6.781945e-02 1.404758e-01 2.344131e-01 3.051358e-01 3.766818e-01 3.848235e-01 3.448957e-01 2.125939e-01 -3.729058e-02 -3.637080e-01 -7.964742e-01 -9.978336e-01 -7.964742e-01 -3.637080e-01 -3.729058e-02 2.125939e-01 3.448957e-01 3.848235e-01 3.766818e-01 3.051358e-01 2.344131e-01 1.404758e-01 6.781945e-02 -5.373804e-03 -5.890246e-02 -1.041920e-01 -1.311428e-01 
-2.315380e-01 -2.153798e-01 -1.731555e-01 -1.058212e-01 -2.892381e-02 7.170485e-02 1.671345e-01 2.921173e-01 3.830637e-01 4.858495e-01 5.043875e-01 4.775853e-01 3.229958e-01 2.473962e-02 -3.751289e-01 -1.030796e+00 -1.369208e+00 -1.030796e+00 -3.751289e-01 2.473962e-02 3.229958e-01 4.775853e-01 5.043875e-01 4.858495e-01 3.830637e-01 2.921173e-01 1.671345e-01 7.170485e-02 -2.892381e-02 -1.058212e-01 -1.731555e-01 -2.153798e-01 
-3.497179e-01 -3.279857e-01 -2.685314e-01 -1.808424e-01 -8.461898e-02 3.313065e-02 1.376517e-01 2.796214e-01 3.771486e-01 5.175871e-01 5.617108e-01 6.121559e-01 5.459006e-01 2.630099e-01 -2.810538e-01 -1.196677e+00 -1.626697e+00 -1.196677e+00 -2.810538e-01 2.630099e-01 5.459006e-01 6.121559e-01 5.617108e-01 5.175871e-01 3.771486e-01 2.796214e-01 1.376517e-01 3.313065e-02 -8.461898e-02 -1.808424e-01 -2.685314e-01 -3.279857e-01 
-4.932273e-01 -4.636508e-01 -3.795126e-01 -2.645456e-01 -1.431026e-01 -7.864124e-03 1.035036e-01 2.540702e-01 3.473440e-01 5.087977e-01 5.575803e-01 6.404576e-01 5.310902e-01 3.516683e-01 -4.006433e-02 -1.018933e+00 -1.460450e+00 -1.018933e+00 -4.006433e-02 3.516683e-01 5.310902e-01 6.404576e-01 5.575803e-01 5.087977e-01 3.473440e-01 2.540702e-01 1.035036e-01 -7.864124e-03 -1.431026e-01 -2.645456e-01 -3.795126e-01 -4.636508e-01 
-6.724407e-01 -6.344118e-01 -5.200370e-01 -3.769205e-01 -2.311150e-01 -9.006739e-02 1.441985e-02 1.536097e-01 2.193336e-01 3.968658e-01 3.846660e-01 6.255078e-01 8.940491e-01 6.879760e-01 -8.610834e-02 -7.625596e-01 -6.779758e-01 -7.625596e-01 -8.610834e-02 6.879760e-01 8.940491e-01 6.255078e-01 3.846660e-01 3.968658e-01 2.193336e-01 1.536097e-01 1.441985e-02 -9.006739e-02 -2.311150e-01 -3.769205e-01 -5.200370e-01 -6.344118e-01 
-8.794776e-01 -8.299185e-01 -6.739096e-01 -4.896692e-01 -3.058757e-01 -1.504515e-01 -4.330501e-02 8.471694e-02 1.482164e-01 3.402742e-01 4.143385e-01 7.735812e-01 2.370345e-01 -5.420742e-01 -2.748580e-03 8.135411e-01 1.331977e+00 8.135411e-01 -2.748580e-03 -5.420742e-01 2.370345e-01 7.735812e-01 4.143385e-01 3.402742e-01 1.482164e-01 8.471694e-02 -4.330501e-02 -1.504515e-01 -3.058757e-01 -4.896692e-01 -6.739096e-01 -8.299185e-01 
-1.099611e+00 -1.039556e+00 -8.385373e-01 -6.154465e-01 -3.966452e-01 -2.491194e-01 -1.572693e-01 -9.016439e-02 1.653943e-02 2.295205e-01 -1.333834e-01 -2.827940e-01 -1.434320e-02 7.978192e-01 1.415690e+00 1.249741e+00 1.315509e+00 1.249741e+00 1.415690e+00 7.978192e-01 -1.434320e-02 -2.827940e-01 -1.333834e-01 2.295205e-01 1.653943e-02 -9.016439e-02 -1.572693e-01 -2.491194e-01 -3.966452e-01 -6.154465e-01 -8.385373e-01 -1.039556e+00 
-1.325433e+00 -1.254570e+00 -1.001648e+00 -7.308129e-01 -4.662352e-01 -3.170636e-01 -2.478571e-01 -1.812331e-01 -2.291428e-02 -9.885418e-03 4.592002e-02 8.168974e-01 1.152975e+00 1.087759e+00 7.921256e-01 5.889087e-01 8.207001e-01 5.889087e-01 7.921256e-01 1.087759e+00 1.152975e+00 8.168974e-01 4.592002e-02 -9.885418e-03 -2.291428e-02 -1.812331e-01 -2.478571e-01 -3.170636e-01 -4.662352e-01 -7.308129e-01 -1.001648e+00 -1.254570e+00 
-1.500553e+00 -1.421434e+00 -1.120604e+00 -8.122821e-01 -5.183843e-01 -4.058343e-01 -4.214172e-01 -2.034416e-01 3.035729e-01 4.797154e-01 5.570404e-01 1.090147e+00 7.655370e-01 4.873470e-01 5.805652e-01 7.857833e-01 1.207933e+00 7.857833e-01 5.805652e-01 4.873470e-01 7.655370e-01 1.090147e+00 5.570404e-01 4.797154e-01 3.035729e-01 -2.034416e-01 -4.214172e-01 -4.058343e-01 -5.183843e-01 -8.122821e-01 -1.120604e+00 -1.421434e+00 
-1.645142e+00 -1.559890e+00 -1.213144e+00 -8.740810e-01 -5.380408e-01 -4.503313e-01 -2.507357e-01 5.829460e-01 6.710206e-01 2.923287e-01 4.710035e-01 6.636632e-01 4.569862e-01 5.230709e-01 6.862510e-01 8.222939e-01 1.078461e+00 8.222939e-01 6.862510e-01 5.230709e-01 4.569862e-01 6.636632e-01 4.710035e-01 2.923287e-01 6.710206e-01 5.829460e-01 -2.507357e-01 -4.503313e-01 -5.380408e-01 -8.740810e-01 -1.213144e+00 -1.559890e+00 
-1.649915e+00 -1.556548e+00 -1.170186e+00 -8.002206e-01 -3.775251e-01 -2.666561e-01 4.344639e-01 1.056503e+00 -1.690355e-01 -5.143550e-02 9.310037e-01 6.664631e-01 2.749852e-01 3.060840e-01 4.663698e-01 6.458098e-01 8.697630e-01 6.458098e-01 4.663698e-01 3.060840e-01 2.749852e-01 6.664631e-01 9.310037e-01 -5.143550e-02 -1.690355e-01 1.056503e+00 4.344639e-01 -2.666561e-01 -3.775251e-01 -8.002206e-01 -1.170186e+00 -1.556548e+00 
-1.576715e+00 -1.482478e+00 -1.100119e+00 -7.420358e-01 -3.166528e-01 -1.657810e-01 8.673535e-01 8.457299e-01 -8.035984e-01 5.178147e-01 1.361149e+00 3.436838e-01 1.290880e-01 2.096951e-01 3.456447e-01 4.733717e-01 6.109847e-01 4.733717e-01 3.456447e-01 2.096951e-01 1.290880e-01 3.436838e-01 1.361149e+00 5.178147e-01 -8.035984e-01 8.457299e-01 8.673535e-01 -1.657810e-01 -3.166528e-01 -7.420358e-01 -1.100119e+00 -1.482478e+00 
-1.252349e+00 -1.153417e+00 -8.190772e-01 -4.530924e-01 -8.711136e-02 2.182652e-01 8.864902e-01 1.810073e-01 -8.159649e-01 7.570445e-01 1.135656e+00 1.309682e-01 -6.911389e-04 6.591837e-02 1.572845e-01 2.533056e-01 3.391765e-01 2.533056e-01 1.572845e-01 6.591837e-02 -6.911389e-04 1.309682e-01 1.135656e+00 7.570445e-01 -8.159649e-01 1.810073e-01 8.864902e-01 2.182652e-01 -8.711136e-02 -4.530924e-01 -8.190772e-01 -1.153417e+00 
-7.444112e-01 -6.691390e-01 -4.530323e-01 -2.104499e-01 -3.670150e-02 1.946611e-01 4.605262e-01 -1.051839e-01 -3.452188e-01 6.360821e-01 6.346291e-01 3.589742e-02 -2.676529e-02 6.683247e-03 6.368961e-02 1.114488e-01 1.501571e-01 1.114488e-01 6.368961e-02 6.683247e-03 -2.676529e-02 3.589742e-02 6.346291e-01 6.360821e-01 -3.452188e-01 -1.051839e-01 4.605262e-01 1.946611e-01 -3.670150e-02 -2.104499e-01 -4.530323e-01 -6.691390e-01 
2.643462e-14 4.012807e-14 4.275201e-14 4.513420e-14 2.301631e-14 -9.887063e-16 -4.169768e-14 -8.959810e-14 -7.391793e-14 8.481234e-15 -2.197250e-14 -8.661281e-15 -2.466238e-14 5.605425e-15 -1.776388e-14 4.374927e-15 -1.639956e-14 -1.183944e-14 -1.502369e-14 -3.646197e-14 -2.127808e-14 -4.632194e-14 3.409533e-14 6.439456e-14 1.450635e-13 4.904299e-14 -3.376010e-14 -7.335821e-14 -4.517422e-14 2.189868e-15 1.578721e-14 2.340618e-14 
7.444112e-01 6.691390e-01 4.530323e-01 2.104499e-01 3.670150e-02 -1.946611e-01 -4.605262e-01 1.051839e-01 3.452188e-01 -6.360821e-01 -6.346291e-01 -3.589742e-02 2.676529e-02 -6.683247e-03 -6.368961e-02 -1.114488e-01 -1.501571e-01 -1.114488e-01 -6.368961e-02 -6.683247e-03 2.676529e-02 -3.589742e-02 -6.346291e-01 -6.360821e-01 3.452188e-01 1.051839e-01 -4.605262e-01 -1.946611e-01 3.670150e-02 2.104499e-01 4.530323e-01 6.691390e-01 
1.252349e+00 1.153417e+00 8.190772e-01 4.530924e-01 8.711136e-02 -2.182652e-01 -8.864902e-01 -1.810073e-01 8.159649e-01 -7.570445e-01 -1.135656e+00 -1.309682e-01 6.911389e-04 -6.591837e-02 -1.572845e-01 -2.533056e-01 -3.391765e-01 -2.533056e-01 -1.572845e-01 -6.591837e-02 6.911389e-04 -1.309682e-01 -1.135656e+00 -7.570445e-01 8.159649e-01 -1.810073e-01 -8.864902e-01 -2.182652e-01 8.711136e-02 4.530924e-01 8.190772e-01 1.153417e+00 
1.576715e+00 1.482478e+00 1.100119e+00 7.420358e-01 3.166528e-01 1.657810e-01 -8.673535e-01 -8.457299e-01 8.035984e-01 -5.178147e-01 -1.361149e+00 -3.436838e-01 -1.290880e-01 -2.096951e-01 -3.456447e-01 -4.733717e-01 -6.109847e-01 -4.733717e-01 -3.456447e-01 -2.096951e-01 -1.290880e-01 -3.436838e-01 -1.361149e+00 -5.178147e-01 8.035984e-01 -8.457299e-01 -8.673535e-01 1.657810e-01 3.166528e-01 7.420358e-01 1.100119e+00 1.482478e+00 
1.649915e+00 1.556548e+00 1.170186e+00 8.002206e-01 3.775251e-01 2.666561e-01 -4.344639e-01 -1.056503e+00 1.690355e-01 5.143550e-02 -9.310037e-01 -6.664631e-01 -2.749852e-01 -3.060840e-01 -4.663698e-01 -6.458098e-01 -8.697630e-01 -6.458098e-01 -4.663698e-01 -3.060840e-01 -2.749852e-01 -6.664631e-01 -9.310037e-01 5.143550e-02 1.690355e-01 -1.056503e+00 -4.344639e-01 2.666561e-01 3.775251e-01 8.002206e-01 1.170186e+00 1.556548e+00 
1.645142e+00 1.559890e+00 1.213144e+00 8.740810e-01 5.380408e-01 4.503313e-01 2.507357e-01 -5.829460e-01 -6.710206e-01 -2.923287e-01 -4.710035e-01 -6.636632e-01 -4.569862e-01 -5.230709e-01 -6.862510e-01 -8.222939e-01 -1.078461e+00 -8.222939e-01 -6.862510e-01 -5.230709e-01 -4.569862e-01 -6.636632e-01 -4.710035e-01 -2.923287e-01 -6.710206e-01 -5.829460e-01 2.507357e-01 4.503313e-01 5.380408e-01 8.740810e-01 1.213144e+00 1.559890e+00 
1.500553e+00 1.421434e+00 1.120604e+00 8.122821e-01 5.183843e-01 4.058343e-01 4.214172e-01 2.034416e-01 -3.035729e-01 -4.797154e-01 -5.570404e-01 -1.090147e+00 -7.655370e-01 -4.873470e-01 -5.805652e-01 -7.857833e-01 -1.207933e+00 -7.857833e-01 -5.805652e-01 -4.873470e-01 -7.655370e-01 -1.090147e+00 -5.570404e-01 -4.797154e-01 -3.035729e-01 2.034416e-01 4.214172e-01 4.058343e-01 5.183843e-01 8.122821e-01 1.120604e+00 1.421434e+00 
1.325433e+00 1.254570e+00 1.001648e+00 7.308129e-01 4.662352e-01 3.170636e-01 2.478571e-01 1.812331e-01 2.291428e-02 9.885418e-03 -4.592002e-02 -8.168974e-01 -1.152975e+00 -1.087759e+00 -7.921256e-01 -5.889087e-01 -8.207001e-01 -5.889087e-01 -7.921256e-01 -1.087759e+00 -1.152975e+00 -8.168974e-01 -4.592002e-02 9.885418e-03 2.291428e-02 1.812331e-01 2.478571e-01 3.170636e-01 4.662352e-01 7.308129e-01 1.001648e+00 1.254570e+00 
1.099611e+00 1.039556e+00 8.385373e-01 6.154465e-01 3.966452e-01 2.491194e-01 1.572693e-01 9.016439e-02 -1.653943e-02 -2.295205e-01 1.333834e-01 2.827940e-01 1.434320e-02 -7.978192e-01 -1.415690e+00 -1.249741e+00 -1.315509e+00 -1.249741e+00 -1.415690e+00 -7.978192e-01 1.434320e-02 2.827940e-01 1.333834e-01 -2.295205e-01 -1.653943e-02 9.016439e-02 1.572693e-01 2.491194e-01 3.966452e-01 6.154465e-01 8.385373e-01 1.039556e+00 
8.794776e-01 8.299185e-01 6.739096e-01 4.896692e-01 3.058757e-01 1.504515e-01 4.330501e-02 -8.471694e-02 -1.482164e-01 -3.402742e-01 -4.143385e-01 -7.735812e-01 -2.370345e-01 5.420742e-01 2.748580e-03 -8.135411e-01 -1.331977e+00 -8.135411e-01 2.748580e-03 5.420742e-01 -2.370345e-01 -7.735812e-01 -4.143385e-01 -3.402742e-01 -1.482164e-01 -8.471694e-02 4.330501e-02 1.504515e-01 3.058757e-01 4.896692e-01 6.739096e-01 8.299185e-01 
6.724407e-01 6.344118e-01 5.200370e-01 3.769205e-01 2.311150e-01 9.006739e-02 -1.441985e-02 -1.536097e-01 -2.193336e-01 -3.968658e-01 -3.846660e-01 -6.255078e-01 -8.940491e-01 -6.879760e-01 8.610834e-02 7.625596e-01 6.779758e-01 7.625596e-01 8.610834e-02 -6.879760e-01 -8.940491e-01 -6.255078e-01 -3.846660e-01 -3.968658e-01 -2.193336e-01 -1.536097e-01 -1.441985e-02 9.006739e-02 2.311150e-01 3.769205e-01 5.200370e-01 6.344118e-01 
4.932273e-01 4.636508e-01 3.795126e-01 2.645456e-01 1.431026e-01 7.864124e-03 -1.035036e-01 -2.540702e-01 -3.473440e-01 -5.087977e-01 -5.575803e-01 -6.404576e-01 -5.310902e-01 -3.516683e-01 4.006433e-02 1.018933e+00 1.460450e+00 1.018933e+00 4.006433e-02 -3.516683e-01 -5.310902e-01 -6.404576e-01 -5.575803e-01 -5.087977e-01 -3.473440e-01 -2.540702e-01 -1.035036e-01 7.864124e-03 1.431026e-01 2.645456e-01 3.795126e-01 4.636508e-01 
3.497179e-01 3.279857e-01 2.685314e-01 1.808424e-01 8.461898e-02 -3.313065e-02 -1.376517e-01 -2.796214e-01 -3.771486e-01 -5.175871e-01 -5.617108e-01 -6.121559e-01 -5.459006e-01 -2.630099e-01 2.810538e-01 1.196677e+00 1.626697e+00 1.196677e+00 2.810538e-01 -2.630099e-01 -5.459006e-01 -6.121559e-01 -5.617108e-01 -5.175871e-01 -3.771486e-01 -2.796214e-01 -1.376517e-01 -3.313065e-02 8.461898e-02 1.808424e-01 2.685314e-01 3.279857e-01 
2.315380e-01 2.153798e-01 1.731555e-01 1.058212e-01 2.892381e-02 -7.170485e-02 -1.671345e-01 -2.921173e-01 -3.830637e-01 -4.858495e-01 -5.043875e-01 -4.775853e-01 -3.229958e-01 -2.473962e-02 3.751289e-01 1.030796e+00 1.369208e+00 1.030796e+00 3.751289e-01 -2.473962e-02 -3.229958e-01 -4.775853e-01 -5.043875e-01 -4.858495e-01 -3.830637e-01 -2.921173e-01 -1.671345e-01 -7.170485e-02 2.892381e-02 1.058212e-01 1.731555e-01 2.153798e-01 
1.416768e-01 1.311428e-01 1.041920e-01 5.890246e-02 5.373804e-03 -6.781945e-02 -1.404758e-01 -2.344131e-01 -3.051358e-01 -3.766818e-01 -3.848235e-01 -3.448957e-01 -2.125939e-01 3.729058e-02 3.637080e-01 7.964742e-01 9.978336e-01 7.964742e-01 3.637080e-01 3.729058e-02 -2.125939e-01 -3.448957e-01 -3.848235e-01 -3.766818e-01 -3.051358e-01 -2.344131e-01 -1.404758e-01 -6.781945e-02 5.373804e-03 5.890246e-02 1.041920e-01 1.311428e-01 
6.557792e-02 6.016445e-02 4.660237e-02 2.300202e-02 -5.492988e-03 -4.519719e-02 -8.558802e-02 -1.364582e-01 -1.749044e-01 -2.093184e-01 -2.080045e-01 -1.745355e-01 -8.871353e-02 5.346508e-02 2.206741e-01 4.288777e-01 5.252760e-01 4.288777e-01 2.206741e-01 5.346508e-02 -8.871353e-02 -1.745355e-01 -2.080045e-01 -2.093184e-01 -1.749044e-01 -1.364582e-01 -8.558802e-02 -4.519719e-02 -5.492988e-03 2.300202e-02 4.660237e-02 6.016445e-02 
