# vtk DataFile Version 2.0
Comment goes here
ASCII

DATASET STRUCTURED_POINTS
FIELD FieldData 1
TIME 1 1 double
1.30000000
DIMENSIONS    32   32   1

ORIGIN    0.000   0.000   0.000
SPACING   0.03125 0.03125   1.000

POINT_DATA   1024
SCALARS uY double
LOOKUP_TABLE default

-1.441601e-13 -1.721590e-13 -2.154311e-13 -2.416983e-13 -2.630093e-13 -2.911752e-13 -2.698678e-13 -2.181588e-13 -3.445067e-14 2.190152e-13 5.964366e-13 9.776074e-13 1.346716e-12 1.550419e-12 1.528013e-12 9.726216e-13 1.125018e-13 -8.575262e-13 -1.522866e-12 -1.737759e-12 -1.600098e-12 -1.309170e-12 -9.230063e-13 -5.331559e-13 -2.428777e-13 -7.249974e-15 6.006838e-14 1.155006e-13 5.294940e-14 4.001139e-14 -4.462216e-14 -7.176635e-14 
-3.196658e-02 -2.426693e-02 1.208936e-04 3.437303e-02 7.518349e-02 1.149505e-01 1.488133e-01 1.704598e-01 1.751255e-01 1.607286e-01 1.232219e-01 6.529656e-02 -2.149329e-02 -1.298681e-01 -2.682799e-01 -3.916735e-01 -4.334173e-01 -3.916735e-01 -2.682799e-01 -1.298681e-01 -2.149329e-02 6.529656e-02 1.232219e-01 1.607286e-01 1.751255e-01 1.704598e-01 1.488133e-01 1.149505e-01 7.518349e-02 3.437303e-02 1.208936e-04 -2.426693e-02 
-7.693625e-02 -6.154596e-02 -1.325049e-02 5.438173e-02 1.335215e-01 2.110000e-01 2.750006e-01 3.177015e-01 3.256274e-01 3.005986e-01 2.310508e-01 1.236452e-01 -3.166664e-02 -2.337565e-01 -4.870749e-01 -7.120246e-01 -7.894802e-01 -7.120246e-01 -4.870749e-01 -2.337565e-01 -3.166664e-02 1.236452e-01 2.310508e-01 3.005986e-01 3.256274e-01 3.177015e-01 2.750006e-01 2.110000e-01 1.335215e-01 5.438173e-02 -1.325049e-02 -6.154596e-02 
-1.539150e-01 -1.307225e-01 -5.767608e-02 4.263311e-02 1.600077e-01 2.715634e-01 3.661675e-01 4.265660e-01 4.429790e-01 4.109820e-01 3.231454e-01 1.911585e-01 -5.015719e-03 -2.501683e-01 -6.180271e-01 -9.620122e-01 -1.069246e+00 -9.620122e-01 -6.180271e-01 -2.501683e-01 -5.015719e-03 1.911585e-01 3.231454e-01 4.109820e-01 4.429790e-01 4.265660e-01 3.661675e-01 2.715634e-01 1.600077e-01 4.263311e-02 -5.767608e-02 -1.307225e-01 
-2.580051e-01 -2.267648e-01 -1.286593e-01 4.215257e-03 1.562514e-01 2.994692e-01 4.164002e-01 4.951072e-01 5.129439e-01 4.826973e-01 3.796907e-01 2.307782e-01 3.017727e-02 -2.433501e-01 -6.556286e-01 -1.042152e+00 -1.164346e+00 -1.042152e+00 -6.556286e-01 -2.433501e-01 3.017727e-02 2.307782e-01 3.796907e-01 4.826973e-01 5.129439e-01 4.951072e-01 4.164002e-01 2.994692e-01 1.562514e-01 4.215257e-03 -1.286593e-01 -2.267648e-01 
-4.076083e-01 -3.672246e-01 -2.419707e-01 -7.521614e-02 1.141771e-01 2.853419e-01 4.286360e-01 5.183837e-01 5.509632e-01 5.229064e-01 4.312549e-01 2.983865e-01 1.369870e-01 -5.389240e-02 -5.871001e-01 -1.128685e+00 -1.258287e+00 -1.128685e+00 -5.871001e-01 -5.389240e-02 1.369870e-01 2.983865e-01 4.312549e-01 5.229064e-01 5.509632e-01 5.183837e-01 4.286360e-01 2.853419e-01 1.141771e-01 -7.521614e-02 -2.419707e-01 -3.672246e-01 
-5.735424e-01 -5.241489e-01 -3.700647e-01 -1.690037e-01 5.618231e-02 2.548357e-01 4.150879e-01 5.212103e-01 5.505329e-01 5.485650e-01 4.426117e-01 2.951179e-01 1.457913e-01 -8.585410e-02 -5.038169e-01 -8.407222e-01 -8.991067e-01 -8.407222e-01 -5.038169e-01 -8.585410e-02 1.457913e-01 2.951179e-01 4.426117e-01 5.485650e-01 5.505329e-01 5.212103e-01 4.150879e-01 2.548357e-01 5.618231e-02 -1.690037e-01 -3.700647e-01 -5.241489e-01 
-7.746639e-01 -7.135353e-01 -5.305153e-01 -2.929752e-01 -3.077288e-02 1.910815e-01 3.735586e-01 4.773788e-01 5.199835e-01 5.069317e-01 4.065589e-01 2.659515e-01 3.361178e-01 4.202564e-01 -2.656646e-01 -8.550893e-01 -8.438682e-01 -8.550893e-01 -2.656646e-01 4.202564e-01 3.361178e-01 2.659515e-01 4.065589e-01 5.069317e-01 5.199835e-01 4.773788e-01 3.735586e-01 1.910815e-01 -3.077288e-02 -2.929752e-01 -5.305153e-01 -7.135353e-01 
-9.573232e-01 -8.863157e-01 -6.724619e-01 -4.024381e-01 -1.044296e-01 1.331276e-01 3.292729e-01 4.335775e-01 4.594896e-01 5.474913e-01 3.538025e-01 2.211642e-01 4.850867e-02 -5.441757e-01 -3.879883e-01 4.975690e-01 9.049354e-01 4.975690e-01 -3.879883e-01 -5.441757e-01 4.850867e-02 2.211642e-01 3.538025e-01 5.474913e-01 4.594896e-01 4.335775e-01 3.292729e-01 1.331276e-01 -1.044296e-01 -4.024381e-01 -6.724619e-01 -8.863157e-01 
-1.146679e+00 -1.061302e+00 -8.232313e-01 -5.178684e-01 -1.924222e-01 5.921736e-02 2.671943e-01 3.477316e-01 3.873789e-01 4.581496e-01 -4.067168e-02 -3.285340e-01 -2.280230e-01 1.930213e-01 9.487008e-01 8.495844e-01 5.088269e-01 8.495844e-01 9.487008e-01 1.930213e-01 -2.280230e-01 -3.285340e-01 -4.067168e-02 4.581496e-01 3.873789e-01 3.477316e-01 2.671943e-01 5.921736e-02 -1.924222e-01 -5.178684e-01 -8.232313e-01 -1.061302e+00 
-1.268069e+00 -1.173841e+00 -9.128704e-01 -5.837307e-01 -2.297503e-01 9.805421e-03 2.313861e-01 2.034818e-01 2.833007e-01 4.325133e-01 1.608637e-01 3.551509e-01 7.182603e-01 7.672600e-01 4.497971e-01 -1.064004e-02 -1.339057e-01 -1.064004e-02 4.497971e-01 7.672600e-01 7.182603e-01 3.551509e-01 1.608637e-01 4.325133e-01 2.833007e-01 2.034818e-01 2.313861e-01 9.805421e-03 -2.297503e-01 -5.837307e-01 -9.128704e-01 -1.173841e+00 
-1.358730e+00 -1.253751e+00 -9.907364e-01 -6.382606e-01 -2.822457e-01 -2.964692e-02 1.884962e-01 1.853217e-01 7.699192e-01 7.677464e-01 8.707804e-02 4.023916e-01 3.207858e-01 2.214004e-02 1.148614e-01 5.440584e-01 9.424131e-01 5.440584e-01 1.148614e-01 2.214004e-02 3.207858e-01 4.023916e-01 8.707804e-02 7.677464e-01 7.699192e-01 1.853217e-01 1.884962e-01 -2.964692e-02 -2.822457e-01 -6.382606e-01 -9.907364e-01 -1.253751e+00 
-1.328052e+00 -1.222733e+00 -9.695668e-01 -6.094527e-01 -2.464836e-01 4.715218e-02 3.132184e-01 3.496260e-01 9.894593e-01 6.049308e-01 -1.810804e-01 4.012346e-01 2.578591e-01 9.111247e-02 2.061691e-01 3.381298e-01 5.889022e-01 3.381298e-01 2.061691e-01 9.111247e-02 2.578591e-01 4.012346e-01 -1.810804e-01 6.049308e-01 9.894593e-01 3.496260e-01 3.132184e-01 4.715218e-02 -2.464836e-01 -6.094527e-01 -9.695668e-01 -1.222733e+00 
-1.223119e+00 -1.126812e+00 -9.208089e-01 -5.898208e-01 -3.036115e-01 2.782829e-02 1.522135e-01 6.664303e-01 1.527555e+00 -4.241857e-02 -4.911667e-01 7.673463e-01 3.001134e-01 2.927038e-04 9.857561e-02 2.971541e-01 4.973781e-01 2.971541e-01 9.857561e-02 2.927038e-04 3.001134e-01 7.673463e-01 -4.911667e-01 -4.241857e-02 1.527555e+00 6.664303e-01 1.522135e-01 2.782829e-02 -3.036115e-01 -5.898208e-01 -9.208089e-01 -1.126812e+00 
-9.478114e-01 -8.723895e-01 -7.306392e-01 -4.611164e-01 -2.565861e-01 1.151370e-01 1.629000e-01 9.263232e-01 1.057909e+00 -8.278006e-01 -2.100530e-04 9.135887e-01 6.606034e-02 5.422663e-02 5.496814e-02 1.520309e-01 2.390079e-01 1.520309e-01 5.496814e-02 5.422663e-02 6.606034e-02 9.135887e-01 -2.100530e-04 -8.278006e-01 1.057909e+00 9.263232e-01 1.629000e-01 1.151370e-01 -2.565861e-01 -4.611164e-01 -7.306392e-01 -8.723895e-01 
-5.404190e-01 -5.004239e-01 -4.207208e-01 -2.658853e-01 -1.269526e-01 1.051688e-01 1.865947e-01 5.769150e-01 3.290861e-01 -4.446066e-01 3.865254e-01 4.888178e-01 -1.073022e-01 -2.285502e-02 -2.694092e-02 6.286928e-02 9.983974e-02 6.286928e-02 -2.694092e-02 -2.285502e-02 -1.073022e-01 4.888178e-01 3.865254e-01 -4.446066e-01 3.290861e-01 5.769150e-01 1.865947e-01 1.051688e-01 -1.269526e-01 -2.658853e-01 -4.207208e-01 -5.004239e-01 
5.954031e-13 2.732799e-13 4.621445e-14 -1.754135e-13 -2.595200e-13 -2.560850e-13 -3.117055e-14 6.233791e-13 3.627830e-13 -4.232180e-13 1.920550e-12 2.234370e-12 1.000699e-12 8.142654e-13 6.320811e-13 1.351963e-13 -7.975700e-14 -5.909907e-13 -1.199833e-12 -1.616139e-12 -1.795068e-12 -5.336515e-13 1.454246e-12 2.134700e-12 -2.228185e-12 -4.311095e-12 -3.024544e-12 -1.469321e-12 1.555852e-14 7.482540e-13 1.026838e-12 8.478248e-13 
5.404190e-01 5.004239e-01 4.207208e-01 2.658853e-01 1.269526e-01 -1.051688e-01 -1.865947e-01 -5.769150e-01 -3.290861e-01 4.446066e-01 -3.865254e-01 -4.888178e-01 1.073022e-01 2.285502e-02 2.694092e-02 -6.286928e-02 -9.983974e-02 -6.286928e-02 2.694092e-02 2.285502e-02 1.073022e-01 -4.888178e-01 -3.865254e-01 4.446066e-01 -3.290861e-01 -5.769150e-01 -1.865947e-01 -1.051688e-01 1.269526e-01 2.658853e-01 4.207208e-01 5.004239e-01 
9.478114e-01 8.723895e-01 7.306392e-01 4.611164e-01 2.565861e-01 -1.151370e-01 -1.629000e-01 -9.263232e-01 -1.057909e+00 8.278006e-01 2.100530e-04 -9.135887e-01 -6.606034e-02 -5.422663e-02 -5.496814e-02 -1.520309e-01 -2.390079e-01 -1.520309e-01 -5.496814e-02 -5.422663e-02 -6.606034e-02 -9.135887e-01 2.100530e-04 8.278006e-01 -1.057909e+00 -9.263232e-01 -1.629000e-01 -1.151370e-01 2.565861e-01 4.611164e-01 7.306392e-01 8.723895e-01 
1.223119e+00 1.126812e+00 9.208089e-01 5.898208e-01 3.036115e-01 -2.782829e-02 -1.522135e-01 -6.664303e-01 -1.527555e+00 4.241857e-02 4.911667e-01 -7.673463e-01 -3.001134e-01 -2.927038e-04 -9.857561e-02 -2.971541e-01 -4.973781e-01 -2.971541e-01 -9.857561e-02 -2.927038e-04 -3.001134e-01 -7.673463e-01 4.911667e-01 4.241857e-02 -1.527555e+00 -6.664303e-01 -1.522135e-01 -2.782829e-02 3.036115e-01 5.898208e-01 9.208089e-01 1.126812e+00 
1.328052e+00 1.222733e+00 9.695668e-01 6.094527e-01 2.464836e-01 -4.715218e-02 -3.132184e-01 -3.496260e-01 -9.894593e-01 -6.049308e-01 1.810804e-01 -4.012346e-01 -2.578591e-01 -9.111247e-02 -2.061691e-01 -3.381298e-01 -5.889022e-01 -3.381298e-01 -2.061691e-01 -9.111247e-02 -2.578591e-01 -4.012346e-01 1.810804e-01 -6.049308e-01 -9.894593e-01 -3.496260e-01 -3.132184e-01 -4.715218e-02 2.464836e-01 6.094527e-01 9.695668e-01 1.222733e+00 
1.358730e+00 1.253751e+00 9.907364e-01 6.382606e-01 2.822457e-01 2.964692e-02 -1.884962e-01 -1.853217e-01 -7.699192e-01 -7.677464e-01 -8.707804e-02 -4.023916e-01 -3.207858e-01 -2.214004e-02 -1.148614e-01 -5.440584e-01 -9.424131e-01 -5.440584e-01 -1.148614e-01 -2.214004e-02 -3.207858e-01 -4.023916e-01 -8.707804e-02 -7.677464e-01 -7.699192e-01 -1.853217e-01 -1.884962e-01 2.964692e-02 2.822457e-01 6.382606e-01 9.907364e-01 1.253751e+00 
1.268069e+00 1.173841e+00 9.128704e-01 5.837307e-01 2.297503e-01 -9.805421e-03 -2.313861e-01 -2.034818e-01 -2.833007e-01 -4.325133e-01 -1.608637e-01 -3.551509e-01 -7.182603e-01 -7.672600e-01 -4.497971e-01 1.064004e-02 1.339057e-01 1.064004e-02 -4.497971e-01 -7.672600e-01 -7.182603e-01 -3.551509e-01 -1.608637e-01 -4.325133e-01 -2.833007e-01 -2.034818e-01 -2.313861e-01 -9.805421e-03 2.297503e-01 5.837307e-01 9.128704e-01 1.173841e+00 
1.146679e+00 1.061302e+00 8.232313e-01 5.178684e-01 1.924222e-01 -5.921736e-02 -2.671943e-01 -3.477316e-01 -3.873789e-01 -4.581496e-01 4.067168e-02 3.285340e-01 2.280230e-01 -1.930213e-01 -9.487008e-01 -8.495844e-01 -5.088269e-01 -8.495844e-01 -9.487008e-01 -1.930213e-01 2.280230e-01 3.285340e-01 4.067168e-02 -4.581496e-01 -3.873789e-01 -3.477316e-01 -2.671943e-01 -5.921736e-02 1.924222e-01 5.178684e-01 8.232313e-01 1.061302e+00 
9.573232e-01 8.863157e-01 6.724619e-01 4.024381e-01 1.044296e-01 -1.331276e-01 -3.292729e-01 -4.335775e-01 -4.594896e-01 -5.474913e-01 -3.538025e-01 -2.211642e-01 -4.850867e-02 5.441757e-01 3.879883e-01 -4.975690e-01 -9.049354e-01 -4.975690e-01 3.879883e-01 5.441757e-01 -4.850867e-02 -2.211642e-01 -3.538025e-01 -5.474913e-01 -4.594896e-01 -4.335775e-01 -3.292729e-01 -1.331276e-01 1.044296e-01 4.024381e-01 6.724619e-01 8.863157e-01 
7.746639e-01 7.135353e-01 5.305153e-01 2.929752e-01 3.077288e-02 -1.910815e-01 -3.735586e-01 -4.773788e-01 -5.199835e-01 -5.069317e-01 -4.065589e-01 -2.659515e-01 -3.361178e-01 -4.202564e-01 2.656646e-01 8.550893e-01 8.438682e-01 8.550893e-01 2.656646e-01 -4.202564e-01 -3.361178e-01 -2.659515e-01 -4.065589e-01 -5.069317e-01 -5.199835e-01 -4.773788e-01 -3.735586e-01 -1.910815e-01 3.077288e-02 2.929752e-01 5.305153e-01 7.135353e-01 
5.735424e-01 5.241489e-01 3.700647e-01 1.690037e-01 -5.618231e-02 -2.548357e-01 -4.150879e-01 -5.212103e-01 -5.505329e-01 -5.485650e-01 -4.426117e-01 -2.951179e-01 -1.457913e-01 8.585410e-02 5.038169e-01 8.407222e-01 8.991067e-01 8.407222e-01 5.038169e-01 8.585410e-02 -1.457913e-01 -2.951179e-01 -4.426117e-01 -5.485650e-01 -5.505329e-01 -5.212103e-01 -4.150879e-01 -2.548357e-01 -5.618231e-02 1.690037e-01 3.700647e-01 5.241489e-01 
4.076083e-01 3.672246e-01 2.419707e-01 7.521614e-02 -1.141771e-01 -2.853419e-01 -4.286360e-01 -5.183837e-01 -5.509632e-01 -5.229064e-01 -4.312549e-01 -2.983865e-01 -1.369870e-01 5.389240e-02 5.871001e-01 1.128685e+00 1.258287e+00 1.128685e+00 5.871001e-01 5.389240e-02 -1.369870e-01 -2.983865e-01 -4.312549e-01 -5.229064e-01 -5.509632e-01 -5.183837e-01 -4.286360e-01 -2.853419e-01 -1.141771e-01 7.521614e-02 2.419707e-01 3.672246e-01 
2.580051e-01 2.267648e-01 1.286593e-01 -4.215257e-03 -1.562514e-01 -2.994692e-01 -4.164002e-01 -4.951072e-01 -5.129439e-01 -4.826973e-01 -3.796907e-01 -2.307782e-01 -3.017727e-02 2.433501e-01 6.556286e-01 1.042152e+00 1.164346e+00 1.042152e+00 6.556286e-01 2.433501e-01 -3.017727e-02 -2.307782e-01 -3.796907e-01 -4.826973e-01 -5.129439e-01 -4.951072e-01 -4.164002e-01 -2.994692e-01 -1.562514e-01 -4.215257e-03 1.286593e-01 2.267648e-01 
1.539150e-01 1.307225e-01 5.767608e-02 -4.263311e-02 -1.600077e-01 -2.715634e-01 -3.661675e-01 -4.265660e-01 -4.429790e-01 -4.109820e-01 -3.231454e-01 -1.911585e-01 5.015719e-03 2.501683e-01 6.180271e-01 9.620122e-01 1.069246e+00 9.620122e-01 6.180271e-01 2.501683e-01 5.015719e-03 -1.911585e-01 -3.231454e-01 -4.109820e-01 -4.429790e-01 -4.265660e-01 -3.661675e-01 -2.715634e-01 -1.600077e-01 -4.263311e-02 5.767608e-02 1.307225e-01 
7.693625e-02 6.154596e-02 1.325049e-02 -5.438173e-02 -1.335215e-01 -2.110000e-01 -2.750006e-01 -3.177015e-01 -3.256274e-01 -3.005986e-01 -2.310508e-01 -1.236452e-01 3.166664e-02 2.337565e-01 4.870749e-01 7.120246e-01 7.894802e-01 7.120246e-01 4.870749e-01 2.337565e-01 3.166664e-02 -1.236452e-01 -2.310508e-01 -3.005986e-01 -3.256274e-01 -3.177015e-01 -2.750006e-01 -2.110000e-01 -1.335215e-01 -5.438173e-02 1.325049e-02 6.154596e-02 
3.196658e-02 2.426693e-02 -1.208936e-04 -3.437303e-02 -7.518349e-02 -1.149505e-01 -1.488133e-01 -1.704598e-01 -1.751255e-01 -1.607286e-01 -1.232219e-01 -6.529656e-02 2.149329e-02 1.298681e-01 2.682799e-01 3.916735e-01 4.334173e-01 3.916735e-01 2.682799e-01 1.298681e-01 2.149329e-02 -6.529656e-02 -1.232219e-01 -1.607286e-01 -1.751255e-01 -1.704598e-01 -1.488133e-01 -1.149505e-01 -7.518349e-02 -3.437303e-02 -1.208936e-04 2.426693e-02 
