# vtk DataFile Version 2.0
Comment goes here
ASCII

DATASET STRUCTURED_POINTS
FIELD FieldData 1
TIME 1 1 double
0.76000000
DIMENSIONS    32   32   1

ORIGIN    0.000   0.000   0.000
SPACING   0.03125 0.03125   1.000

POINT_DATA   1024
SCALARS uY double
LOOKUP_TABLE default

-3.908304e-15 -2.720656e-15 -6.387142e-15 -3.215227e-15 -7.477196e-15 -1.027061e-15 -7.224246e-15 3.858138e-16 -9.821137e-15 -4.346917e-16 -5.658574e-15 1.193899e-14 1.359963e-14 2.256245e-14 2.392716e-14 5.132297e-15 -4.998312e-15 -3.292032e-14 -1.497368e-14 -2.120156e-14 -3.911203e-15 7.715553e-17 1.173242e-14 1.321495e-14 1.229375e-14 9.423201e-15 6.283740e-15 4.875693e-15 3.424788e-15 2.263330e-15 2.325220e-16 -8.897623e-16 
4.598244e-02 5.163310e-02 6.700793e-02 9.171492e-02 1.210478e-01 1.567348e-01 1.895196e-01 2.188176e-01 2.281395e-01 2.147498e-01 1.659327e-01 8.698676e-02 -2.946451e-02 -1.845368e-01 -3.931354e-01 -6.361002e-01 -7.440777e-01 -6.361002e-01 -3.931354e-01 -1.845368e-01 -2.946451e-02 8.698676e-02 1.659327e-01 2.147498e-01 2.281395e-01 2.188176e-01 1.895196e-01 1.567348e-01 1.210478e-01 9.171492e-02 6.700793e-02 5.163310e-02 
8.047747e-02 9.152130e-02 1.224661e-01 1.703475e-01 2.258916e-01 2.916153e-01 3.500313e-01 4.021205e-01 4.171950e-01 3.929558e-01 3.048444e-01 1.641633e-01 -4.347547e-02 -3.276193e-01 -7.296844e-01 -1.185104e+00 -1.375014e+00 -1.185104e+00 -7.296844e-01 -3.276193e-01 -4.347547e-02 1.641633e-01 3.048444e-01 3.929558e-01 4.171950e-01 4.021205e-01 3.500313e-01 2.916153e-01 2.258916e-01 1.703475e-01 1.224661e-01 9.152130e-02 
9.943418e-02 1.170560e-01 1.662002e-01 2.397361e-01 3.214426e-01 4.146429e-01 4.927838e-01 5.611396e-01 5.759736e-01 5.376967e-01 4.080956e-01 2.064762e-01 -9.137371e-02 -4.839231e-01 -1.023146e+00 -1.592825e+00 -1.799387e+00 -1.592825e+00 -1.023146e+00 -4.839231e-01 -9.137371e-02 2.064762e-01 4.080956e-01 5.376967e-01 5.759736e-01 5.611396e-01 4.927838e-01 4.146429e-01 3.214426e-01 2.397361e-01 1.662002e-01 1.170560e-01 
8.735678e-02 1.116394e-01 1.825948e-01 2.821671e-01 3.882862e-01 5.018841e-01 5.884625e-01 6.604485e-01 6.614626e-01 6.017488e-01 4.299293e-01 1.900219e-01 -1.290589e-01 -5.599810e-01 -1.195656e+00 -1.787929e+00 -1.939398e+00 -1.787929e+00 -1.195656e+00 -5.599810e-01 -1.290589e-01 1.900219e-01 4.299293e-01 6.017488e-01 6.614626e-01 6.604485e-01 5.884625e-01 5.018841e-01 3.882862e-01 2.821671e-01 1.825948e-01 1.116394e-01 
4.476386e-02 7.913360e-02 1.808032e-01 3.178087e-01 4.578431e-01 6.005559e-01 7.001149e-01 7.802283e-01 7.703983e-01 6.905890e-01 4.686789e-01 1.578647e-01 -2.736042e-01 -7.994596e-01 -1.402182e+00 -1.826720e+00 -1.848869e+00 -1.826720e+00 -1.402182e+00 -7.994596e-01 -2.736042e-01 1.578647e-01 4.686789e-01 6.905890e-01 7.703983e-01 7.802283e-01 7.001149e-01 6.005559e-01 4.578431e-01 3.178087e-01 1.808032e-01 7.913360e-02 
-3.928771e-02 5.667186e-03 1.467917e-01 3.265350e-01 5.069159e-01 6.797795e-01 7.898622e-01 8.756672e-01 8.448180e-01 7.279731e-01 3.941659e-01 -8.068391e-03 -3.951617e-01 -8.666464e-01 -1.436466e+00 -1.740907e+00 -1.662565e+00 -1.740907e+00 -1.436466e+00 -8.666464e-01 -3.951617e-01 -8.068391e-03 3.941659e-01 7.279731e-01 8.448180e-01 8.756672e-01 7.898622e-01 6.797795e-01 5.069159e-01 3.265350e-01 1.467917e-01 5.667186e-03 
-1.638165e-01 -1.041035e-01 8.896176e-02 3.292778e-01 5.689570e-01 7.960179e-01 9.376309e-01 1.057772e+00 1.042466e+00 9.479946e-01 5.644420e-01 -6.497624e-02 -8.688230e-01 -1.530813e+00 -1.630146e+00 -1.431169e+00 -1.243161e+00 -1.431169e+00 -1.630146e+00 -1.530813e+00 -8.688230e-01 -6.497624e-02 5.644420e-01 9.479946e-01 1.042466e+00 1.057772e+00 9.376309e-01 7.960179e-01 5.689570e-01 3.292778e-01 8.896176e-02 -1.041035e-01 
-3.185929e-01 -2.454181e-01 6.952087e-03 3.083351e-01 6.173125e-01 9.027422e-01 1.085728e+00 1.276138e+00 1.325924e+00 1.085610e+00 1.078435e-02 -1.257543e+00 -1.468147e+00 -1.171678e+00 -9.332593e-01 -8.981851e-01 -9.719976e-01 -8.981851e-01 -9.332593e-01 -1.171678e+00 -1.468147e+00 -1.257543e+00 1.078435e-02 1.085610e+00 1.325924e+00 1.276138e+00 1.085728e+00 9.027422e-01 6.173125e-01 3.083351e-01 6.952087e-03 -2.454181e-01 
-5.084746e-01 -4.205635e-01 -1.025862e-01 2.681463e-01 6.611210e-01 1.036237e+00 1.285493e+00 1.546136e+00 1.510054e+00 6.412375e-01 -5.226660e-01 -9.884260e-01 -5.657563e-01 -5.389932e-01 -1.189987e+00 -1.543774e+00 -1.642871e+00 -1.543774e+00 -1.189987e+00 -5.389932e-01 -5.657563e-01 -9.884260e-01 -5.226660e-01 6.412375e-01 1.510054e+00 1.546136e+00 1.285493e+00 1.036237e+00 6.611210e-01 2.681463e-01 -1.025862e-01 -4.205635e-01 
-6.881293e-01 -5.892477e-01 -2.105350e-01 2.072578e-01 6.853472e-01 1.119339e+00 1.407923e+00 1.791510e+00 1.581964e+00 2.421902e-01 -5.818971e-01 -6.325718e-01 -8.492715e-01 -1.130453e+00 -1.264105e+00 -1.008024e+00 -8.507217e-01 -1.008024e+00 -1.264105e+00 -1.130453e+00 -8.492715e-01 -6.325718e-01 -5.818971e-01 2.421902e-01 1.581964e+00 1.791510e+00 1.407923e+00 1.119339e+00 6.853472e-01 2.072578e-01 -2.105350e-01 -5.892477e-01 
-8.742023e-01 -7.734877e-01 -3.479144e-01 9.044409e-02 6.423629e-01 1.152966e+00 1.478169e+00 2.420861e+00 1.537768e+00 -4.957448e-01 -9.438330e-01 -1.244918e+00 -1.237767e+00 -8.789079e-01 -6.139228e-01 -2.712124e-01 -1.555223e-01 -2.712124e-01 -6.139228e-01 -8.789079e-01 -1.237767e+00 -1.244918e+00 -9.438330e-01 -4.957448e-01 1.537768e+00 2.420861e+00 1.478169e+00 1.152966e+00 6.423629e-01 9.044409e-02 -3.479144e-01 -7.734877e-01 
-9.689233e-01 -8.721601e-01 -4.370526e-01 -2.702844e-02 6.292125e-01 1.055948e+00 1.670906e+00 2.834260e+00 7.313037e-01 -1.168670e+00 -7.160740e-01 -7.602979e-01 -6.057578e-01 -6.186012e-01 -6.174827e-01 -4.434509e-01 -3.411861e-01 -4.434509e-01 -6.174827e-01 -6.186012e-01 -6.057578e-01 -7.602979e-01 -7.160740e-01 -1.168670e+00 7.313037e-01 2.834260e+00 1.670906e+00 1.055948e+00 6.292125e-01 -2.702844e-02 -4.370526e-01 -8.721601e-01 
-9.952621e-01 -9.297387e-01 -5.294310e-01 -2.415549e-01 4.854601e-01 6.998076e-01 2.377204e+00 2.822090e+00 -6.286183e-01 -9.041879e-01 -9.247195e-02 -5.636393e-01 -5.753709e-01 -6.031070e-01 -4.442041e-01 -2.796695e-01 -1.898732e-01 -2.796695e-01 -4.442041e-01 -6.031070e-01 -5.753709e-01 -5.636393e-01 -9.247195e-02 -9.041879e-01 -6.286183e-01 2.822090e+00 2.377204e+00 6.998076e-01 4.854601e-01 -2.415549e-01 -5.294310e-01 -9.297387e-01 
-8.192379e-01 -7.719814e-01 -4.965795e-01 -3.007405e-01 1.911692e-01 6.706260e-01 2.534756e+00 1.589088e+00 -1.191041e+00 -1.921736e-01 1.681166e-01 -2.890128e-01 -3.292107e-01 -4.232975e-01 -3.534343e-01 -2.825077e-01 -2.283145e-01 -2.825077e-01 -3.534343e-01 -4.232975e-01 -3.292107e-01 -2.890128e-01 1.681166e-01 -1.921736e-01 -1.191041e+00 1.589088e+00 2.534756e+00 6.706260e-01 1.911692e-01 -3.007405e-01 -4.965795e-01 -7.719814e-01 
-5.109487e-01 -4.830357e-01 -3.670401e-01 -2.510396e-01 -4.238459e-02 6.693725e-01 1.625994e+00 5.692685e-01 -5.518719e-01 1.081514e-01 7.563806e-02 -1.974891e-01 -2.296943e-01 -2.677190e-01 -1.985953e-01 -1.475090e-01 -1.131432e-01 -1.475090e-01 -1.985953e-01 -2.677190e-01 -2.296943e-01 -1.974891e-01 7.563806e-02 1.081514e-01 -5.518719e-01 5.692685e-01 1.625994e+00 6.693725e-01 -4.238459e-02 -2.510396e-01 -3.670401e-01 -4.830357e-01 
2.591075e-14 3.327039e-14 2.780210e-14 1.340662e-14 -1.859412e-14 -5.304772e-14 -4.586250e-14 4.284998e-14 3.600235e-14 -1.764250e-14 -4.986750e-14 -3.013699e-14 -2.834182e-14 -4.678396e-15 -1.215516e-14 -8.753173e-15 -4.826285e-15 -2.200648e-14 -1.396802e-15 -2.237102e-14 -6.928060e-16 3.457298e-14 4.992996e-14 1.104190e-13 7.765196e-14 1.448127e-14 3.088616e-14 -5.701189e-14 -6.687243e-14 -3.835229e-14 -1.243963e-14 1.246479e-14 
5.109487e-01 4.830357e-01 3.670401e-01 2.510396e-01 4.238459e-02 -6.693725e-01 -1.625994e+00 -5.692685e-01 5.518719e-01 -1.081514e-01 -7.563806e-02 1.974891e-01 2.296943e-01 2.677190e-01 1.985953e-01 1.475090e-01 1.131432e-01 1.475090e-01 1.985953e-01 2.677190e-01 2.296943e-01 1.974891e-01 -7.563806e-02 -1.081514e-01 5.518719e-01 -5.692685e-01 -1.625994e+00 -6.693725e-01 4.238459e-02 2.510396e-01 3.670401e-01 4.830357e-01 
8.192379e-01 7.719814e-01 4.965795e-01 3.007405e-01 -1.911692e-01 -6.706260e-01 -2.534756e+00 -1.589088e+00 1.191041e+00 1.921736e-01 -1.681166e-01 2.890128e-01 3.292107e-01 4.232975e-01 3.534343e-01 2.825077e-01 2.283145e-01 2.825077e-01 3.534343e-01 4.232975e-01 3.292107e-01 2.890128e-01 -1.681166e-01 1.921736e-01 1.191041e+00 -1.589088e+00 -2.534756e+00 -6.706260e-01 -1.911692e-01 3.007405e-01 4.965795e-01 7.719814e-01 
9.952621e-01 9.297387e-01 5.294310e-01 2.415549e-01 -4.854601e-01 -6.998076e-01 -2.377204e+00 -2.822090e+00 6.286183e-01 9.041879e-01 9.247195e-02 5.636393e-01 5.753709e-01 6.031070e-01 4.442041e-01 2.796695e-01 1.898732e-01 2.796695e-01 4.442041e-01 6.031070e-01 5.753709e-01 5.636393e-01 9.247195e-02 9.041879e-01 6.286183e-01 -2.822090e+00 -2.377204e+00 -6.998076e-01 -4.854601e-01 2.415549e-01 5.294310e-01 9.297387e-01 
9.689233e-01 8.721601e-01 4.370526e-01 2.702844e-02 -6.292125e-01 -1.055948e+00 -1.670906e+00 -2.834260e+00 -7.313037e-01 1.168670e+00 7.160740e-01 7.602979e-01 6.057578e-01 6.186012e-01 6.174827e-01 4.434509e-01 3.411861e-01 4.434509e-01 6.174827e-01 6.186012e-01 6.057578e-01 7.602979e-01 7.160740e-01 1.168670e+00 -7.313037e-01 -2.834260e+00 -1.670906e+00 -1.055948e+00 -6.292125e-01 2.702844e-02 4.370526e-01 8.721601e-01 
8.742023e-01 7.734877e-01 3.479144e-01 -9.044409e-02 -6.423629e-01 -1.152966e+00 -1.478169e+00 -2.420861e+00 -1.537768e+00 4.957448e-01 9.438330e-01 1.244918e+00 1.237767e+00 8.789079e-01 6.139228e-01 2.712124e-01 1.555223e-01 2.712124e-01 6.139228e-01 8.789079e-01 1.237767e+00 1.244918e+00 9.438330e-01 4.957448e-01 -1.537768e+00 -2.420861e+00 -1.478169e+00 -1.152966e+00 -6.423629e-01 -9.044409e-02 3.479144e-01 7.734877e-01 
6.881293e-01 5.892477e-01 2.105350e-01 -2.072578e-01 -6.853472e-01 -1.119339e+00 -1.407923e+00 -1.791510e+00 -1.581964e+00 -2.421902e-01 5.818971e-01 6.325718e-01 8.492715e-01 1.130453e+00 1.264105e+00 1.008024e+00 8.507217e-01 1.008024e+00 1.264105e+00 1.130453e+00 8.492715e-01 6.325718e-01 5.818971e-01 -2.421902e-01 -1.581964e+00 -1.791510e+00 -1.407923e+00 -1.119339e+00 -6.853472e-01 -2.072578e-01 2.105350e-01 5.892477e-01 
5.084746e-01 4.205635e-01 1.025862e-01 -2.681463e-01 -6.611210e-01 -1.036237e+00 -1.285493e+00 -1.546136e+00 -1.510054e+00 -6.412375e-01 5.226660e-01 9.884260e-01 5.657563e-01 5.389932e-01 1.189987e+00 1.543774e+00 1.642871e+00 1.543774e+00 1.189987e+00 5.389932e-01 5.657563e-01 9.884260e-01 5.226660e-01 -6.412375e-01 -1.510054e+00 -1.546136e+00 -1.285493e+00 -1.036237e+00 -6.611210e-01 -2.681463e-01 1.025862e-01 4.205635e-01 
3.185929e-01 2.454181e-01 -6.952087e-03 -3.083351e-01 -6.173125e-01 -9.027422e-01 -1.085728e+00 -1.276138e+00 -1.325924e+00 -1.085610e+00 -1.078435e-02 1.257543e+00 1.468147e+00 1.171678e+00 9.332593e-01 8.981851e-01 9.719976e-01 8.981851e-01 9.332593e-01 1.171678e+00 1.468147e+00 1.257543e+00 -1.078435e-02 -1.085610e+00 -1.325924e+00 -1.276138e+00 -1.085728e+00 -9.027422e-01 -6.173125e-01 -3.083351e-01 -6.952087e-03 2.454181e-01 
1.638165e-01 1.041035e-01 -8.896176e-02 -3.292778e-01 -5.689570e-01 -7.960179e-01 -9.376309e-01 -1.057772e+00 -1.042466e+00 -9.479946e-01 -5.644420e-01 6.497624e-02 8.688230e-01 1.530813e+00 1.630146e+00 1.431169e+00 1.243161e+00 1.431169e+00 1.630146e+00 1.530813e+00 8.688230e-01 6.497624e-02 -5.644420e-01 -9.479946e-01 -1.042466e+00 -1.057772e+00 -9.376309e-01 -7.960179e-01 -5.689570e-01 -3.292778e-01 -8.896176e-02 1.041035e-01 
3.928771e-02 -5.667186e-03 -1.467917e-01 -3.265350e-01 -5.069159e-01 -6.797795e-01 -7.898622e-01 -8.756672e-01 -8.448180e-01 -7.279731e-01 -3.941659e-01 8.068391e-03 3.951617e-01 8.666464e-01 1.436466e+00 1.740907e+00 1.662565e+00 1.740907e+00 1.436466e+00 8.666464e-01 3.951617e-01 8.068391e-03 -3.941659e-01 -7.279731e-01 -8.448180e-01 -8.756672e-01 -7.898622e-01 -6.797795e-01 -5.069159e-01 -3.265350e-01 -1.467917e-01 -5.667186e-03 
-4.476386e-02 -7.913360e-02 -1.808032e-01 -3.178087e-01 -4.578431e-01 -6.005559e-01 -7.001149e-01 -7.802283e-01 -7.703983e-01 -6.905890e-01 -4.686789e-01 -1.578647e-01 2.736042e-01 7.994596e-01 1.402182e+00 1.826720e+00 1.848869e+00 1.826720e+00 1.402182e+00 7.994596e-01 2.736042e-01 -1.578647e-01 -4.686789e-01 -6.905890e-01 -7.703983e-01 -7.802283e-01 -7.001149e-01 -6.005559e-01 -4.578431e-01 -3.178087e-01 -1.808032e-01 -7.913360e-02 
-8.735678e-02 -1.116394e-01 -1.825948e-01 -2.821671e-01 -3.882862e-01 -5.018841e-01 -5.884625e-01 -6.604485e-01 -6.614626e-01 -6.017488e-01 -4.299293e-01 -1.900219e-01 1.290589e-01 5.599810e-01 1.195656e+00 1.787929e+00 1.939398e+00 1.787929e+00 1.195656e+00 5.599810e-01 1.290589e-01 -1.900219e-01 -4.299293e-01 -6.017488e-01 -6.614626e-01 -6.604485e-01 -5.884625e-01 -5.018841e-01 -3.882862e-01 -2.821671e-01 -1.825948e-01 -1.116394e-01 
-9.943418e-02 -1.170560e-01 -1.662002e-01 -2.397361e-01 -3.214426e-01 -4.146429e-01 -4.927838e-01 -5.611396e-01 -5.759736e-01 -5.376967e-01 -4.080956e-01 -2.064762e-01 9.137371e-02 4.839231e-01 1.023146e+00 1.592825e+00 1.799387e+00 1.592825e+00 1.023146e+00 4.839231e-01 9.137371e-02 -2.064762e-01 -4.080956e-01 -5.376967e-01 -5.759736e-01 -5.611396e-01 -4.927838e-01 -4.146429e-01 -3.214426e-01 -2.397361e-01 -1.662002e-01 -1.170560e-01 
-8.047747e-02 -9.152130e-02 -1.224661e-01 -1.703475e-01 -2.258916e-01 -2.916153e-01 -3.500313e-01 -4.021205e-01 -4.171950e-01 -3.929558e-01 -3.048444e-01 -1.641633e-01 4.347547e-02 3.276193e-01 7.296844e-01 1.185104e+00 1.375014e+00 1.185104e+00 7.296844e-01 3.276193e-01 4.347547e-02 -1.641633e-01 -3.048444e-01 -3.929558e-01 -4.171950e-01 -4.021205e-01 -3.500313e-01 -2.916153e-01 -2.258916e-01 -1.703475e-01 -1.224661e-01 -9.152130e-02 
-4.598244e-02 -5.163310e-02 -6.700793e-02 -9.171492e-02 -1.210478e-01 -1.567348e-01 -1.895196e-01 -2.188176e-01 -2.281395e-01 -2.147498e-01 -1.659327e-01 -8.698676e-02 2.946451e-02 1.845368e-01 3.931354e-01 6.361002e-01 7.440777e-01 6.361002e-01 3.931354e-01 1.845368e-01 2.946451e-02 -8.698676e-02 -1.659327e-01 -2.147498e-01 -2.281395e-01 -2.188176e-01 -1.895196e-01 -1.567348e-01 -1.210478e-01 -9.171492e-02 -6.700793e-02 -5.163310e-02 
