# vtk DataFile Version 2.0
Comment goes here
ASCII

DATASET STRUCTURED_POINTS
FIELD FieldData 1
TIME 1 1 double
0.04000000
DIMENSIONS    32   32   1

ORIGIN    0.000   0.000   0.000
SPACING   0.03125 0.03125   1.000

POINT_DATA   1024
SCALARS uY double
LOOKUP_TABLE default

-4.203584e-16 1.192246e-15 -1.548909e-15 2.965059e-16 -3.406756e-15 -7.279918e-16 -5.483615e-15 -5.096183e-16 -5.317689e-15 -1.017734e-15 -2.390351e-15 -2.808520e-15 5.886496e-16 -7.857727e-15 5.663584e-16 -1.015955e-14 4.452911e-15 -7.228501e-15 1.796597e-15 -4.142176e-16 3.796540e-16 4.544989e-15 8.737442e-16 6.466193e-15 2.060699e-15 7.010767e-15 3.511847e-15 4.869443e-15 2.043253e-15 2.814174e-15 2.841078e-16 1.585547e-15 
-2.553305e-01 -2.560835e-01 -2.585415e-01 -2.602552e-01 -2.608084e-01 -2.532118e-01 -2.376563e-01 -2.017775e-01 -1.449923e-01 -6.022544e-02 5.734395e-02 1.850340e-01 3.244688e-01 4.151335e-01 4.511945e-01 4.313860e-01 3.933128e-01 4.313860e-01 4.511945e-01 4.151335e-01 3.244688e-01 1.850340e-01 5.734395e-02 -6.022544e-02 -1.449923e-01 -2.017775e-01 -2.376563e-01 -2.532118e-01 -2.608084e-01 -2.602552e-01 -2.585415e-01 -2.560835e-01 
-5.090035e-01 -5.115172e-01 -5.174346e-01 -5.241623e-01 -5.287891e-01 -5.196389e-01 -4.957581e-01 -4.311379e-01 -3.278810e-01 -1.579326e-01 6.700982e-02 3.628286e-01 6.191512e-01 9.728725e-01 1.329568e+00 8.086878e-01 2.172714e-01 8.086878e-01 1.329568e+00 9.728725e-01 6.191512e-01 3.628286e-01 6.700982e-02 -1.579326e-01 -3.278810e-01 -4.311379e-01 -4.957581e-01 -5.196389e-01 -5.287891e-01 -5.241623e-01 -5.174346e-01 -5.115172e-01 
-7.596640e-01 -7.641003e-01 -7.766907e-01 -7.920332e-01 -8.079341e-01 -8.043261e-01 -7.824982e-01 -6.961004e-01 -5.440592e-01 -2.917857e-01 1.061421e-01 5.424364e-01 1.133549e+00 1.896901e+00 1.767529e+00 9.090080e-01 5.675877e-01 9.090080e-01 1.767529e+00 1.896901e+00 1.133549e+00 5.424364e-01 1.061421e-01 -2.917857e-01 -5.440592e-01 -6.961004e-01 -7.824982e-01 -8.043261e-01 -8.079341e-01 -7.920332e-01 -7.766907e-01 -7.641003e-01 
-1.001406e+00 -1.010522e+00 -1.032316e+00 -1.065650e+00 -1.102429e+00 -1.123881e+00 -1.126545e+00 -1.045940e+00 -8.823873e-01 -5.750156e-01 -7.106711e-02 7.500886e-01 1.644654e+00 1.932182e+00 1.790764e+00 2.138738e+00 2.560057e+00 2.138738e+00 1.790764e+00 1.932182e+00 1.644654e+00 7.500886e-01 -7.106711e-02 -5.750156e-01 -8.823873e-01 -1.045940e+00 -1.126545e+00 -1.123881e+00 -1.102429e+00 -1.065650e+00 -1.032316e+00 -1.010522e+00 
-1.230199e+00 -1.244227e+00 -1.281102e+00 -1.339387e+00 -1.412659e+00 -1.477063e+00 -1.538989e+00 -1.481919e+00 -1.374073e+00 -1.018848e+00 -9.964876e-02 1.164067e+00 1.995186e+00 2.196221e+00 2.626228e+00 3.201156e+00 3.400312e+00 3.201156e+00 2.626228e+00 2.196221e+00 1.995186e+00 1.164067e+00 -9.964876e-02 -1.018848e+00 -1.374073e+00 -1.481919e+00 -1.538989e+00 -1.477063e+00 -1.412659e+00 -1.339387e+00 -1.281102e+00 -1.244227e+00 
-1.432330e+00 -1.454568e+00 -1.508776e+00 -1.603797e+00 -1.724863e+00 -1.865639e+00 -2.015321e+00 -2.067624e+00 -2.108204e+00 -1.553735e+00 -9.126275e-02 1.448428e+00 2.357488e+00 3.188922e+00 3.870989e+00 3.908013e+00 3.872232e+00 3.908013e+00 3.870989e+00 3.188922e+00 2.357488e+00 1.448428e+00 -9.126275e-02 -1.553735e+00 -2.108204e+00 -2.067624e+00 -2.015321e+00 -1.865639e+00 -1.724863e+00 -1.603797e+00 -1.508776e+00 -1.454568e+00 
-1.599156e+00 -1.629280e+00 -1.705693e+00 -1.843306e+00 -2.028539e+00 -2.277171e+00 -2.550029e+00 -2.874236e+00 -2.938500e+00 -1.715930e+00 2.459652e-01 1.821317e+00 3.034092e+00 4.010762e+00 4.445161e+00 4.507844e+00 4.594240e+00 4.507844e+00 4.445161e+00 4.010762e+00 3.034092e+00 1.821317e+00 2.459652e-01 -1.715930e+00 -2.938500e+00 -2.874236e+00 -2.550029e+00 -2.277171e+00 -2.028539e+00 -1.843306e+00 -1.705693e+00 -1.629280e+00 
-1.710428e+00 -1.749597e+00 -1.846074e+00 -2.028638e+00 -2.278652e+00 -2.647506e+00 -3.063074e+00 -3.604246e+00 -3.106088e+00 -1.302923e+00 4.058528e-01 2.370187e+00 3.934432e+00 4.058620e+00 4.357510e+00 4.904102e+00 4.902614e+00 4.904102e+00 4.357510e+00 4.058620e+00 3.934432e+00 2.370187e+00 4.058528e-01 -1.302923e+00 -3.106088e+00 -3.604246e+00 -3.063074e+00 -2.647506e+00 -2.278652e+00 -2.028638e+00 -1.846074e+00 -1.749597e+00 
-1.755037e+00 -1.800647e+00 -1.913906e+00 -2.128242e+00 -2.439044e+00 -2.873615e+00 -3.426250e+00 -3.708720e+00 -2.882901e+00 -1.221559e+00 1.126032e+00 3.884176e+00 4.233766e+00 3.416641e+00 3.993592e+00 4.431966e+00 4.372460e+00 4.431966e+00 3.993592e+00 3.416641e+00 4.233766e+00 3.884176e+00 1.126032e+00 -1.221559e+00 -2.882901e+00 -3.708720e+00 -3.426250e+00 -2.873615e+00 -2.439044e+00 -2.128242e+00 -1.913906e+00 -1.800647e+00 
-1.717238e+00 -1.765977e+00 -1.885993e+00 -2.112648e+00 -2.448174e+00 -2.882803e+00 -3.405891e+00 -3.353745e+00 -2.645520e+00 -7.462066e-01 2.854697e+00 4.967609e+00 3.286962e+00 2.485956e+00 3.333889e+00 3.407814e+00 3.537297e+00 3.407814e+00 3.333889e+00 2.485956e+00 3.286962e+00 4.967609e+00 2.854697e+00 -7.462066e-01 -2.645520e+00 -3.353745e+00 -3.405891e+00 -2.882803e+00 -2.448174e+00 -2.112648e+00 -1.885993e+00 -1.765977e+00 
-1.593648e+00 -1.644592e+00 -1.755749e+00 -1.982470e+00 -2.284634e+00 -2.697891e+00 -3.016045e+00 -2.954348e+00 -2.342373e+00 2.701127e-01 4.175531e+00 4.477984e+00 1.942053e+00 1.925856e+00 2.673315e+00 2.605348e+00 2.809450e+00 2.605348e+00 2.673315e+00 1.925856e+00 1.942053e+00 4.477984e+00 4.175531e+00 2.701127e-01 -2.342373e+00 -2.954348e+00 -3.016045e+00 -2.697891e+00 -2.284634e+00 -1.982470e+00 -1.755749e+00 -1.644592e+00 
-1.387179e+00 -1.435538e+00 -1.529834e+00 -1.736822e+00 -1.981706e+00 -2.339108e+00 -2.491368e+00 -2.587607e+00 -1.933764e+00 1.205611e+00 4.557570e+00 3.508056e+00 1.114841e+00 1.487717e+00 1.920296e+00 1.897692e+00 2.075110e+00 1.897692e+00 1.920296e+00 1.487717e+00 1.114841e+00 3.508056e+00 4.557570e+00 1.205611e+00 -1.933764e+00 -2.587607e+00 -2.491368e+00 -2.339108e+00 -1.981706e+00 -1.736822e+00 -1.529834e+00 -1.435538e+00 
-1.108871e+00 -1.149928e+00 -1.223041e+00 -1.391232e+00 -1.576101e+00 -1.846946e+00 -1.948017e+00 -2.125812e+00 -1.445108e+00 1.640630e+00 4.046150e+00 2.439442e+00 6.633695e-01 1.079717e+00 1.303409e+00 1.354130e+00 1.467547e+00 1.354130e+00 1.303409e+00 1.079717e+00 6.633695e-01 2.439442e+00 4.046150e+00 1.640630e+00 -1.445108e+00 -2.125812e+00 -1.948017e+00 -1.846946e+00 -1.576101e+00 -1.391232e+00 -1.223041e+00 -1.149928e+00 
-7.724388e-01 -8.019552e-01 -8.514350e-01 -9.681293e-01 -1.091048e+00 -1.266934e+00 -1.343868e+00 -1.493412e+00 -9.121198e-01 1.482423e+00 2.897469e+00 1.485242e+00 4.297505e-01 7.039740e-01 7.979944e-01 8.587916e-01 9.189522e-01 8.587916e-01 7.979944e-01 7.039740e-01 4.297505e-01 1.485242e+00 2.897469e+00 1.482423e+00 -9.121198e-01 -1.493412e+00 -1.343868e+00 -1.266934e+00 -1.091048e+00 -9.681293e-01 -8.514350e-01 -8.019552e-01 
-3.964471e-01 -4.117219e-01 -4.367784e-01 -4.957262e-01 -5.572124e-01 -6.392737e-01 -6.808640e-01 -7.628830e-01 -4.360415e-01 8.521797e-01 1.480333e+00 6.853622e-01 2.211597e-01 3.491135e-01 3.839172e-01 4.229495e-01 4.474194e-01 4.229495e-01 3.839172e-01 3.491135e-01 2.211597e-01 6.853622e-01 1.480333e+00 8.521797e-01 -4.360415e-01 -7.628830e-01 -6.808640e-01 -6.392737e-01 -5.572124e-01 -4.957262e-01 -4.367784e-01 -4.117219e-01 
-2.505305e-15 -2.465075e-15 -1.455358e-15 -3.406109e-15 -5.157929e-15 -5.241600e-15 -1.677021e-15 1.831561e-14 2.531278e-14 1.497780e-14 9.957294e-15 4.165308e-15 -3.720114e-15 -1.280246e-15 -1.786414e-15 -1.268712e-15 -4.023316e-15 -3.153773e-15 -6.098434e-15 -7.579124e-15 -1.446682e-14 -2.026107e-14 -7.006529e-15 4.154750e-14 5.719241e-14 7.667051e-15 -2.386904e-14 -2.675467e-14 -1.601879e-14 -1.171893e-14 -6.687269e-15 -5.487955e-15 
3.964471e-01 4.117219e-01 4.367784e-01 4.957262e-01 5.572124e-01 6.392737e-01 6.808640e-01 7.628830e-01 4.360415e-01 -8.521797e-01 -1.480333e+00 -6.853622e-01 -2.211597e-01 -3.491135e-01 -3.839172e-01 -4.229495e-01 -4.474194e-01 -4.229495e-01 -3.839172e-01 -3.491135e-01 -2.211597e-01 -6.853622e-01 -1.480333e+00 -8.521797e-01 4.360415e-01 7.628830e-01 6.808640e-01 6.392737e-01 5.572124e-01 4.957262e-01 4.367784e-01 4.117219e-01 
7.724388e-01 8.019552e-01 8.514350e-01 9.681293e-01 1.091048e+00 1.266934e+00 1.343868e+00 1.493412e+00 9.121198e-01 -1.482423e+00 -2.897469e+00 -1.485242e+00 -4.297505e-01 -7.039740e-01 -7.979944e-01 -8.587916e-01 -9.189522e-01 -8.587916e-01 -7.979944e-01 -7.039740e-01 -4.297505e-01 -1.485242e+00 -2.897469e+00 -1.482423e+00 9.121198e-01 1.493412e+00 1.343868e+00 1.266934e+00 1.091048e+00 9.681293e-01 8.514350e-01 8.019552e-01 
1.108871e+00 1.149928e+00 1.223041e+00 1.391232e+00 1.576101e+00 1.846946e+00 1.948017e+00 2.125812e+00 1.445108e+00 -1.640630e+00 -4.046150e+00 -2.439442e+00 -6.633695e-01 -1.079717e+00 -1.303409e+00 -1.354130e+00 -1.467547e+00 -1.354130e+00 -1.303409e+00 -1.079717e+00 -6.633695e-01 -2.439442e+00 -4.046150e+00 -1.640630e+00 1.445108e+00 2.125812e+00 1.948017e+00 1.846946e+00 1.576101e+00 1.391232e+00 1.223041e+00 1.149928e+00 
1.387179e+00 1.435538e+00 1.529834e+00 1.736822e+00 1.981706e+00 2.339108e+00 2.491368e+00 2.587607e+00 1.933764e+00 -1.205611e+00 -4.557570e+00 -3.508056e+00 -1.114841e+00 -1.487717e+00 -1.920296e+00 -1.897692e+00 -2.075110e+00 -1.897692e+00 -1.920296e+00 -1.487717e+00 -1.114841e+00 -3.508056e+00 -4.557570e+00 -1.205611e+00 1.933764e+00 2.587607e+00 2.491368e+00 2.339108e+00 1.981706e+00 1.736822e+00 1.529834e+00 1.435538e+00 
1.593648e+00 1.644592e+00 1.755749e+00 1.982470e+00 2.284634e+00 2.697891e+00 3.016045e+00 2.954348e+00 2.342373e+00 -2.701127e-01 -4.175531e+00 -4.477984e+00 -1.942053e+00 -1.925856e+00 -2.673315e+00 -2.605348e+00 -2.809450e+00 -2.605348e+00 -2.673315e+00 -1.925856e+00 -1.942053e+00 -4.477984e+00 -4.175531e+00 -2.701127e-01 2.342373e+00 2.954348e+00 3.016045e+00 2.697891e+00 2.284634e+00 1.982470e+00 1.755749e+00 1.644592e+00 
1.717238e+00 1.765977e+00 1.885993e+00 2.112648e+00 2.448174e+00 2.882803e+00 3.405891e+00 3.353745e+00 2.645520e+00 7.462066e-01 -2.854697e+00 -4.967609e+00 -3.286962e+00 -2.485956e+00 -3.333889e+00 -3.407814e+00 -3.537297e+00 -3.407814e+00 -3.333889e+00 -2.485956e+00 -3.286962e+00 -4.967609e+00 -2.854697e+00 7.462066e-01 2.645520e+00 3.353745e+00 3.405891e+00 2.882803e+00 2.448174e+00 2.112648e+00 1.885993e+00 1.765977e+00 
1.755037e+00 1.800647e+00 1.913906e+00 2.128242e+00 2.439044e+00 2.873615e+00 3.426250e+00 3.708720e+00 2.882901e+00 1.221559e+00 -1.126032e+00 -3.884176e+00 -4.233766e+00 -3.416641e+00 -3.993592e+00 -4.431966e+00 -4.372460e+00 -4.431966e+00 -3.993592e+00 -3.416641e+00 -4.233766e+00 -3.884176e+00 -1.126032e+00 1.221559e+00 2.882901e+00 3.708720e+00 3.426250e+00 2.873615e+00 2.439044e+00 2.128242e+00 1.913906e+00 1.800647e+00 
1.710428e+00 1.749597e+00 1.846074e+00 2.028638e+00 2.278652e+00 2.647506e+00 3.063074e+00 3.604246e+00 3.106088e+00 1.302923e+00 -4.058528e-01 -2.370187e+00 -3.934432e+00 -4.058620e+00 -4.357510e+00 -4.904102e+00 -4.902614e+00 -4.904102e+00 -4.357510e+00 -4.058620e+00 -3.934432e+00 -2.370187e+00 -4.058528e-01 1.302923e+00 3.106088e+00 3.604246e+00 3.063074e+00 2.647506e+00 2.278652e+00 2.028638e+00 1.846074e+00 1.749597e+00 
1.599156e+00 1.629280e+00 1.705693e+00 1.843306e+00 2.028539e+00 2.277171e+00 2.550029e+00 2.874236e+00 2.938500e+00 1.715930e+00 -2.459652e-01 -1.821317e+00 -3.034092e+00 -4.010762e+00 -4.445161e+00 -4.507844e+00 -4.594240e+00 -4.507844e+00 -4.445161e+00 -4.010762e+00 -3.034092e+00 -1.821317e+00 -2.459652e-01 1.715930e+00 2.938500e+00 2.874236e+00 2.550029e+00 2.277171e+00 2.028539e+00 1.843306e+00 1.705693e+00 1.629280e+00 
1.432330e+00 1.454568e+00 1.508776e+00 1.603797e+00 1.724863e+00 1.865639e+00 2.015321e+00 2.067624e+00 2.108204e+00 1.553735e+00 9.126275e-02 -1.448428e+00 -2.357488e+00 -3.188922e+00 -3.870989e+00 -3.908013e+00 -3.872232e+00 -3.908013e+00 -3.870989e+00 -3.188922e+00 -2.357488e+00 -1.448428e+00 9.126275e-02 1.553735e+00 2.108204e+00 2.067624e+00 2.015321e+00 1.865639e+00 1.724863e+00 1.603797e+00 1.508776e+00 1.454568e+00 
1.230199e+00 1.244227e+00 1.281102e+00 1.339387e+00 1.412659e+00 1.477063e+00 1.538989e+00 1.481919e+00 1.374073e+00 1.018848e+00 9.964876e-02 -1.164067e+00 -1.995186e+00 -2.196221e+00 -2.626228e+00 -3.201156e+00 -3.400312e+00 -3.201156e+00 -2.626228e+00 -2.196221e+00 -1.995186e+00 -1.164067e+00 9.964876e-02 1.018848e+00 1.374073e+00 1.481919e+00 1.538989e+00 1.477063e+00 1.412659e+00 1.339387e+00 1.281102e+00 1.244227e+00 
1.001406e+00 1.010522e+00 1.032316e+00 1.065650e+00 1.102429e+00 1.123881e+00 1.126545e+00 1.045940e+00 8.823873e-01 5.750156e-01 7.106711e-02 -7.500886e-01 -1.644654e+00 -1.932182e+00 -1.790764e+00 -2.138738e+00 -2.560057e+00 -2.138738e+00 -1.790764e+00 -1.932182e+00 -1.644654e+00 -7.500886e-01 7.106711e-02 5.750156e-01 8.823873e-01 1.045940e+00 1.126545e+00 1.123881e+00 1.102429e+00 1.065650e+00 1.032316e+00 1.010522e+00 
7.596640e-01 7.641003e-01 7.766907e-01 7.920332e-01 8.079341e-01 8.043261e-01 7.824982e-01 6.961004e-01 5.440592e-01 2.917857e-01 -1.061421e-01 -5.424364e-01 -1.133549e+00 -1.896901e+00 -1.767529e+00 -9.090080e-01 -5.675877e-01 -9.090080e-01 -1.767529e+00 -1.896901e+00 -1.133549e+00 -5.424364e-01 -1.061421e-01 2.917857e-01 5.440592e-01 6.961004e-01 7.824982e-01 8.043261e-01 8.079341e-01 7.920332e-01 7.766907e-01 7.641003e-01 
5.090035e-01 5.115172e-01 5.174346e-01 5.241623e-01 5.287891e-01 5.196389e-01 4.957581e-01 4.311379e-01 3.278810e-01 1.579326e-01 -6.700982e-02 -3.628286e-01 -6.191512e-01 -9.728725e-01 -1.329568e+00 -8.086878e-01 -2.172714e-01 -8.086878e-01 -1.329568e+00 -9.728725e-01 -6.191512e-01 -3.628286e-01 -6.700982e-02 1.579326e-01 3.278810e-01 4.311379e-01 4.957581e-01 5.196389e-01 5.287891e-01 5.241623e-01 5.174346e-01 5.115172e-01 
2.553305e-01 2.560835e-01 2.585415e-01 2.602552e-01 2.608084e-01 2.532118e-01 2.376563e-01 2.017775e-01 1.449923e-01 6.022544e-02 -5.734395e-02 -1.850340e-01 -3.244688e-01 -4.151335e-01 -4.511945e-01 -4.313860e-01 -3.933128e-01 -4.313860e-01 -4.511945e-01 -4.151335e-01 -3.244688e-01 -1.850340e-01 -5.734395e-02 6.022544e-02 1.449923e-01 2.017775e-01 2.376563e-01 2.532118e-01 2.608084e-01 2.602552e-01 2.585415e-01 2.560835e-01 
