# vtk DataFile Version 2.0
Comment goes here
ASCII

DATASET STRUCTURED_POINTS
FIELD FieldData 1
TIME 1 1 double
0.58000000
DIMENSIONS    32   32   1

ORIGIN    0.000   0.000   0.000
SPACING   0.03125 0.03125   1.000

POINT_DATA   1024
SCALARS uY double
LOOKUP_TABLE default

-4.608802e-15 7.883695e-16 -6.603182e-15 2.906453e-15 -5.754236e-15 7.603944e-15 -1.436272e-15 1.418075e-14 5.905068e-15 1.610614e-14 5.192445e-15 1.587682e-15 -9.596889e-15 -2.057457e-14 -2.283981e-14 -2.986702e-14 7.655436e-15 1.121668e-14 1.686037e-14 1.361636e-14 1.445285e-14 8.073046e-16 1.747793e-15 -1.065853e-14 -2.806434e-15 -9.055812e-15 -1.113221e-15 -4.170662e-15 -1.075252e-15 -1.349758e-15 -2.350482e-15 2.241155e-16 
2.612939e-02 2.814303e-02 3.933641e-02 5.132667e-02 7.298381e-02 9.010592e-02 1.202642e-01 1.408749e-01 1.731162e-01 1.822977e-01 1.829869e-01 1.413390e-01 5.838124e-02 -7.396131e-02 -2.816992e-01 -5.601259e-01 -7.568685e-01 -5.601259e-01 -2.816992e-01 -7.396131e-02 5.838124e-02 1.413390e-01 1.829869e-01 1.822977e-01 1.731162e-01 1.408749e-01 1.202642e-01 9.010592e-02 7.298381e-02 5.132667e-02 3.933641e-02 2.814303e-02 
4.508278e-02 5.000460e-02 7.201968e-02 9.633260e-02 1.374352e-01 1.681835e-01 2.216448e-01 2.533878e-01 3.081075e-01 3.187508e-01 3.219321e-01 2.533947e-01 1.169349e-01 -1.095239e-01 -5.016984e-01 -1.030530e+00 -1.397834e+00 -1.030530e+00 -5.016984e-01 -1.095239e-01 1.169349e-01 2.533947e-01 3.219321e-01 3.187508e-01 3.081075e-01 2.533878e-01 2.216448e-01 1.681835e-01 1.374352e-01 9.633260e-02 7.201968e-02 5.000460e-02 
5.424611e-02 6.334811e-02 9.887713e-02 1.383147e-01 2.009317e-01 2.439066e-01 3.172880e-01 3.511376e-01 4.205163e-01 4.219796e-01 4.360574e-01 3.431803e-01 1.509882e-01 -1.482541e-01 -7.109993e-01 -1.413613e+00 -1.881565e+00 -1.413613e+00 -7.109993e-01 -1.482541e-01 1.509882e-01 3.431803e-01 4.360574e-01 4.219796e-01 4.205163e-01 3.511376e-01 3.172880e-01 2.439066e-01 2.009317e-01 1.383147e-01 9.887713e-02 6.334811e-02 
4.231426e-02 5.909880e-02 1.089586e-01 1.678928e-01 2.500832e-01 3.024392e-01 3.857772e-01 4.055425e-01 4.674010e-01 4.235508e-01 4.192900e-01 2.997686e-01 1.151014e-01 -1.515539e-01 -7.901305e-01 -1.506739e+00 -1.955276e+00 -1.506739e+00 -7.901305e-01 -1.515539e-01 1.151014e-01 2.997686e-01 4.192900e-01 4.235508e-01 4.674010e-01 4.055425e-01 3.857772e-01 3.024392e-01 2.500832e-01 1.678928e-01 1.089586e-01 5.909880e-02 
7.222673e-03 3.569271e-02 1.080951e-01 1.966652e-01 3.086927e-01 3.759374e-01 4.743121e-01 4.784522e-01 5.288579e-01 4.341025e-01 4.661953e-01 2.955937e-01 2.761226e-02 -2.824225e-01 -9.887179e-01 -1.534021e+00 -1.857318e+00 -1.534021e+00 -9.887179e-01 -2.824225e-01 2.761226e-02 2.955937e-01 4.661953e-01 4.341025e-01 5.288579e-01 4.784522e-01 4.743121e-01 3.759374e-01 3.086927e-01 1.966652e-01 1.080951e-01 3.569271e-02 
-6.165436e-02 -1.429976e-02 8.509890e-02 2.162648e-01 3.611225e-01 4.503487e-01 5.634295e-01 5.501242e-01 5.797973e-01 3.650436e-01 3.132784e-01 1.873948e-02 -1.991444e-01 -4.220420e-01 -1.022273e+00 -1.164179e+00 -1.300963e+00 -1.164179e+00 -1.022273e+00 -4.220420e-01 -1.991444e-01 1.873948e-02 3.132784e-01 3.650436e-01 5.797973e-01 5.501242e-01 5.634295e-01 4.503487e-01 3.611225e-01 2.162648e-01 8.509890e-02 -1.429976e-02 
-1.698673e-01 -9.604493e-02 4.380192e-02 2.367227e-01 4.357211e-01 5.613898e-01 7.081205e-01 6.750267e-01 6.481690e-01 3.708436e-01 5.285050e-01 1.595946e-01 -4.019582e-01 -8.650684e-01 -1.343265e+00 -1.042464e+00 -1.068320e+00 -1.042464e+00 -1.343265e+00 -8.650684e-01 -4.019582e-01 1.595946e-01 5.285050e-01 3.708436e-01 6.481690e-01 6.750267e-01 7.081205e-01 5.613898e-01 4.357211e-01 2.367227e-01 4.380192e-02 -9.604493e-02 
-3.111968e-01 -2.026603e-01 -1.842541e-02 2.538489e-01 5.078174e-01 6.891869e-01 8.872993e-01 9.053504e-01 9.638575e-01 4.865412e-01 7.311010e-03 -9.443366e-01 -1.184552e+00 -6.630882e-01 -6.348410e-01 -5.248424e-01 -7.457375e-01 -5.248424e-01 -6.348410e-01 -6.630882e-01 -1.184552e+00 -9.443366e-01 7.311010e-03 4.865412e-01 9.638575e-01 9.053504e-01 8.872993e-01 6.891869e-01 5.078174e-01 2.538489e-01 -1.842541e-02 -2.026603e-01 
-4.952135e-01 -3.428995e-01 -1.070617e-01 2.641952e-01 6.003519e-01 8.743996e-01 1.226293e+00 1.268052e+00 8.780347e-01 -1.584250e-01 -5.596199e-01 -5.812957e-01 -4.380667e-01 -3.449122e-01 -8.041151e-01 -9.791145e-01 -1.096420e+00 -9.791145e-01 -8.041151e-01 -3.449122e-01 -4.380667e-01 -5.812957e-01 -5.596199e-01 -1.584250e-01 8.780347e-01 1.268052e+00 1.226293e+00 8.743996e-01 6.003519e-01 2.641952e-01 -1.070617e-01 -3.428995e-01 
-6.747896e-01 -4.783925e-01 -1.967834e-01 2.768178e-01 6.557313e-01 1.023029e+00 1.479165e+00 1.526175e+00 7.136748e-01 -2.980770e-01 -1.617934e-01 -3.365232e-01 -6.965370e-01 -8.603512e-01 -1.034687e+00 -8.526781e-01 -8.427507e-01 -8.526781e-01 -1.034687e+00 -8.603512e-01 -6.965370e-01 -3.365232e-01 -1.617934e-01 -2.980770e-01 7.136748e-01 1.526175e+00 1.479165e+00 1.023029e+00 6.557313e-01 2.768178e-01 -1.967834e-01 -4.783925e-01 
-8.724236e-01 -6.276023e-01 -3.272664e-01 2.418987e-01 6.352681e-01 1.166130e+00 2.103235e+00 1.492995e+00 1.699325e-02 -5.959497e-01 -5.693890e-01 -1.005936e+00 -1.073237e+00 -6.986353e-01 -3.594584e-01 2.709845e-02 2.013202e-02 2.709845e-02 -3.594584e-01 -6.986353e-01 -1.073237e+00 -1.005936e+00 -5.693890e-01 -5.959497e-01 1.699325e-02 1.492995e+00 2.103235e+00 1.166130e+00 6.352681e-01 2.418987e-01 -3.272664e-01 -6.276023e-01 
-9.697090e-01 -7.033247e-01 -3.864186e-01 2.779353e-01 6.913786e-01 1.721956e+00 2.823619e+00 5.774026e-01 -9.455512e-01 -7.624357e-01 -6.394176e-01 -4.519872e-01 -5.267408e-01 -4.560401e-01 -4.379756e-01 -2.035057e-01 -1.880781e-01 -2.035057e-01 -4.379756e-01 -4.560401e-01 -5.267408e-01 -4.519872e-01 -6.394176e-01 -7.624357e-01 -9.455512e-01 5.774026e-01 2.823619e+00 1.721956e+00 6.913786e-01 2.779353e-01 -3.864186e-01 -7.033247e-01 
-1.000403e+00 -7.277933e-01 -4.725435e-01 2.431406e-01 5.188461e-01 2.377428e+00 2.570927e+00 -1.257906e+00 -1.008198e+00 1.880300e-01 -1.346869e-01 -3.612074e-01 -6.563756e-01 -4.320220e-01 -3.089762e-01 -2.966988e-02 -1.758367e-02 -2.966988e-02 -3.089762e-01 -4.320220e-01 -6.563756e-01 -3.612074e-01 -1.346869e-01 1.880300e-01 -1.008198e+00 -1.257906e+00 2.570927e+00 2.377428e+00 5.188461e-01 2.431406e-01 -4.725435e-01 -7.277933e-01 
-8.196005e-01 -6.194129e-01 -3.979405e-01 1.219781e-01 5.468553e-01 2.385476e+00 1.195119e+00 -1.842127e+00 -1.330546e-01 6.401149e-01 9.215848e-04 -2.215100e-01 -4.385652e-01 -3.240088e-01 -2.947177e-01 -1.405104e-01 -1.376349e-01 -1.405104e-01 -2.947177e-01 -3.240088e-01 -4.385652e-01 -2.215100e-01 9.215848e-04 6.401149e-01 -1.330546e-01 -1.842127e+00 1.195119e+00 2.385476e+00 5.468553e-01 1.219781e-01 -3.979405e-01 -6.194129e-01 
-4.587302e-01 -3.678269e-01 -2.014231e-01 2.130410e-03 5.264611e-01 1.415551e+00 2.369665e-01 -9.712992e-01 1.512011e-01 3.721318e-01 9.853754e-03 -1.769486e-01 -2.987435e-01 -2.115374e-01 -1.652130e-01 -6.220082e-02 -5.947540e-02 -6.220082e-02 -1.652130e-01 -2.115374e-01 -2.987435e-01 -1.769486e-01 9.853754e-03 3.721318e-01 1.512011e-01 -9.712992e-01 2.369665e-01 1.415551e+00 5.264611e-01 2.130410e-03 -2.014231e-01 -3.678269e-01 
1.502595e-14 1.134864e-14 2.280964e-14 2.785341e-14 4.007990e-14 6.934057e-14 -4.769826e-14 -6.187190e-14 -8.211572e-15 5.263684e-14 2.386386e-15 2.129280e-14 1.971039e-15 1.522598e-14 -5.775085e-15 1.740078e-15 -1.055818e-14 -1.443075e-14 -9.536969e-15 -3.439790e-14 -2.054706e-14 -5.050153e-14 -1.587814e-14 -2.938713e-14 1.175562e-13 8.390165e-14 -9.647297e-14 -1.427646e-13 -1.911456e-14 2.836865e-14 2.759311e-14 1.500665e-14 
4.587302e-01 3.678269e-01 2.014231e-01 -2.130410e-03 -5.264611e-01 -1.415551e+00 -2.369665e-01 9.712992e-01 -1.512011e-01 -3.721318e-01 -9.853754e-03 1.769486e-01 2.987435e-01 2.115374e-01 1.652130e-01 6.220082e-02 5.947540e-02 6.220082e-02 1.652130e-01 2.115374e-01 2.987435e-01 1.769486e-01 -9.853754e-03 -3.721318e-01 -1.512011e-01 9.712992e-01 -2.369665e-01 -1.415551e+00 -5.264611e-01 -2.130410e-03 2.014231e-01 3.678269e-01 
8.196005e-01 6.194129e-01 3.979405e-01 -1.219781e-01 -5.468553e-01 -2.385476e+00 -1.195119e+00 1.842127e+00 1.330546e-01 -6.401149e-01 -9.215848e-04 2.215100e-01 4.385652e-01 3.240088e-01 2.947177e-01 1.405104e-01 1.376349e-01 1.405104e-01 2.947177e-01 3.240088e-01 4.385652e-01 2.215100e-01 -9.215848e-04 -6.401149e-01 1.330546e-01 1.842127e+00 -1.195119e+00 -2.385476e+00 -5.468553e-01 -1.219781e-01 3.979405e-01 6.194129e-01 
1.000403e+00 7.277933e-01 4.725435e-01 -2.431406e-01 -5.188461e-01 -2.377428e+00 -2.570927e+00 1.257906e+00 1.008198e+00 -1.880300e-01 1.346869e-01 3.612074e-01 6.563756e-01 4.320220e-01 3.089762e-01 2.966988e-02 1.758367e-02 2.966988e-02 3.089762e-01 4.320220e-01 6.563756e-01 3.612074e-01 1.346869e-01 -1.880300e-01 1.008198e+00 1.257906e+00 -2.570927e+00 -2.377428e+00 -5.188461e-01 -2.431406e-01 4.725435e-01 7.277933e-01 
9.697090e-01 7.033247e-01 3.864186e-01 -2.779353e-01 -6.913786e-01 -1.721956e+00 -2.823619e+00 -5.774026e-01 9.455512e-01 7.624357e-01 6.394176e-01 4.519872e-01 5.267408e-01 4.560401e-01 4.379756e-01 2.035057e-01 1.880781e-01 2.035057e-01 4.379756e-01 4.560401e-01 5.267408e-01 4.519872e-01 6.394176e-01 7.624357e-01 9.455512e-01 -5.774026e-01 -2.823619e+00 -1.721956e+00 -6.913786e-01 -2.779353e-01 3.864186e-01 7.033247e-01 
8.724236e-01 6.276023e-01 3.272664e-01 -2.418987e-01 -6.352681e-01 -1.166130e+00 -2.103235e+00 -1.492995e+00 -1.699325e-02 5.959497e-01 5.693890e-01 1.005936e+00 1.073237e+00 6.986353e-01 3.594584e-01 -2.709845e-02 -2.013202e-02 -2.709845e-02 3.594584e-01 6.986353e-01 1.073237e+00 1.005936e+00 5.693890e-01 5.959497e-01 -1.699325e-02 -1.492995e+00 -2.103235e+00 -1.166130e+00 -6.352681e-01 -2.418987e-01 3.272664e-01 6.276023e-01 
6.747896e-01 4.783925e-01 1.967834e-01 -2.768178e-01 -6.557313e-01 -1.023029e+00 -1.479165e+00 -1.526175e+00 -7.136748e-01 2.980770e-01 1.617934e-01 3.365232e-01 6.965370e-01 8.603512e-01 1.034687e+00 8.526781e-01 8.427507e-01 8.526781e-01 1.034687e+00 8.603512e-01 6.965370e-01 3.365232e-01 1.617934e-01 2.980770e-01 -7.136748e-01 -1.526175e+00 -1.479165e+00 -1.023029e+00 -6.557313e-01 -2.768178e-01 1.967834e-01 4.783925e-01 
4.952135e-01 3.428995e-01 1.070617e-01 -2.641952e-01 -6.003519e-01 -8.743996e-01 -1.226293e+00 -1.268052e+00 -8.780347e-01 1.584250e-01 5.596199e-01 5.812957e-01 4.380667e-01 3.449122e-01 8.041151e-01 9.791145e-01 1.096420e+00 9.791145e-01 8.041151e-01 3.449122e-01 4.380667e-01 5.812957e-01 5.596199e-01 1.584250e-01 -8.780347e-01 -1.268052e+00 -1.226293e+00 -8.743996e-01 -6.003519e-01 -2.641952e-01 1.070617e-01 3.428995e-01 
3.111968e-01 2.026603e-01 1.842541e-02 -2.538489e-01 -5.078174e-01 -6.891869e-01 -8.872993e-01 -9.053504e-01 -9.638575e-01 -4.865412e-01 -7.311010e-03 9.443366e-01 1.184552e+00 6.630882e-01 6.348410e-01 5.248424e-01 7.457375e-01 5.248424e-01 6.348410e-01 6.630882e-01 1.184552e+00 9.443366e-01 -7.311010e-03 -4.865412e-01 -9.638575e-01 -9.053504e-01 -8.872993e-01 -6.891869e-01 -5.078174e-01 -2.538489e-01 1.842541e-02 2.026603e-01 
1.698673e-01 9.604493e-02 -4.380192e-02 -2.367227e-01 -4.357211e-01 -5.613898e-01 -7.081205e-01 -6.750267e-01 -6.481690e-01 -3.708436e-01 -5.285050e-01 -1.595946e-01 4.019582e-01 8.650684e-01 1.343265e+00 1.042464e+00 1.068320e+00 1.042464e+00 1.343265e+00 8.650684e-01 4.019582e-01 -1.595946e-01 -5.285050e-01 -3.708436e-01 -6.481690e-01 -6.750267e-01 -7.081205e-01 -5.613898e-01 -4.357211e-01 -2.367227e-01 -4.380192e-02 9.604493e-02 
6.165436e-02 1.429976e-02 -8.509890e-02 -2.162648e-01 -3.611225e-01 -4.503487e-01 -5.634295e-01 -5.501242e-01 -5.797973e-01 -3.650436e-01 -3.132784e-01 -1.873948e-02 1.991444e-01 4.220420e-01 1.022273e+00 1.164179e+00 1.300963e+00 1.164179e+00 1.022273e+00 4.220420e-01 1.991444e-01 -1.873948e-02 -3.132784e-01 -3.650436e-01 -5.797973e-01 -5.501242e-01 -5.634295e-01 -4.503487e-01 -3.611225e-01 -2.162648e-01 -8.509890e-02 1.429976e-02 
-7.222673e-03 -3.569271e-02 -1.080951e-01 -1.966652e-01 -3.086927e-01 -3.759374e-01 -4.743121e-01 -4.784522e-01 -5.288579e-01 -4.341025e-01 -4.661953e-01 -2.955937e-01 -2.761226e-02 2.824225e-01 9.887179e-01 1.534021e+00 1.857318e+00 1.534021e+00 9.887179e-01 2.824225e-01 -2.761226e-02 -2.955937e-01 -4.661953e-01 -4.341025e-01 -5.288579e-01 -4.784522e-01 -4.743121e-01 -3.759374e-01 -3.086927e-01 -1.966652e-01 -1.080951e-01 -3.569271e-02 
-4.231426e-02 -5.909880e-02 -1.089586e-01 -1.678928e-01 -2.500832e-01 -3.024392e-01 -3.857772e-01 -4.055425e-01 -4.674010e-01 -4.235508e-01 -4.192900e-01 -2.997686e-01 -1.151014e-01 1.515539e-01 7.901305e-01 1.506739e+00 1.955276e+00 1.506739e+00 7.901305e-01 1.515539e-01 -1.151014e-01 -2.997686e-01 -4.192900e-01 -4.235508e-01 -4.674010e-01 -4.055425e-01 -3.857772e-01 -3.024392e-01 -2.500832e-01 -1.678928e-01 -1.089586e-01 -5.909880e-02 
-5.424611e-02 -6.334811e-02 -9.887713e-02 -1.383147e-01 -2.009317e-01 -2.439066e-01 -3.172880e-01 -3.511376e-01 -4.205163e-01 -4.219796e-01 -4.360574e-01 -3.431803e-01 -1.509882e-01 1.482541e-01 7.109993e-01 1.413613e+00 1.881565e+00 1.413613e+00 7.109993e-01 1.482541e-01 -1.509882e-01 -3.431803e-01 -4.360574e-01 -4.219796e-01 -4.205163e-01 -3.511376e-01 -3.172880e-01 -2.439066e-01 -2.009317e-01 -1.383147e-01 -9.887713e-02 -6.334811e-02 
-4.508278e-02 -5.000460e-02 -7.201968e-02 -9.633260e-02 -1.374352e-01 -1.681835e-01 -2.216448e-01 -2.533878e-01 -3.081075e-01 -3.187508e-01 -3.219321e-01 -2.533947e-01 -1.169349e-01 1.095239e-01 5.016984e-01 1.030530e+00 1.397834e+00 1.030530e+00 5.016984e-01 1.095239e-01 -1.169349e-01 -2.533947e-01 -3.219321e-01 -3.187508e-01 -3.081075e-01 -2.533878e-01 -2.216448e-01 -1.681835e-01 -1.374352e-01 -9.633260e-02 -7.201968e-02 -5.000460e-02 
-2.612939e-02 -2.814303e-02 -3.933641e-02 -5.132667e-02 -7.298381e-02 -9.010592e-02 -1.202642e-01 -1.408749e-01 -1.731162e-01 -1.822977e-01 -1.829869e-01 -1.413390e-01 -5.838124e-02 7.396131e-02 2.816992e-01 5.601259e-01 7.568685e-01 5.601259e-01 2.816992e-01 7.396131e-02 -5.838124e-02 -1.413390e-01 -1.829869e-01 -1.822977e-01 -1.731162e-01 -1.408749e-01 -1.202642e-01 -9.010592e-02 -7.298381e-02 -5.132667e-02 -3.933641e-02 -2.814303e-02 
