# vtk DataFile Version 2.0
Comment goes here
ASCII

DATASET STRUCTURED_POINTS
FIELD FieldData 1
TIME 1 1 double
0.88000000
DIMENSIONS    32   32   1

ORIGIN    0.000   0.000   0.000
SPACING   0.03125 0.03125   1.000

POINT_DATA   1024
SCALARS uY double
LOOKUP_TABLE default

-4.430885e-16 -4.381662e-15 -6.751180e-15 -3.632967e-15 -8.630220e-15 -7.705368e-16 -8.757422e-15 -2.730890e-15 -9.564355e-15 -6.044118e-15 -5.469370e-15 -1.005338e-14 -1.293347e-15 -1.067459e-14 -5.013492e-16 1.474448e-14 7.596932e-15 -5.510074e-15 -1.398985e-14 9.936163e-15 -9.901614e-16 1.971466e-14 1.660041e-14 1.616546e-14 2.110926e-14 8.363860e-15 1.728393e-14 2.426154e-15 1.297618e-14 4.971311e-16 7.536201e-15 -1.594997e-15 
-9.987230e-03 -5.317495e-03 1.596607e-02 4.309812e-02 8.149348e-02 1.195963e-01 1.614665e-01 1.919498e-01 2.130911e-01 2.076795e-01 1.779467e-01 1.110416e-01 3.942697e-03 -1.396823e-01 -3.274697e-01 -5.283654e-01 -6.428864e-01 -5.283654e-01 -3.274697e-01 -1.396823e-01 3.942697e-03 1.110416e-01 1.779467e-01 2.076795e-01 2.130911e-01 1.919498e-01 1.614665e-01 1.195963e-01 8.149348e-02 4.309812e-02 1.596607e-02 -5.317495e-03 
-3.132363e-02 -2.197146e-02 2.076658e-02 7.374819e-02 1.475138e-01 2.182882e-01 2.956151e-01 3.500966e-01 3.882064e-01 3.768062e-01 3.247204e-01 2.078442e-01 2.121784e-02 -2.289663e-01 -5.774324e-01 -9.758456e-01 -1.209892e+00 -9.758456e-01 -5.774324e-01 -2.289663e-01 2.121784e-02 2.078442e-01 3.247204e-01 3.768062e-01 3.882064e-01 3.500966e-01 2.956151e-01 2.182882e-01 1.475138e-01 7.374819e-02 2.076658e-02 -2.197146e-02 
-7.717095e-02 -6.190127e-02 3.731443e-03 8.395867e-02 1.909739e-01 2.905682e-01 3.970768e-01 4.707240e-01 5.254521e-01 5.112615e-01 4.537425e-01 3.119757e-01 7.661154e-02 -2.472245e-01 -7.560779e-01 -1.359362e+00 -1.705850e+00 -1.359362e+00 -7.560779e-01 -2.472245e-01 7.661154e-02 3.119757e-01 4.537425e-01 5.112615e-01 5.254521e-01 4.707240e-01 3.970768e-01 2.905682e-01 1.909739e-01 8.395867e-02 3.731443e-03 -6.190127e-02 
-1.516209e-01 -1.294534e-01 -3.728736e-02 7.181562e-02 2.108421e-01 3.319989e-01 4.562933e-01 5.344675e-01 5.925428e-01 5.630453e-01 4.984014e-01 3.383448e-01 9.107050e-02 -2.111657e-01 -7.806775e-01 -1.499053e+00 -1.910750e+00 -1.499053e+00 -7.806775e-01 -2.111657e-01 9.107050e-02 3.383448e-01 4.984014e-01 5.630453e-01 5.925428e-01 5.344675e-01 4.562933e-01 3.319989e-01 2.108421e-01 7.181562e-02 -3.728736e-02 -1.294534e-01 
-2.668009e-01 -2.347679e-01 -1.104090e-01 3.575287e-02 2.108965e-01 3.574452e-01 4.970562e-01 5.792663e-01 6.422104e-01 5.970456e-01 5.561387e-01 4.072324e-01 1.650525e-01 -1.349180e-01 -8.388917e-01 -1.607056e+00 -1.977306e+00 -1.607056e+00 -8.388917e-01 -1.349180e-01 1.650525e-01 4.072324e-01 5.561387e-01 5.970456e-01 6.422104e-01 5.792663e-01 4.970562e-01 3.574452e-01 2.108965e-01 3.575287e-02 -1.104090e-01 -2.347679e-01 
-4.129269e-01 -3.693013e-01 -2.050146e-01 -1.454716e-02 2.039960e-01 3.776198e-01 5.291228e-01 6.071292e-01 6.573299e-01 5.635165e-01 5.101865e-01 2.598124e-01 -5.251403e-02 -1.970697e-01 -7.148567e-01 -1.227160e+00 -1.443573e+00 -1.227160e+00 -7.148567e-01 -1.970697e-01 -5.251403e-02 2.598124e-01 5.101865e-01 5.635165e-01 6.573299e-01 6.071292e-01 5.291228e-01 3.776198e-01 2.039960e-01 -1.454716e-02 -2.050146e-01 -3.693013e-01 
-5.959718e-01 -5.387040e-01 -3.287031e-01 -8.463816e-02 1.834294e-01 3.957580e-01 5.607930e-01 6.492664e-01 6.829960e-01 5.150686e-01 5.315328e-01 3.732196e-01 1.358366e-01 -1.897997e-01 -9.543381e-01 -1.120171e+00 -1.027121e+00 -1.120171e+00 -9.543381e-01 -1.897997e-01 1.358366e-01 3.732196e-01 5.315328e-01 5.150686e-01 6.829960e-01 6.492664e-01 5.607930e-01 3.957580e-01 1.834294e-01 -8.463816e-02 -3.287031e-01 -5.387040e-01 
-7.870926e-01 -7.157814e-01 -4.536176e-01 -1.509323e-01 1.772363e-01 4.345593e-01 6.220183e-01 7.410157e-01 7.574360e-01 5.732319e-01 5.859626e-01 -1.212510e-01 -1.014836e+00 -8.630468e-01 -3.297700e-01 1.022045e-01 9.823391e-02 1.022045e-01 -3.297700e-01 -8.630468e-01 -1.014836e+00 -1.212510e-01 5.859626e-01 5.732319e-01 7.574360e-01 7.410157e-01 6.220183e-01 4.345593e-01 1.772363e-01 -1.509323e-01 -4.536176e-01 -7.157814e-01 
-9.845101e-01 -9.012739e-01 -5.862793e-01 -2.276256e-01 1.566319e-01 4.645644e-01 6.730509e-01 8.940684e-01 8.599810e-01 3.829699e-01 -2.572124e-01 -6.566048e-01 -2.503641e-01 2.497811e-01 9.158610e-02 -2.058796e-01 -3.902782e-01 -2.058796e-01 9.158610e-02 2.497811e-01 -2.503641e-01 -6.566048e-01 -2.572124e-01 3.829699e-01 8.599810e-01 8.940684e-01 6.730509e-01 4.645644e-01 1.566319e-01 -2.276256e-01 -5.862793e-01 -9.012739e-01 
-1.152106e+00 -1.056581e+00 -6.887238e-01 -2.804686e-01 1.688293e-01 5.152797e-01 7.722361e-01 1.135784e+00 9.468847e-01 1.822439e-01 -7.976981e-02 1.860180e-01 1.424781e-01 -1.692976e-01 -4.230727e-01 -5.129781e-01 -5.256171e-01 -5.129781e-01 -4.230727e-01 -1.692976e-01 1.424781e-01 1.860180e-01 -7.976981e-02 1.822439e-01 9.468847e-01 1.135784e+00 7.722361e-01 5.152797e-01 1.688293e-01 -2.804686e-01 -6.887238e-01 -1.056581e+00 
-1.277628e+00 -1.177737e+00 -7.667123e-01 -3.409818e-01 1.490097e-01 4.809340e-01 8.282349e-01 1.656894e+00 1.154286e+00 -7.161388e-02 -1.181944e-01 -2.134741e-01 -6.132813e-01 -5.204135e-01 -1.488014e-01 1.863916e-01 3.085453e-01 1.863916e-01 -1.488014e-01 -5.204135e-01 -6.132813e-01 -2.134741e-01 -1.181944e-01 -7.161388e-02 1.154286e+00 1.656894e+00 8.282349e-01 4.809340e-01 1.490097e-01 -3.409818e-01 -7.667123e-01 -1.177737e+00 
-1.326498e+00 -1.219145e+00 -7.897409e-01 -3.651278e-01 1.835248e-01 5.159995e-01 1.384579e+00 2.194781e+00 2.526771e-01 -7.074369e-01 -1.390438e-01 -2.913514e-01 -1.727951e-01 -1.040665e-01 -8.714965e-02 -2.365276e-02 6.239488e-02 -2.365276e-02 -8.714965e-02 -1.040665e-01 -1.727951e-01 -2.913514e-01 -1.390438e-01 -7.074369e-01 2.526771e-01 2.194781e+00 1.384579e+00 5.159995e-01 1.835248e-01 -3.651278e-01 -7.897409e-01 -1.219145e+00 
-1.244956e+00 -1.146188e+00 -7.295918e-01 -3.489205e-01 2.444366e-01 5.971741e-01 2.051423e+00 1.754383e+00 -1.392389e+00 -6.788966e-01 6.048118e-01 1.743879e-02 -1.631297e-01 -2.518141e-01 -7.235318e-02 5.682404e-02 1.585413e-01 5.682404e-02 -7.235318e-02 -2.518141e-01 -1.631297e-01 1.743879e-02 6.048118e-01 -6.788966e-01 -1.392389e+00 1.754383e+00 2.051423e+00 5.971741e-01 2.444366e-01 -3.489205e-01 -7.295918e-01 -1.146188e+00 
-1.014622e+00 -9.203970e-01 -6.047034e-01 -2.770717e-01 1.326407e-01 6.162515e-01 1.842071e+00 4.709895e-01 -1.524670e+00 2.913255e-01 8.249780e-01 6.684164e-04 -9.658160e-02 -1.470391e-01 -7.621382e-02 -3.472706e-02 1.958108e-02 -3.472706e-02 -7.621382e-02 -1.470391e-01 -9.658160e-02 6.684164e-04 8.249780e-01 2.913255e-01 -1.524670e+00 4.709895e-01 1.842071e+00 6.162515e-01 1.326407e-01 -2.770717e-01 -6.047034e-01 -9.203970e-01 
-5.688561e-01 -5.054889e-01 -3.313250e-01 -1.251623e-01 4.809768e-02 5.153461e-01 1.068199e+00 -2.943602e-02 -7.753929e-01 3.323103e-01 4.495414e-01 -3.301238e-02 -1.200579e-01 -1.327039e-01 -6.164245e-02 -2.185292e-02 1.401646e-02 -2.185292e-02 -6.164245e-02 -1.327039e-01 -1.200579e-01 -3.301238e-02 4.495414e-01 3.323103e-01 -7.753929e-01 -2.943602e-02 1.068199e+00 5.153461e-01 4.809768e-02 -1.251623e-01 -3.313250e-01 -5.054889e-01 
-5.794384e-16 -4.502333e-15 -3.469128e-14 -6.339675e-14 -7.992652e-14 -7.814431e-14 -5.203939e-14 5.513746e-14 4.810832e-14 4.863614e-14 -1.852824e-14 2.725784e-14 7.383777e-15 4.503422e-14 -7.757873e-15 5.241395e-14 8.409277e-15 3.918339e-14 2.131107e-14 1.247814e-14 -1.204333e-14 2.957766e-15 7.186766e-14 -2.387395e-13 -2.381625e-13 -1.612543e-13 1.680142e-13 2.021373e-13 1.274033e-13 7.692108e-14 1.794354e-14 1.033455e-14 
5.688561e-01 5.054889e-01 3.313250e-01 1.251623e-01 -4.809768e-02 -5.153461e-01 -1.068199e+00 2.943602e-02 7.753929e-01 -3.323103e-01 -4.495414e-01 3.301238e-02 1.200579e-01 1.327039e-01 6.164245e-02 2.185292e-02 -1.401646e-02 2.185292e-02 6.164245e-02 1.327039e-01 1.200579e-01 3.301238e-02 -4.495414e-01 -3.323103e-01 7.753929e-01 2.943602e-02 -1.068199e+00 -5.153461e-01 -4.809768e-02 1.251623e-01 3.313250e-01 5.054889e-01 
1.014622e+00 9.203970e-01 6.047034e-01 2.770717e-01 -1.326407e-01 -6.162515e-01 -1.842071e+00 -4.709895e-01 1.524670e+00 -2.913255e-01 -8.249780e-01 -6.684164e-04 9.658160e-02 1.470391e-01 7.621382e-02 3.472706e-02 -1.958108e-02 3.472706e-02 7.621382e-02 1.470391e-01 9.658160e-02 -6.684164e-04 -8.249780e-01 -2.913255e-01 1.524670e+00 -4.709895e-01 -1.842071e+00 -6.162515e-01 -1.326407e-01 2.770717e-01 6.047034e-01 9.203970e-01 
1.244956e+00 1.146188e+00 7.295918e-01 3.489205e-01 -2.444366e-01 -5.971741e-01 -2.051423e+00 -1.754383e+00 1.392389e+00 6.788966e-01 -6.048118e-01 -1.743879e-02 1.631297e-01 2.518141e-01 7.235318e-02 -5.682404e-02 -1.585413e-01 -5.682404e-02 7.235318e-02 2.518141e-01 1.631297e-01 -1.743879e-02 -6.048118e-01 6.788966e-01 1.392389e+00 -1.754383e+00 -2.051423e+00 -5.971741e-01 -2.444366e-01 3.489205e-01 7.295918e-01 1.146188e+00 
1.326498e+00 1.219145e+00 7.897409e-01 3.651278e-01 -1.835248e-01 -5.159995e-01 -1.384579e+00 -2.194781e+00 -2.526771e-01 7.074369e-01 1.390438e-01 2.913514e-01 1.727951e-01 1.040665e-01 8.714965e-02 2.365276e-02 -6.239488e-02 2.365276e-02 8.714965e-02 1.040665e-01 1.727951e-01 2.913514e-01 1.390438e-01 7.074369e-01 -2.526771e-01 -2.194781e+00 -1.384579e+00 -5.159995e-01 -1.835248e-01 3.651278e-01 7.897409e-01 1.219145e+00 
1.277628e+00 1.177737e+00 7.667123e-01 3.409818e-01 -1.490097e-01 -4.809340e-01 -8.282349e-01 -1.656894e+00 -1.154286e+00 7.161388e-02 1.181944e-01 2.134741e-01 6.132813e-01 5.204135e-01 1.488014e-01 -1.863916e-01 -3.085453e-01 -1.863916e-01 1.488014e-01 5.204135e-01 6.132813e-01 2.134741e-01 1.181944e-01 7.161388e-02 -1.154286e+00 -1.656894e+00 -8.282349e-01 -4.809340e-01 -1.490097e-01 3.409818e-01 7.667123e-01 1.177737e+00 
1.152106e+00 1.056581e+00 6.887238e-01 2.804686e-01 -1.688293e-01 -5.152797e-01 -7.722361e-01 -1.135784e+00 -9.468847e-01 -1.822439e-01 7.976981e-02 -1.860180e-01 -1.424781e-01 1.692976e-01 4.230727e-01 5.129781e-01 5.256171e-01 5.129781e-01 4.230727e-01 1.692976e-01 -1.424781e-01 -1.860180e-01 7.976981e-02 -1.822439e-01 -9.468847e-01 -1.135784e+00 -7.722361e-01 -5.152797e-01 -1.688293e-01 2.804686e-01 6.887238e-01 1.056581e+00 
9.845101e-01 9.012739e-01 5.862793e-01 2.276256e-01 -1.566319e-01 -4.645644e-01 -6.730509e-01 -8.940684e-01 -8.599810e-01 -3.829699e-01 2.572124e-01 6.566048e-01 2.503641e-01 -2.497811e-01 -9.158610e-02 2.058796e-01 3.902782e-01 2.058796e-01 -9.158610e-02 -2.497811e-01 2.503641e-01 6.566048e-01 2.572124e-01 -3.829699e-01 -8.599810e-01 -8.940684e-01 -6.730509e-01 -4.645644e-01 -1.566319e-01 2.276256e-01 5.862793e-01 9.012739e-01 
7.870926e-01 7.157814e-01 4.536176e-01 1.509323e-01 -1.772363e-01 -4.345593e-01 -6.220183e-01 -7.410157e-01 -7.574360e-01 -5.732319e-01 -5.859626e-01 1.212510e-01 1.014836e+00 8.630468e-01 3.297700e-01 -1.022045e-01 -9.823391e-02 -1.022045e-01 3.297700e-01 8.630468e-01 1.014836e+00 1.212510e-01 -5.859626e-01 -5.732319e-01 -7.574360e-01 -7.410157e-01 -6.220183e-01 -4.345593e-01 -1.772363e-01 1.509323e-01 4.536176e-01 7.157814e-01 
5.959718e-01 5.387040e-01 3.287031e-01 8.463816e-02 -1.834294e-01 -3.957580e-01 -5.607930e-01 -6.492664e-01 -6.829960e-01 -5.150686e-01 -5.315328e-01 -3.732196e-01 -1.358366e-01 1.897997e-01 9.543381e-01 1.120171e+00 1.027121e+00 1.120171e+00 9.543381e-01 1.897997e-01 -1.358366e-01 -3.732196e-01 -5.315328e-01 -5.150686e-01 -6.829960e-01 -6.492664e-01 -5.607930e-01 -3.957580e-01 -1.834294e-01 8.463816e-02 3.287031e-01 5.387040e-01 
4.129269e-01 3.693013e-01 2.050146e-01 1.454716e-02 -2.039960e-01 -3.776198e-01 -5.291228e-01 -6.071292e-01 -6.573299e-01 -5.635165e-01 -5.101865e-01 -2.598124e-01 5.251403e-02 1.970697e-01 7.148567e-01 1.227160e+00 1.443573e+00 1.227160e+00 7.148567e-01 1.970697e-01 5.251403e-02 -2.598124e-01 -5.101865e-01 -5.635165e-01 -6.573299e-01 -6.071292e-01 -5.291228e-01 -3.776198e-01 -2.039960e-01 1.454716e-02 2.050146e-01 3.693013e-01 
2.668009e-01 2.347679e-01 1.104090e-01 -3.575287e-02 -2.108965e-01 -3.574452e-01 -4.970562e-01 -5.792663e-01 -6.422104e-01 -5.970456e-01 -5.561387e-01 -4.072324e-01 -1.650525e-01 1.349180e-01 8.388917e-01 1.607056e+00 1.977306e+00 1.607056e+00 8.388917e-01 1.349180e-01 -1.650525e-01 -4.072324e-01 -5.561387e-01 -5.970456e-01 -6.422104e-01 -5.792663e-01 -4.970562e-01 -3.574452e-01 -2.108965e-01 -3.575287e-02 1.104090e-01 2.347679e-01 
1.516209e-01 1.294534e-01 3.728736e-02 -7.181562e-02 -2.108421e-01 -3.319989e-01 -4.562933e-01 -5.344675e-01 -5.925428e-01 -5.630453e-01 -4.984014e-01 -3.383448e-01 -9.107050e-02 2.111657e-01 7.806775e-01 1.499053e+00 1.910750e+00 1.499053e+00 7.806775e-01 2.111657e-01 -9.107050e-02 -3.383448e-01 -4.984014e-01 -5.630453e-01 -5.925428e-01 -5.344675e-01 -4.562933e-01 -3.319989e-01 -2.108421e-01 -7.181562e-02 3.728736e-02 1.294534e-01 
7.717095e-02 6.190127e-02 -3.731443e-03 -8.395867e-02 -1.909739e-01 -2.905682e-01 -3.970768e-01 -4.707240e-01 -5.254521e-01 -5.112615e-01 -4.537425e-01 -3.119757e-01 -7.661154e-02 2.472245e-01 7.560779e-01 1.359362e+00 1.705850e+00 1.359362e+00 7.560779e-01 2.472245e-01 -7.661154e-02 -3.119757e-01 -4.537425e-01 -5.112615e-01 -5.254521e-01 -4.707240e-01 -3.970768e-01 -2.905682e-01 -1.909739e-01 -8.395867e-02 -3.731443e-03 6.190127e-02 
3.132363e-02 2.197146e-02 -2.076658e-02 -7.374819e-02 -1.475138e-01 -2.182882e-01 -2.956151e-01 -3.500966e-01 -3.882064e-01 -3.768062e-01 -3.247204e-01 -2.078442e-01 -2.121784e-02 2.289663e-01 5.774324e-01 9.758456e-01 1.209892e+00 9.758456e-01 5.774324e-01 2.289663e-01 -2.121784e-02 -2.078442e-01 -3.247204e-01 -3.768062e-01 -3.882064e-01 -3.500966e-01 -2.956151e-01 -2.182882e-01 -1.475138e-01 -7.374819e-02 -2.076658e-02 2.197146e-02 
9.987230e-03 5.317495e-03 -1.596607e-02 -4.309812e-02 -8.149348e-02 -1.195963e-01 -1.614665e-01 -1.919498e-01 -2.130911e-01 -2.076795e-01 -1.779467e-01 -1.110416e-01 -3.942697e-03 1.396823e-01 3.274697e-01 5.283654e-01 6.428864e-01 5.283654e-01 3.274697e-01 1.396823e-01 -3.942697e-03 -1.110416e-01 -1.779467e-01 -2.076795e-01 -2.130911e-01 -1.919498e-01 -1.614665e-01 -1.195963e-01 -8.149348e-02 -4.309812e-02 -1.596607e-02 5.317495e-03 
