# vtk DataFile Version 2.0
Comment goes here
ASCII

DATASET STRUCTURED_POINTS
FIELD FieldData 1
TIME 1 1 double
1.34000000
DIMENSIONS    32   32   1

ORIGIN    0.000   0.000   0.000
SPACING   0.03125 0.03125   1.000

POINT_DATA   1024
SCALARS uY double
LOOKUP_TABLE default

-2.206156e-13 -2.661503e-13 -3.291906e-13 -3.666531e-13 -3.989128e-13 -4.356302e-13 -3.997764e-13 -3.338110e-13 -6.948028e-14 2.520137e-13 7.870050e-13 1.273420e-12 1.794354e-12 2.027357e-12 1.972832e-12 1.230464e-12 1.563344e-13 -1.041640e-12 -1.880515e-12 -2.145191e-12 -2.022377e-12 -1.617957e-12 -1.162838e-12 -6.385502e-13 -2.944441e-13 1.070801e-14 8.586667e-14 1.477302e-13 6.598451e-14 3.509951e-14 -7.436516e-14 -1.230483e-13 
-5.718845e-03 2.752044e-03 2.594551e-02 5.955139e-02 9.858020e-02 1.347084e-01 1.652406e-01 1.791396e-01 1.785417e-01 1.525342e-01 1.084382e-01 3.803133e-02 -5.277100e-02 -1.629413e-01 -2.958073e-01 -4.037757e-01 -4.506171e-01 -4.037757e-01 -2.958073e-01 -1.629413e-01 -5.277100e-02 3.803133e-02 1.084382e-01 1.525342e-01 1.785417e-01 1.791396e-01 1.652406e-01 1.347084e-01 9.858020e-02 5.955139e-02 2.594551e-02 2.752044e-03 
-2.285348e-02 -5.970508e-03 4.097889e-02 1.082039e-01 1.859568e-01 2.577865e-01 3.178726e-01 3.464245e-01 3.449729e-01 2.959404e-01 2.101174e-01 7.555578e-02 -9.524504e-02 -3.049948e-01 -5.601974e-01 -7.729458e-01 -8.660589e-01 -7.729458e-01 -5.601974e-01 -3.049948e-01 -9.524504e-02 7.555578e-02 2.101174e-01 2.959404e-01 3.449729e-01 3.464245e-01 3.178726e-01 2.577865e-01 1.859568e-01 1.082039e-01 4.097889e-02 -5.970508e-03 
-7.363850e-02 -4.728200e-02 2.242723e-02 1.228881e-01 2.366004e-01 3.402798e-01 4.270844e-01 4.656325e-01 4.660990e-01 3.947709e-01 2.835948e-01 1.060409e-01 -1.042679e-01 -3.611334e-01 -7.153920e-01 -1.021197e+00 -1.158653e+00 -1.021197e+00 -7.153920e-01 -3.611334e-01 -1.042679e-01 1.060409e-01 2.835948e-01 3.947709e-01 4.660990e-01 4.656325e-01 4.270844e-01 3.402798e-01 2.366004e-01 1.228881e-01 2.242723e-02 -4.728200e-02 
-1.487643e-01 -1.129148e-01 -1.739256e-02 1.182881e-01 2.704047e-01 4.079372e-01 5.221963e-01 5.764174e-01 5.795253e-01 4.962939e-01 3.586707e-01 1.410719e-01 -1.000286e-01 -4.030427e-01 -8.400559e-01 -1.224051e+00 -1.397875e+00 -1.224051e+00 -8.400559e-01 -4.030427e-01 -1.000286e-01 1.410719e-01 3.586707e-01 4.962939e-01 5.795253e-01 5.764174e-01 5.221963e-01 4.079372e-01 2.704047e-01 1.182881e-01 -1.739256e-02 -1.129148e-01 
-2.706609e-01 -2.224896e-01 -1.026794e-01 7.009852e-02 2.574906e-01 4.253057e-01 5.631566e-01 6.238424e-01 6.327927e-01 5.258409e-01 3.783835e-01 1.236342e-01 -8.353799e-02 -3.155717e-01 -8.026865e-01 -1.230660e+00 -1.415178e+00 -1.230660e+00 -8.026865e-01 -3.155717e-01 -8.353799e-02 1.236342e-01 3.783835e-01 5.258409e-01 6.327927e-01 6.238424e-01 5.631566e-01 4.253057e-01 2.574906e-01 7.009852e-02 -1.026794e-01 -2.224896e-01 
-4.100948e-01 -3.501162e-01 -2.003919e-01 1.265961e-02 2.428164e-01 4.469984e-01 6.163912e-01 6.994761e-01 7.212911e-01 6.250475e-01 4.547943e-01 1.479628e-01 -6.611739e-02 -3.470571e-01 -8.818660e-01 -1.234971e+00 -1.363741e+00 -1.234971e+00 -8.818660e-01 -3.470571e-01 -6.611739e-02 1.479628e-01 4.547943e-01 6.250475e-01 7.212911e-01 6.994761e-01 6.163912e-01 4.469984e-01 2.428164e-01 1.265961e-02 -2.003919e-01 -3.501162e-01 
-5.832702e-01 -5.068708e-01 -3.316497e-01 -7.492387e-02 1.908833e-01 4.303131e-01 6.240719e-01 7.177944e-01 7.510977e-01 6.196325e-01 4.129363e-01 -6.772131e-02 -1.804931e-01 -1.856283e-01 -7.158439e-01 -9.325958e-01 -9.187348e-01 -9.325958e-01 -7.158439e-01 -1.856283e-01 -1.804931e-01 -6.772131e-02 4.129363e-01 6.196325e-01 7.510977e-01 7.177944e-01 6.240719e-01 4.303131e-01 1.908833e-01 -7.492387e-02 -3.316497e-01 -5.068708e-01 
-7.497605e-01 -6.596110e-01 -4.533136e-01 -1.542921e-01 1.557864e-01 4.308750e-01 6.663299e-01 7.902588e-01 8.646015e-01 8.100617e-01 5.370567e-01 2.275853e-02 -1.455633e-01 -5.946347e-01 -1.082757e+00 -6.454162e-01 -3.345208e-01 -6.454162e-01 -1.082757e+00 -5.946347e-01 -1.455633e-01 2.275853e-02 5.370567e-01 8.100617e-01 8.646015e-01 7.902588e-01 6.663299e-01 4.308750e-01 1.557864e-01 -1.542921e-01 -4.533136e-01 -6.596110e-01 
-9.157478e-01 -8.073078e-01 -5.806424e-01 -2.361634e-01 1.000868e-01 4.159988e-01 6.753267e-01 8.412472e-01 9.736318e-01 9.589122e-01 3.671864e-01 -6.162435e-01 -8.230692e-01 -5.041879e-01 -1.537990e-01 -5.225568e-02 -2.016946e-01 -5.225568e-02 -1.537990e-01 -5.041879e-01 -8.230692e-01 -6.162435e-01 3.671864e-01 9.589122e-01 9.736318e-01 8.412472e-01 6.753267e-01 4.159988e-01 1.000868e-01 -2.361634e-01 -5.806424e-01 -8.073078e-01 
-1.042428e+00 -9.225775e-01 -6.759767e-01 -2.982842e-01 6.650620e-02 4.010727e-01 7.050087e-01 8.531095e-01 1.117621e+00 1.072117e+00 1.043920e-01 -5.260902e-01 -6.659925e-02 3.294251e-02 -3.699787e-01 -6.122895e-01 -7.195177e-01 -6.122895e-01 -3.699787e-01 3.294251e-02 -6.659925e-02 -5.260902e-01 1.043920e-01 1.072117e+00 1.117621e+00 8.531095e-01 7.050087e-01 4.010727e-01 6.650620e-02 -2.982842e-01 -6.759767e-01 -9.225775e-01 
-1.122688e+00 -9.923580e-01 -7.453198e-01 -3.395071e-01 1.744163e-02 3.859201e-01 6.788335e-01 9.240118e-01 1.560558e+00 8.457030e-01 -1.233853e-01 -2.721386e-02 -7.625394e-02 -4.604001e-01 -7.427957e-01 -3.361558e-01 -1.546930e-02 -3.361558e-01 -7.427957e-01 -4.604001e-01 -7.625394e-02 -2.721386e-02 -1.233853e-01 8.457030e-01 1.560558e+00 9.240118e-01 6.788335e-01 3.859201e-01 1.744163e-02 -3.395071e-01 -7.453198e-01 -9.923580e-01 
-1.130398e+00 -9.997835e-01 -7.675943e-01 -3.585745e-01 -2.456690e-02 3.763021e-01 6.562505e-01 1.005624e+00 1.808783e+00 6.764468e-01 -3.394294e-01 -4.811253e-01 -7.267745e-01 -3.908139e-01 -2.346289e-01 1.719244e-01 3.863199e-01 1.719244e-01 -2.346289e-01 -3.908139e-01 -7.267745e-01 -4.811253e-01 -3.394294e-01 6.764468e-01 1.808783e+00 1.005624e+00 6.562505e-01 3.763021e-01 -2.456690e-02 -3.585745e-01 -7.675943e-01 -9.997835e-01 
-1.034325e+00 -9.169817e-01 -7.220418e-01 -3.484280e-01 -8.749834e-02 3.532286e-01 5.285709e-01 1.520052e+00 2.193505e+00 -3.936435e-01 -7.943563e-01 -1.557295e-03 -2.644243e-01 -1.615742e-01 -3.586400e-01 -5.109619e-02 4.409437e-02 -5.109619e-02 -3.586400e-01 -1.615742e-01 -2.644243e-01 -1.557295e-03 -7.943563e-01 -3.936435e-01 2.193505e+00 1.520052e+00 5.285709e-01 3.532286e-01 -8.749834e-02 -3.484280e-01 -7.220418e-01 -9.169817e-01 
-8.253331e-01 -7.304741e-01 -6.011029e-01 -3.034395e-01 -1.559281e-01 2.755980e-01 2.828753e-01 1.529007e+00 1.442927e+00 -1.285262e+00 -1.600171e-01 5.905283e-01 -2.571534e-01 -1.185428e-01 -1.786511e-01 4.258489e-02 7.943401e-02 4.258489e-02 -1.786511e-01 -1.185428e-01 -2.571534e-01 5.905283e-01 -1.600171e-01 -1.285262e+00 1.442927e+00 1.529007e+00 2.828753e-01 2.755980e-01 -1.559281e-01 -3.034395e-01 -6.011029e-01 -7.304741e-01 
-4.567766e-01 -4.052646e-01 -3.260649e-01 -1.565314e-01 -5.043174e-02 2.028845e-01 2.771833e-01 9.411410e-01 5.512575e-01 -6.944197e-01 2.604364e-01 2.976213e-01 -2.665656e-01 -1.311473e-01 -1.895343e-01 -5.428371e-02 -5.578481e-02 -5.428371e-02 -1.895343e-01 -1.311473e-01 -2.665656e-01 2.976213e-01 2.604364e-01 -6.944197e-01 5.512575e-01 9.411410e-01 2.771833e-01 2.028845e-01 -5.043174e-02 -1.565314e-01 -3.260649e-01 -4.052646e-01 
8.343203e-13 4.212757e-13 1.900710e-13 -2.493718e-13 -2.550289e-13 -6.399721e-13 -2.778291e-13 1.449613e-12 -9.327488e-13 -6.552095e-13 3.342309e-12 2.458385e-12 1.223182e-12 1.045724e-12 8.835666e-13 1.352065e-13 -1.699472e-13 -6.878833e-13 -1.749969e-12 -1.935308e-12 -2.136499e-12 -2.290294e-13 9.575882e-13 1.693167e-12 -1.672622e-12 -5.015274e-12 -3.036537e-12 -1.627186e-12 -3.626542e-13 7.333618e-13 1.172659e-12 1.110662e-12 
4.567766e-01 4.052646e-01 3.260649e-01 1.565314e-01 5.043174e-02 -2.028845e-01 -2.771833e-01 -9.411410e-01 -5.512575e-01 6.944197e-01 -2.604364e-01 -2.976213e-01 2.665656e-01 1.311473e-01 1.895343e-01 5.428371e-02 5.578481e-02 5.428371e-02 1.895343e-01 1.311473e-01 2.665656e-01 -2.976213e-01 -2.604364e-01 6.944197e-01 -5.512575e-01 -9.411410e-01 -2.771833e-01 -2.028845e-01 5.043174e-02 1.565314e-01 3.260649e-01 4.052646e-01 
8.253331e-01 7.304741e-01 6.011029e-01 3.034395e-01 1.559281e-01 -2.755980e-01 -2.828753e-01 -1.529007e+00 -1.442927e+00 1.285262e+00 1.600171e-01 -5.905283e-01 2.571534e-01 1.185428e-01 1.786511e-01 -4.258489e-02 -7.943401e-02 -4.258489e-02 1.786511e-01 1.185428e-01 2.571534e-01 -5.905283e-01 1.600171e-01 1.285262e+00 -1.442927e+00 -1.529007e+00 -2.828753e-01 -2.755980e-01 1.559281e-01 3.034395e-01 6.011029e-01 7.304741e-01 
1.034325e+00 9.169817e-01 7.220418e-01 3.484280e-01 8.749834e-02 -3.532286e-01 -5.285709e-01 -1.520052e+00 -2.193505e+00 3.936435e-01 7.943563e-01 1.557295e-03 2.644243e-01 1.615742e-01 3.586400e-01 5.109619e-02 -4.409437e-02 5.109619e-02 3.586400e-01 1.615742e-01 2.644243e-01 1.557295e-03 7.943563e-01 3.936435e-01 -2.193505e+00 -1.520052e+00 -5.285709e-01 -3.532286e-01 8.749834e-02 3.484280e-01 7.220418e-01 9.169817e-01 
1.130398e+00 9.997835e-01 7.675943e-01 3.585745e-01 2.456690e-02 -3.763021e-01 -6.562505e-01 -1.005624e+00 -1.808783e+00 -6.764468e-01 3.394294e-01 4.811253e-01 7.267745e-01 3.908139e-01 2.346289e-01 -1.719244e-01 -3.863199e-01 -1.719244e-01 2.346289e-01 3.908139e-01 7.267745e-01 4.811253e-01 3.394294e-01 -6.764468e-01 -1.808783e+00 -1.005624e+00 -6.562505e-01 -3.763021e-01 2.456690e-02 3.585745e-01 7.675943e-01 9.997835e-01 
1.122688e+00 9.923580e-01 7.453198e-01 3.395071e-01 -1.744163e-02 -3.859201e-01 -6.788335e-01 -9.240118e-01 -1.560558e+00 -8.457030e-01 1.233853e-01 2.721386e-02 7.625394e-02 4.604001e-01 7.427957e-01 3.361558e-01 1.546930e-02 3.361558e-01 7.427957e-01 4.604001e-01 7.625394e-02 2.721386e-02 1.233853e-01 -8.457030e-01 -1.560558e+00 -9.240118e-01 -6.788335e-01 -3.859201e-01 -1.744163e-02 3.395071e-01 7.453198e-01 9.923580e-01 
1.042428e+00 9.225775e-01 6.759767e-01 2.982842e-01 -6.650620e-02 -4.010727e-01 -7.050087e-01 -8.531095e-01 -1.117621e+00 -1.072117e+00 -1.043920e-01 5.260902e-01 6.659925e-02 -3.294251e-02 3.699787e-01 6.122895e-01 7.195177e-01 6.122895e-01 3.699787e-01 -3.294251e-02 6.659925e-02 5.260902e-01 -1.043920e-01 -1.072117e+00 -1.117621e+00 -8.531095e-01 -7.050087e-01 -4.010727e-01 -6.650620e-02 2.982842e-01 6.759767e-01 9.225775e-01 
9.157478e-01 8.073078e-01 5.806424e-01 2.361634e-01 -1.000868e-01 -4.159988e-01 -6.753267e-01 -8.412472e-01 -9.736318e-01 -9.589122e-01 -3.671864e-01 6.162435e-01 8.230692e-01 5.041879e-01 1.537990e-01 5.225568e-02 2.016946e-01 5.225568e-02 1.537990e-01 5.041879e-01 8.230692e-01 6.162435e-01 -3.671864e-01 -9.589122e-01 -9.736318e-01 -8.412472e-01 -6.753267e-01 -4.159988e-01 -1.000868e-01 2.361634e-01 5.806424e-01 8.073078e-01 
7.497605e-01 6.596110e-01 4.533136e-01 1.542921e-01 -1.557864e-01 -4.308750e-01 -6.663299e-01 -7.902588e-01 -8.646015e-01 -8.100617e-01 -5.370567e-01 -2.275853e-02 1.455633e-01 5.946347e-01 1.082757e+00 6.454162e-01 3.345208e-01 6.454162e-01 1.082757e+00 5.946347e-01 1.455633e-01 -2.275853e-02 -5.370567e-01 -8.100617e-01 -8.646015e-01 -7.902588e-01 -6.663299e-01 -4.308750e-01 -1.557864e-01 1.542921e-01 4.533136e-01 6.596110e-01 
5.832702e-01 5.068708e-01 3.316497e-01 7.492387e-02 -1.908833e-01 -4.303131e-01 -6.240719e-01 -7.177944e-01 -7.510977e-01 -6.196325e-01 -4.129363e-01 6.772131e-02 1.804931e-01 1.856283e-01 7.158439e-01 9.325958e-01 9.187348e-01 9.325958e-01 7.158439e-01 1.856283e-01 1.804931e-01 6.772131e-02 -4.129363e-01 -6.196325e-01 -7.510977e-01 -7.177944e-01 -6.240719e-01 -4.303131e-01 -1.908833e-01 7.492387e-02 3.316497e-01 5.068708e-01 
4.100948e-01 3.501162e-01 2.003919e-01 -1.265961e-02 -2.428164e-01 -4.469984e-01 -6.163912e-01 -6.994761e-01 -7.212911e-01 -6.250475e-01 -4.547943e-01 -1.479628e-01 6.611739e-02 3.470571e-01 8.818660e-01 1.234971e+00 1.363741e+00 1.234971e+00 8.818660e-01 3.470571e-01 6.611739e-02 -1.479628e-01 -4.547943e-01 -6.250475e-01 -7.212911e-01 -6.994761e-01 -6.163912e-01 -4.469984e-01 -2.428164e-01 -1.265961e-02 2.003919e-01 3.501162e-01 
2.706609e-01 2.224896e-01 1.026794e-01 -7.009852e-02 -2.574906e-01 -4.253057e-01 -5.631566e-01 -6.238424e-01 -6.327927e-01 -5.258409e-01 -3.783835e-01 -1.236342e-01 8.353799e-02 3.155717e-01 8.026865e-01 1.230660e+00 1.415178e+00 1.230660e+00 8.026865e-01 3.155717e-01 8.353799e-02 -1.236342e-01 -3.783835e-01 -5.258409e-01 -6.327927e-01 -6.238424e-01 -5.631566e-01 -4.253057e-01 -2.574906e-01 -7.009852e-02 1.026794e-01 2.224896e-01 
1.487643e-01 1.129148e-01 1.739256e-02 -1.182881e-01 -2.704047e-01 -4.079372e-01 -5.221963e-01 -5.764174e-01 -5.795253e-01 -4.962939e-01 -3.586707e-01 -1.410719e-01 1.000286e-01 4.030427e-01 8.400559e-01 1.224051e+00 1.397875e+00 1.224051e+00 8.400559e-01 4.030427e-01 1.000286e-01 -1.410719e-01 -3.586707e-01 -4.962939e-01 -5.795253e-01 -5.764174e-01 -5.221963e-01 -4.079372e-01 -2.704047e-01 -1.182881e-01 1.739256e-02 1.129148e-01 
7.363850e-02 4.728200e-02 -2.242723e-02 -1.228881e-01 -2.366004e-01 -3.402798e-01 -4.270844e-01 -4.656325e-01 -4.660990e-01 -3.947709e-01 -2.835948e-01 -1.060409e-01 1.042679e-01 3.611334e-01 7.153920e-01 1.021197e+00 1.158653e+00 1.021197e+00 7.153920e-01 3.611334e-01 1.042679e-01 -1.060409e-01 -2.835948e-01 -3.947709e-01 -4.660990e-01 -4.656325e-01 -4.270844e-01 -3.402798e-01 -2.366004e-01 -1.228881e-01 -2.242723e-02 4.728200e-02 
2.285348e-02 5.970508e-03 -4.097889e-02 -1.082039e-01 -1.859568e-01 -2.577865e-01 -3.178726e-01 -3.464245e-01 -3.449729e-01 -2.959404e-01 -2.101174e-01 -7.555578e-02 9.524504e-02 3.049948e-01 5.601974e-01 7.729458e-01 8.660589e-01 7.729458e-01 5.601974e-01 3.049948e-01 9.524504e-02 -7.555578e-02 -2.101174e-01 -2.959404e-01 -3.449729e-01 -3.464245e-01 -3.178726e-01 -2.577865e-01 -1.859568e-01 -1.082039e-01 -4.097889e-02 5.970508e-03 
5.718845e-03 -2.752044e-03 -2.594551e-02 -5.955139e-02 -9.858020e-02 -1.347084e-01 -1.652406e-01 -1.791396e-01 -1.785417e-01 -1.525342e-01 -1.084382e-01 -3.803133e-02 5.277100e-02 1.629413e-01 2.958073e-01 4.037757e-01 4.506171e-01 4.037757e-01 2.958073e-01 1.629413e-01 5.277100e-02 -3.803133e-02 -1.084382e-01 -1.525342e-01 -1.785417e-01 -1.791396e-01 -1.652406e-01 -1.347084e-01 -9.858020e-02 -5.955139e-02 -2.594551e-02 -2.752044e-03 
