# vtk DataFile Version 2.0
Comment goes here
ASCII

DATASET STRUCTURED_POINTS
FIELD FieldData 1
TIME 1 1 double
0.64000000
DIMENSIONS    32   32   1

ORIGIN    0.000   0.000   0.000
SPACING   0.03125 0.03125   1.000

POINT_DATA   1024
SCALARS uY double
LOOKUP_TABLE default

-2.948051e-15 -5.705535e-15 -2.501307e-15 -4.025060e-15 6.867218e-17 6.299031e-16 4.500981e-15 5.907273e-15 3.966084e-15 5.526068e-15 -5.383807e-15 7.503109e-15 -1.264628e-14 1.383860e-14 -1.940977e-14 3.305265e-15 -2.859622e-16 9.698192e-16 4.771264e-15 -1.296602e-14 4.404552e-15 -8.765694e-15 3.914078e-15 -9.981690e-15 -4.284083e-15 -1.274488e-14 -6.729841e-15 -1.042030e-14 -4.881365e-15 -7.343851e-15 -3.227275e-15 -6.085366e-15 
8.403593e-03 1.313572e-02 2.467953e-02 4.410138e-02 7.083249e-02 1.027727e-01 1.425111e-01 1.777194e-01 2.104835e-01 2.154402e-01 2.016476e-01 1.331788e-01 2.763472e-02 -1.487276e-01 -3.675292e-01 -5.376207e-01 -6.289229e-01 -5.376207e-01 -3.675292e-01 -1.487276e-01 2.763472e-02 1.331788e-01 2.016476e-01 2.154402e-01 2.104835e-01 1.777194e-01 1.425111e-01 1.027727e-01 7.083249e-02 4.410138e-02 2.467953e-02 1.313572e-02 
1.148981e-02 2.083570e-02 4.314572e-02 7.987147e-02 1.289677e-01 1.856653e-01 2.552379e-01 3.141758e-01 3.678480e-01 3.675463e-01 3.307830e-01 1.946480e-01 -2.239461e-03 -2.996256e-01 -6.241366e-01 -8.631171e-01 -1.010702e+00 -8.631171e-01 -6.241366e-01 -2.996256e-01 -2.239461e-03 1.946480e-01 3.307830e-01 3.675463e-01 3.678480e-01 3.141758e-01 2.552379e-01 1.856653e-01 1.289677e-01 7.987147e-02 4.314572e-02 2.083570e-02 
-4.974968e-03 1.030014e-02 4.387620e-02 9.915274e-02 1.685360e-01 2.468689e-01 3.399041e-01 4.176421e-01 4.909878e-01 4.914941e-01 4.549657e-01 2.701323e-01 4.097942e-02 -3.788692e-01 -8.843459e-01 -1.156721e+00 -1.304832e+00 -1.156721e+00 -8.843459e-01 -3.788692e-01 4.097942e-02 2.701323e-01 4.549657e-01 4.914941e-01 4.909878e-01 4.176421e-01 3.399041e-01 2.468689e-01 1.685360e-01 9.915274e-02 4.387620e-02 1.030014e-02 
-3.429734e-02 -1.250161e-02 3.279315e-02 1.049572e-01 1.887902e-01 2.772954e-01 3.770167e-01 4.516568e-01 5.209034e-01 4.992945e-01 4.419402e-01 1.861741e-01 -1.249896e-01 -5.435893e-01 -8.456222e-01 -9.632871e-01 -1.147366e+00 -9.632871e-01 -8.456222e-01 -5.435893e-01 -1.249896e-01 1.861741e-01 4.419402e-01 4.992945e-01 5.209034e-01 4.516568e-01 3.770167e-01 2.772954e-01 1.887902e-01 1.049572e-01 3.279315e-02 -1.250161e-02 
-1.027019e-01 -7.058650e-02 -9.248694e-03 8.748701e-02 1.890411e-01 2.918322e-01 3.980807e-01 4.748874e-01 5.477431e-01 5.393144e-01 5.123894e-01 2.278103e-01 3.764371e-02 -4.817528e-01 -1.065091e+00 -1.068992e+00 -1.118414e+00 -1.068992e+00 -1.065091e+00 -4.817528e-01 3.764371e-02 2.278103e-01 5.123894e-01 5.393144e-01 5.477431e-01 4.748874e-01 3.980807e-01 2.918322e-01 1.890411e-01 8.748701e-02 -9.248694e-03 -7.058650e-02 
-1.860207e-01 -1.409272e-01 -5.805084e-02 6.797337e-02 1.877984e-01 2.995825e-01 4.029216e-01 4.660262e-01 5.225231e-01 4.934531e-01 4.218415e-01 -2.364616e-01 -1.035711e+00 -1.247672e+00 -4.745560e-01 2.980258e-01 2.524867e-01 2.980258e-01 -4.745560e-01 -1.247672e+00 -1.035711e+00 -2.364616e-01 4.218415e-01 4.934531e-01 5.225231e-01 4.660262e-01 4.029216e-01 2.995825e-01 1.877984e-01 6.797337e-02 -5.805084e-02 -1.409272e-01 
-3.276475e-01 -2.634101e-01 -1.504888e-01 1.974826e-02 1.675735e-01 2.988040e-01 4.020819e-01 4.495724e-01 4.684251e-01 4.051271e-01 -1.072722e-01 -1.118936e+00 -9.785012e-01 1.617938e-01 6.106999e-01 4.730064e-02 -4.973888e-01 4.730064e-02 6.106999e-01 1.617938e-01 -9.785012e-01 -1.118936e+00 -1.072722e-01 4.051271e-01 4.684251e-01 4.495724e-01 4.020819e-01 2.988040e-01 1.675735e-01 1.974826e-02 -1.504888e-01 -2.634101e-01 
-4.742956e-01 -3.876060e-01 -2.359644e-01 -1.085212e-02 1.717856e-01 3.242961e-01 4.272668e-01 4.500410e-01 3.685644e-01 1.686072e-01 -3.298525e-01 -5.124108e-01 6.250275e-01 1.001044e+00 -1.510378e-01 -1.033119e+00 -1.277284e+00 -1.033119e+00 -1.510378e-01 1.001044e+00 6.250275e-01 -5.124108e-01 -3.298525e-01 1.686072e-01 3.685644e-01 4.500410e-01 4.272668e-01 3.242961e-01 1.717856e-01 -1.085212e-02 -2.359644e-01 -3.876060e-01 
-6.827853e-01 -5.699346e-01 -3.764300e-01 -8.237257e-02 1.474061e-01 3.433516e-01 4.710409e-01 3.968634e-01 4.059427e-01 2.704267e-01 -4.505855e-02 -3.995147e-02 9.822433e-02 -1.780492e-01 -3.463887e-01 -1.403337e-01 -2.668832e-02 -1.403337e-01 -3.463887e-01 -1.780492e-01 9.822433e-02 -3.995147e-02 -4.505855e-02 2.704267e-01 4.059427e-01 3.968634e-01 4.710409e-01 3.433516e-01 1.474061e-01 -8.237257e-02 -3.764300e-01 -5.699346e-01 
-8.558320e-01 -7.193684e-01 -4.827443e-01 -1.118482e-01 1.806652e-01 4.512068e-01 6.121408e-01 4.253864e-01 6.958033e-01 3.969024e-01 -2.367298e-01 -1.025443e-01 -1.661621e-01 -3.581119e-01 -2.631559e-01 1.837712e-02 1.761978e-01 1.837712e-02 -2.631559e-01 -3.581119e-01 -1.661621e-01 -1.025443e-01 -2.367298e-01 3.969024e-01 6.958033e-01 4.253864e-01 6.121408e-01 4.512068e-01 1.806652e-01 -1.118482e-01 -4.827443e-01 -7.193684e-01 
-1.054143e+00 -9.022985e-01 -6.459996e-01 -2.136716e-01 9.289295e-02 4.755072e-01 4.924940e-01 6.545073e-01 1.186231e+00 8.518858e-03 -3.938984e-01 1.090249e-01 -2.920754e-01 -3.740165e-01 -1.139198e-01 2.424281e-01 4.026940e-01 2.424281e-01 -1.139198e-01 -3.740165e-01 -2.920754e-01 1.090249e-01 -3.938984e-01 8.518858e-03 1.186231e+00 6.545073e-01 4.924940e-01 4.755072e-01 9.289295e-02 -2.136716e-01 -6.459996e-01 -9.022985e-01 
-1.141194e+00 -9.890820e-01 -7.329236e-01 -2.640093e-01 8.109938e-02 6.147546e-01 5.141497e-01 1.220650e+00 1.296552e+00 -5.770278e-01 -4.900167e-02 2.563960e-01 -3.183473e-01 -2.625849e-01 -2.552475e-01 9.034861e-04 6.863282e-02 9.034861e-04 -2.552475e-01 -2.625849e-01 -3.183473e-01 2.563960e-01 -4.900167e-02 -5.770278e-01 1.296552e+00 1.220650e+00 5.141497e-01 6.147546e-01 8.109938e-02 -2.640093e-01 -7.329236e-01 -9.890820e-01 
-1.164641e+00 -1.037039e+00 -8.105449e-01 -3.841545e-01 -1.290569e-03 4.926297e-01 6.521397e-01 1.530037e+00 8.877551e-01 -6.684132e-01 3.987653e-01 2.985392e-01 -3.327468e-01 -2.310222e-01 -2.279638e-01 -5.761849e-04 3.241295e-02 -5.761849e-04 -2.279638e-01 -2.310222e-01 -3.327468e-01 2.985392e-01 3.987653e-01 -6.684132e-01 8.877551e-01 1.530037e+00 6.521397e-01 4.926297e-01 -1.290569e-03 -3.841545e-01 -8.105449e-01 -1.037039e+00 
-9.851780e-01 -9.031530e-01 -7.514095e-01 -4.437886e-01 -7.543942e-02 4.795117e-01 1.108744e+00 1.437309e+00 2.824388e-01 -5.066750e-01 4.545111e-01 2.094563e-01 -2.435969e-01 -1.825444e-01 -2.352818e-01 -9.011571e-02 -9.475569e-02 -9.011571e-02 -2.352818e-01 -1.825444e-01 -2.435969e-01 2.094563e-01 4.545111e-01 -5.066750e-01 2.824388e-01 1.437309e+00 1.108744e+00 4.795117e-01 -7.543942e-02 -4.437886e-01 -7.514095e-01 -9.031530e-01 
-6.394685e-01 -6.043095e-01 -5.335051e-01 -3.420595e-01 -4.446959e-02 4.120491e-01 8.692931e-01 6.870789e-01 1.342868e-02 -3.290874e-02 3.271185e-01 6.622519e-02 -1.446765e-01 -1.269698e-01 -1.388986e-01 -5.910572e-02 -5.711255e-02 -5.910572e-02 -1.388986e-01 -1.269698e-01 -1.446765e-01 6.622519e-02 3.271185e-01 -3.290874e-02 1.342868e-02 6.870789e-01 8.692931e-01 4.120491e-01 -4.446959e-02 -3.420595e-01 -5.335051e-01 -6.043095e-01 
1.336430e-14 1.217723e-14 3.025318e-15 2.595007e-15 -1.020098e-15 -1.443975e-14 -7.317506e-14 -7.972703e-14 5.552010e-14 1.233810e-13 4.356804e-14 -1.369984e-14 -1.741805e-15 -3.050307e-15 -1.251182e-14 -1.519200e-14 -3.220401e-14 -4.322923e-14 -6.409242e-14 -9.018348e-14 -1.133036e-13 -1.050107e-13 5.846535e-14 2.888049e-13 1.740739e-13 -1.369117e-13 -1.039356e-13 -5.868419e-15 -3.687430e-15 1.720791e-14 1.698275e-14 2.278792e-14 
6.394685e-01 6.043095e-01 5.335051e-01 3.420595e-01 4.446959e-02 -4.120491e-01 -8.692931e-01 -6.870789e-01 -1.342868e-02 3.290874e-02 -3.271185e-01 -6.622519e-02 1.446765e-01 1.269698e-01 1.388986e-01 5.910572e-02 5.711255e-02 5.910572e-02 1.388986e-01 1.269698e-01 1.446765e-01 -6.622519e-02 -3.271185e-01 3.290874e-02 -1.342868e-02 -6.870789e-01 -8.692931e-01 -4.120491e-01 4.446959e-02 3.420595e-01 5.335051e-01 6.043095e-01 
9.851780e-01 9.031530e-01 7.514095e-01 4.437886e-01 7.543942e-02 -4.795117e-01 -1.108744e+00 -1.437309e+00 -2.824388e-01 5.066750e-01 -4.545111e-01 -2.094563e-01 2.435969e-01 1.825444e-01 2.352818e-01 9.011571e-02 9.475569e-02 9.011571e-02 2.352818e-01 1.825444e-01 2.435969e-01 -2.094563e-01 -4.545111e-01 5.066750e-01 -2.824388e-01 -1.437309e+00 -1.108744e+00 -4.795117e-01 7.543942e-02 4.437886e-01 7.514095e-01 9.031530e-01 
1.164641e+00 1.037039e+00 8.105449e-01 3.841545e-01 1.290569e-03 -4.926297e-01 -6.521397e-01 -1.530037e+00 -8.877551e-01 6.684132e-01 -3.987653e-01 -2.985392e-01 3.327468e-01 2.310222e-01 2.279638e-01 5.761849e-04 -3.241295e-02 5.761849e-04 2.279638e-01 2.310222e-01 3.327468e-01 -2.985392e-01 -3.987653e-01 6.684132e-01 -8.877551e-01 -1.530037e+00 -6.521397e-01 -4.926297e-01 1.290569e-03 3.841545e-01 8.105449e-01 1.037039e+00 
1.141194e+00 9.890820e-01 7.329236e-01 2.640093e-01 -8.109938e-02 -6.147546e-01 -5.141497e-01 -1.220650e+00 -1.296552e+00 5.770278e-01 4.900167e-02 -2.563960e-01 3.183473e-01 2.625849e-01 2.552475e-01 -9.034861e-04 -6.863282e-02 -9.034861e-04 2.552475e-01 2.625849e-01 3.183473e-01 -2.563960e-01 4.900167e-02 5.770278e-01 -1.296552e+00 -1.220650e+00 -5.141497e-01 -6.147546e-01 -8.109938e-02 2.640093e-01 7.329236e-01 9.890820e-01 
1.054143e+00 9.022985e-01 6.459996e-01 2.136716e-01 -9.289295e-02 -4.755072e-01 -4.924940e-01 -6.545073e-01 -1.186231e+00 -8.518858e-03 3.938984e-01 -1.090249e-01 2.920754e-01 3.740165e-01 1.139198e-01 -2.424281e-01 -4.026940e-01 -2.424281e-01 1.139198e-01 3.740165e-01 2.920754e-01 -1.090249e-01 3.938984e-01 -8.518858e-03 -1.186231e+00 -6.545073e-01 -4.924940e-01 -4.755072e-01 -9.289295e-02 2.136716e-01 6.459996e-01 9.022985e-01 
8.558320e-01 7.193684e-01 4.827443e-01 1.118482e-01 -1.806652e-01 -4.512068e-01 -6.121408e-01 -4.253864e-01 -6.958033e-01 -3.969024e-01 2.367298e-01 1.025443e-01 1.661621e-01 3.581119e-01 2.631559e-01 -1.837712e-02 -1.761978e-01 -1.837712e-02 2.631559e-01 3.581119e-01 1.661621e-01 1.025443e-01 2.367298e-01 -3.969024e-01 -6.958033e-01 -4.253864e-01 -6.121408e-01 -4.512068e-01 -1.806652e-01 1.118482e-01 4.827443e-01 7.193684e-01 
6.827853e-01 5.699346e-01 3.764300e-01 8.237257e-02 -1.474061e-01 -3.433516e-01 -4.710409e-01 -3.968634e-01 -4.059427e-01 -2.704267e-01 4.505855e-02 3.995147e-02 -9.822433e-02 1.780492e-01 3.463887e-01 1.403337e-01 2.668832e-02 1.403337e-01 3.463887e-01 1.780492e-01 -9.822433e-02 3.995147e-02 4.505855e-02 -2.704267e-01 -4.059427e-01 -3.968634e-01 -4.710409e-01 -3.433516e-01 -1.474061e-01 8.237257e-02 3.764300e-01 5.699346e-01 
4.742956e-01 3.876060e-01 2.359644e-01 1.085212e-02 -1.717856e-01 -3.242961e-01 -4.272668e-01 -4.500410e-01 -3.685644e-01 -1.686072e-01 3.298525e-01 5.124108e-01 -6.250275e-01 -1.001044e+00 1.510378e-01 1.033119e+00 1.277284e+00 1.033119e+00 1.510378e-01 -1.001044e+00 -6.250275e-01 5.124108e-01 3.298525e-01 -1.686072e-01 -3.685644e-01 -4.500410e-01 -4.272668e-01 -3.242961e-01 -1.717856e-01 1.085212e-02 2.359644e-01 3.876060e-01 
3.276475e-01 2.634101e-01 1.504888e-01 -1.974826e-02 -1.675735e-01 -2.988040e-01 -4.020819e-01 -4.495724e-01 -4.684251e-01 -4.051271e-01 1.072722e-01 1.118936e+00 9.785012e-01 -1.617938e-01 -6.106999e-01 -4.730064e-02 4.973888e-01 -4.730064e-02 -6.106999e-01 -1.617938e-01 9.785012e-01 1.118936e+00 1.072722e-01 -4.051271e-01 -4.684251e-01 -4.495724e-01 -4.020819e-01 -2.988040e-01 -1.675735e-01 -1.974826e-02 1.504888e-01 2.634101e-01 
1.860207e-01 1.409272e-01 5.805084e-02 -6.797337e-02 -1.877984e-01 -2.995825e-01 -4.029216e-01 -4.660262e-01 -5.225231e-01 -4.934531e-01 -4.218415e-01 2.364616e-01 1.035711e+00 1.247672e+00 4.745560e-01 -2.980258e-01 -2.524867e-01 -2.980258e-01 4.745560e-01 1.247672e+00 1.035711e+00 2.364616e-01 -4.218415e-01 -4.934531e-01 -5.225231e-01 -4.660262e-01 -4.029216e-01 -2.995825e-01 -1.877984e-01 -6.797337e-02 5.805084e-02 1.409272e-01 
1.027019e-01 7.058650e-02 9.248694e-03 -8.748701e-02 -1.890411e-01 -2.918322e-01 -3.980807e-01 -4.748874e-01 -5.477431e-01 -5.393144e-01 -5.123894e-01 -2.278103e-01 -3.764371e-02 4.817528e-01 1.065091e+00 1.068992e+00 1.118414e+00 1.068992e+00 1.065091e+00 4.817528e-01 -3.764371e-02 -2.278103e-01 -5.123894e-01 -5.393144e-01 -5.477431e-01 -4.748874e-01 -3.980807e-01 -2.918322e-01 -1.890411e-01 -8.748701e-02 9.248694e-03 7.058650e-02 
3.429734e-02 1.250161e-02 -3.279315e-02 -1.049572e-01 -1.887902e-01 -2.772954e-01 -3.770167e-01 -4.516568e-01 -5.209034e-01 -4.992945e-01 -4.419402e-01 -1.861741e-01 1.249896e-01 5.435893e-01 8.456222e-01 9.632871e-01 1.147366e+00 9.632871e-01 8.456222e-01 5.435893e-01 1.249896e-01 -1.861741e-01 -4.419402e-01 -4.992945e-01 -5.209034e-01 -4.516568e-01 -3.770167e-01 -2.772954e-01 -1.887902e-01 -1.049572e-01 -3.279315e-02 1.250161e-02 
4.974968e-03 -1.030014e-02 -4.387620e-02 -9.915274e-02 -1.685360e-01 -2.468689e-01 -3.399041e-01 -4.176421e-01 -4.909878e-01 -4.914941e-01 -4.549657e-01 -2.701323e-01 -4.097942e-02 3.788692e-01 8.843459e-01 1.156721e+00 1.304832e+00 1.156721e+00 8.843459e-01 3.788692e-01 -4.097942e-02 -2.701323e-01 -4.549657e-01 -4.914941e-01 -4.909878e-01 -4.176421e-01 -3.399041e-01 -2.468689e-01 -1.685360e-01 -9.915274e-02 -4.387620e-02 -1.030014e-02 
-1.148981e-02 -2.083570e-02 -4.314572e-02 -7.987147e-02 -1.289677e-01 -1.856653e-01 -2.552379e-01 -3.141758e-01 -3.678480e-01 -3.675463e-01 -3.307830e-01 -1.946480e-01 2.239461e-03 2.996256e-01 6.241366e-01 8.631171e-01 1.010702e+00 8.631171e-01 6.241366e-01 2.996256e-01 2.239461e-03 -1.946480e-01 -3.307830e-01 -3.675463e-01 -3.678480e-01 -3.141758e-01 -2.552379e-01 -1.856653e-01 -1.289677e-01 -7.987147e-02 -4.314572e-02 -2.083570e-02 
-8.403593e-03 -1.313572e-02 -2.467953e-02 -4.410138e-02 -7.083249e-02 -1.027727e-01 -1.425111e-01 -1.777194e-01 -2.104835e-01 -2.154402e-01 -2.016476e-01 -1.331788e-01 -2.763472e-02 1.487276e-01 3.675292e-01 5.376207e-01 6.289229e-01 5.376207e-01 3.675292e-01 1.487276e-01 -2.763472e-02 -1.331788e-01 -2.016476e-01 -2.154402e-01 -2.104835e-01 -1.777194e-01 -1.425111e-01 -1.027727e-01 -7.083249e-02 -4.410138e-02 -2.467953e-02 -1.313572e-02 
