# vtk DataFile Version 2.0
Comment goes here
ASCII

DATASET STRUCTURED_POINTS
FIELD FieldData 1
TIME 1 1 double
1.10000000
DIMENSIONS    32   32   1

ORIGIN    0.000   0.000   0.000
SPACING   0.03125 0.03125   1.000

POINT_DATA   1024
SCALARS uY double
LOOKUP_TABLE default

-4.812869e-14 -4.638119e-14 -4.396847e-14 -4.176823e-14 -3.353128e-14 -3.324011e-14 -2.045013e-14 -1.016123e-14 2.572985e-14 7.182627e-14 1.453199e-13 2.155577e-13 2.889507e-13 3.221991e-13 3.424722e-13 2.718617e-13 1.190217e-13 -6.230934e-14 -1.908655e-13 -2.689134e-13 -2.980984e-13 -2.775848e-13 -2.340762e-13 -1.691094e-13 -1.214600e-13 -7.281574e-14 -6.003926e-14 -4.112753e-14 -4.792384e-14 -3.882148e-14 -4.714444e-14 -4.314621e-14 
-3.904386e-03 3.715817e-03 2.769415e-02 6.195889e-02 1.032126e-01 1.451792e-01 1.797751e-01 2.029522e-01 2.029995e-01 1.832858e-01 1.346068e-01 6.445287e-02 -3.396039e-02 -1.656036e-01 -3.295982e-01 -4.959411e-01 -5.655548e-01 -4.959411e-01 -3.295982e-01 -1.656036e-01 -3.396039e-02 6.445287e-02 1.346068e-01 1.832858e-01 2.029995e-01 2.029522e-01 1.797751e-01 1.451792e-01 1.032126e-01 6.195889e-02 2.769415e-02 3.715817e-03 
-2.367011e-02 -8.625455e-03 3.855605e-02 1.048743e-01 1.837829e-01 2.628724e-01 3.278937e-01 3.713964e-01 3.730070e-01 3.389429e-01 2.536680e-01 1.314662e-01 -4.559944e-02 -2.759892e-01 -5.962897e-01 -9.249375e-01 -1.046367e+00 -9.249375e-01 -5.962897e-01 -2.759892e-01 -4.559944e-02 1.314662e-01 2.536680e-01 3.389429e-01 3.730070e-01 3.713964e-01 3.278937e-01 2.628724e-01 1.837829e-01 1.048743e-01 3.855605e-02 -8.625455e-03 
-6.990853e-02 -4.704436e-02 2.516129e-02 1.239524e-01 2.398392e-01 3.533847e-01 4.453093e-01 5.073816e-01 5.062733e-01 4.593345e-01 3.340761e-01 1.638395e-01 -6.949004e-02 -3.873536e-01 -7.859430e-01 -1.173495e+00 -1.320544e+00 -1.173495e+00 -7.859430e-01 -3.873536e-01 -6.949004e-02 1.638395e-01 3.340761e-01 4.593345e-01 5.062733e-01 5.073816e-01 4.453093e-01 3.533847e-01 2.398392e-01 1.239524e-01 2.516129e-02 -4.704436e-02 
-1.531590e-01 -1.222472e-01 -2.485721e-02 1.041922e-01 2.515927e-01 3.902432e-01 4.995697e-01 5.720348e-01 5.694681e-01 5.166647e-01 3.803270e-01 1.973886e-01 -3.711975e-02 -3.237735e-01 -8.262570e-01 -1.334503e+00 -1.472288e+00 -1.334503e+00 -8.262570e-01 -3.237735e-01 -3.711975e-02 1.973886e-01 3.803270e-01 5.166647e-01 5.694681e-01 5.720348e-01 4.995697e-01 3.902432e-01 2.515927e-01 1.041922e-01 -2.485721e-02 -1.222472e-01 
-2.762298e-01 -2.358236e-01 -1.069677e-01 5.833593e-02 2.445896e-01 4.117466e-01 5.420158e-01 6.293971e-01 6.235506e-01 5.767233e-01 4.038493e-01 2.030377e-01 -6.497149e-02 -4.597890e-01 -8.823681e-01 -1.183628e+00 -1.243166e+00 -1.183628e+00 -8.823681e-01 -4.597890e-01 -6.497149e-02 2.030377e-01 4.038493e-01 5.767233e-01 6.235506e-01 6.293971e-01 5.420158e-01 4.117466e-01 2.445896e-01 5.833593e-02 -1.069677e-01 -2.358236e-01 
-4.329991e-01 -3.827150e-01 -2.214265e-01 -2.022337e-02 2.013230e-01 3.886395e-01 5.266401e-01 6.142872e-01 5.954422e-01 5.503638e-01 3.848531e-01 1.391400e-01 -3.010142e-02 -1.160773e-01 -6.780821e-01 -1.173415e+00 -1.124298e+00 -1.173415e+00 -6.780821e-01 -1.160773e-01 -3.010142e-02 1.391400e-01 3.848531e-01 5.503638e-01 5.954422e-01 6.142872e-01 5.266401e-01 3.886395e-01 2.013230e-01 -2.022337e-02 -2.214265e-01 -3.827150e-01 
-6.242136e-01 -5.627725e-01 -3.621981e-01 -1.176365e-01 1.540378e-01 3.715840e-01 5.402516e-01 6.425912e-01 6.329034e-01 6.253977e-01 3.677109e-01 1.760052e-01 -2.639323e-01 -9.910674e-01 -9.093695e-01 -1.441018e-01 3.054061e-01 -1.441018e-01 -9.093695e-01 -9.910674e-01 -2.639323e-01 1.760052e-01 3.677109e-01 6.253977e-01 6.329034e-01 6.425912e-01 5.402516e-01 3.715840e-01 1.540378e-01 -1.176365e-01 -3.621981e-01 -5.627725e-01 
-8.148987e-01 -7.431215e-01 -5.050915e-01 -2.211203e-01 9.314103e-02 3.291388e-01 5.045770e-01 5.920490e-01 5.249843e-01 5.491250e-01 1.816267e-02 -6.237878e-01 -1.035818e+00 -4.529367e-01 7.017128e-01 5.706535e-01 2.115631e-01 5.706535e-01 7.017128e-01 -4.529367e-01 -1.035818e+00 -6.237878e-01 1.816267e-02 5.491250e-01 5.249843e-01 5.920490e-01 5.045770e-01 3.291388e-01 9.314103e-02 -2.211203e-01 -5.050915e-01 -7.431215e-01 
-1.019310e+00 -9.365434e-01 -6.612208e-01 -3.379229e-01 2.697129e-02 2.842425e-01 5.129872e-01 5.956809e-01 6.115951e-01 5.302786e-01 -3.731270e-01 -4.309992e-01 3.887280e-01 9.636958e-01 5.137119e-01 -6.684323e-01 -1.019981e+00 -6.684323e-01 5.137119e-01 9.636958e-01 3.887280e-01 -4.309992e-01 -3.731270e-01 5.302786e-01 6.115951e-01 5.956809e-01 5.129872e-01 2.842425e-01 2.697129e-02 -3.379229e-01 -6.612208e-01 -9.365434e-01 
-1.165313e+00 -1.074278e+00 -7.671037e-01 -4.125375e-01 -4.616568e-03 2.625982e-01 5.277361e-01 5.096783e-01 4.599204e-01 6.722037e-01 1.800256e-01 2.342337e-01 4.599074e-01 5.095001e-02 -2.956755e-01 -2.428485e-01 4.492531e-02 -2.428485e-01 -2.956755e-01 5.095001e-02 4.599074e-01 2.342337e-01 1.800256e-01 6.722037e-01 4.599204e-01 5.096783e-01 5.277361e-01 2.625982e-01 -4.616568e-03 -4.125375e-01 -7.671037e-01 -1.074278e+00 
-1.295743e+00 -1.197427e+00 -8.798409e-01 -5.094646e-01 -8.739282e-02 1.750100e-01 4.824196e-01 3.902604e-01 9.929024e-01 1.307116e+00 -1.018126e-01 -2.669347e-01 -4.632845e-02 1.805080e-02 1.113316e-01 8.338895e-02 3.531857e-01 8.338895e-02 1.113316e-01 1.805080e-02 -4.632845e-02 -2.669347e-01 -1.018126e-01 1.307116e+00 9.929024e-01 3.902604e-01 4.824196e-01 1.750100e-01 -8.739282e-02 -5.094646e-01 -8.798409e-01 -1.197427e+00 
-1.296190e+00 -1.199140e+00 -8.862881e-01 -5.140324e-01 -6.759314e-02 2.619734e-01 7.092068e-01 6.484602e-01 1.321197e+00 7.254793e-01 -7.909065e-01 2.107868e-01 2.705105e-01 -1.777033e-01 -3.402781e-02 4.417598e-02 2.519932e-01 4.417598e-02 -3.402781e-02 -1.777033e-01 2.705105e-01 2.107868e-01 -7.909065e-01 7.254793e-01 1.321197e+00 6.484602e-01 7.092068e-01 2.619734e-01 -6.759314e-02 -5.140324e-01 -8.862881e-01 -1.199140e+00 
-1.231919e+00 -1.142819e+00 -8.860146e-01 -5.507565e-01 -1.886701e-01 2.128748e-01 4.857478e-01 8.938436e-01 1.541278e+00 2.232541e-01 -4.046050e-01 4.771012e-01 -2.093994e-03 -1.336304e-01 -1.050088e-02 2.013229e-02 1.616371e-01 2.013229e-02 -1.050088e-02 -1.336304e-01 -2.093994e-03 4.771012e-01 -4.046050e-01 2.232541e-01 1.541278e+00 8.938436e-01 4.857478e-01 2.128748e-01 -1.886701e-01 -5.507565e-01 -8.860146e-01 -1.142819e+00 
-9.718793e-01 -9.068094e-01 -7.375439e-01 -4.940026e-01 -2.529938e-01 1.661920e-01 3.998980e-01 1.306008e+00 1.380037e+00 -3.738784e-01 -1.982714e-01 3.909545e-01 -5.622537e-02 -6.955201e-02 -7.147880e-02 -1.891199e-02 4.503663e-02 -1.891199e-02 -7.147880e-02 -6.955201e-02 -5.622537e-02 3.909545e-01 -1.982714e-01 -3.738784e-01 1.380037e+00 1.306008e+00 3.998980e-01 1.661920e-01 -2.529938e-01 -4.940026e-01 -7.375439e-01 -9.068094e-01 
-5.806972e-01 -5.491668e-01 -4.710807e-01 -3.459017e-01 -1.985980e-01 9.996924e-02 3.202462e-01 9.014745e-01 6.184898e-01 -3.090821e-01 2.056564e-01 3.062719e-01 -1.129314e-01 -7.243887e-02 -7.157927e-02 -3.112626e-02 2.913798e-04 -3.112626e-02 -7.157927e-02 -7.243887e-02 -1.129314e-01 3.062719e-01 2.056564e-01 -3.090821e-01 6.184898e-01 9.014745e-01 3.202462e-01 9.996924e-02 -1.985980e-01 -3.459017e-01 -4.710807e-01 -5.491668e-01 
1.504424e-13 2.009716e-14 -7.022163e-14 -1.069268e-13 -9.004263e-14 2.031255e-14 1.594982e-13 3.543728e-13 2.605302e-13 -3.373687e-13 2.620611e-14 2.923647e-13 2.963596e-13 2.143367e-13 1.681455e-13 5.681874e-14 -1.461752e-14 -1.218544e-13 -2.301047e-13 -2.557440e-13 -2.129673e-13 2.706227e-13 8.676229e-13 5.822311e-13 -1.309414e-12 -1.637362e-12 -8.495805e-13 -2.501149e-13 2.087515e-13 3.825966e-13 4.152000e-13 2.916839e-13 
5.806972e-01 5.491668e-01 4.710807e-01 3.459017e-01 1.985980e-01 -9.996924e-02 -3.202462e-01 -9.014745e-01 -6.184898e-01 3.090821e-01 -2.056564e-01 -3.062719e-01 1.129314e-01 7.243887e-02 7.157927e-02 3.112626e-02 -2.913798e-04 3.112626e-02 7.157927e-02 7.243887e-02 1.129314e-01 -3.062719e-01 -2.056564e-01 3.090821e-01 -6.184898e-01 -9.014745e-01 -3.202462e-01 -9.996924e-02 1.985980e-01 3.459017e-01 4.710807e-01 5.491668e-01 
9.718793e-01 9.068094e-01 7.375439e-01 4.940026e-01 2.529938e-01 -1.661920e-01 -3.998980e-01 -1.306008e+00 -1.380037e+00 3.738784e-01 1.982714e-01 -3.909545e-01 5.622537e-02 6.955201e-02 7.147880e-02 1.891199e-02 -4.503663e-02 1.891199e-02 7.147880e-02 6.955201e-02 5.622537e-02 -3.909545e-01 1.982714e-01 3.738784e-01 -1.380037e+00 -1.306008e+00 -3.998980e-01 -1.661920e-01 2.529938e-01 4.940026e-01 7.375439e-01 9.068094e-01 
1.231919e+00 1.142819e+00 8.860146e-01 5.507565e-01 1.886701e-01 -2.128748e-01 -4.857478e-01 -8.938436e-01 -1.541278e+00 -2.232541e-01 4.046050e-01 -4.771012e-01 2.093994e-03 1.336304e-01 1.050088e-02 -2.013229e-02 -1.616371e-01 -2.013229e-02 1.050088e-02 1.336304e-01 2.093994e-03 -4.771012e-01 4.046050e-01 -2.232541e-01 -1.541278e+00 -8.938436e-01 -4.857478e-01 -2.128748e-01 1.886701e-01 5.507565e-01 8.860146e-01 1.142819e+00 
1.296190e+00 1.199140e+00 8.862881e-01 5.140324e-01 6.759314e-02 -2.619734e-01 -7.092068e-01 -6.484602e-01 -1.321197e+00 -7.254793e-01 7.909065e-01 -2.107868e-01 -2.705105e-01 1.777033e-01 3.402781e-02 -4.417598e-02 -2.519932e-01 -4.417598e-02 3.402781e-02 1.777033e-01 -2.705105e-01 -2.107868e-01 7.909065e-01 -7.254793e-01 -1.321197e+00 -6.484602e-01 -7.092068e-01 -2.619734e-01 6.759314e-02 5.140324e-01 8.862881e-01 1.199140e+00 
1.295743e+00 1.197427e+00 8.798409e-01 5.094646e-01 8.739282e-02 -1.750100e-01 -4.824196e-01 -3.902604e-01 -9.929024e-01 -1.307116e+00 1.018126e-01 2.669347e-01 4.632845e-02 -1.805080e-02 -1.113316e-01 -8.338895e-02 -3.531857e-01 -8.338895e-02 -1.113316e-01 -1.805080e-02 4.632845e-02 2.669347e-01 1.018126e-01 -1.307116e+00 -9.929024e-01 -3.902604e-01 -4.824196e-01 -1.750100e-01 8.739282e-02 5.094646e-01 8.798409e-01 1.197427e+00 
1.165313e+00 1.074278e+00 7.671037e-01 4.125375e-01 4.616568e-03 -2.625982e-01 -5.277361e-01 -5.096783e-01 -4.599204e-01 -6.722037e-01 -1.800256e-01 -2.342337e-01 -4.599074e-01 -5.095001e-02 2.956755e-01 2.428485e-01 -4.492531e-02 2.428485e-01 2.956755e-01 -5.095001e-02 -4.599074e-01 -2.342337e-01 -1.800256e-01 -6.722037e-01 -4.599204e-01 -5.096783e-01 -5.277361e-01 -2.625982e-01 4.616568e-03 4.125375e-01 7.671037e-01 1.074278e+00 
1.019310e+00 9.365434e-01 6.612208e-01 3.379229e-01 -2.697129e-02 -2.842425e-01 -5.129872e-01 -5.956809e-01 -6.115951e-01 -5.302786e-01 3.731270e-01 4.309992e-01 -3.887280e-01 -9.636958e-01 -5.137119e-01 6.684323e-01 1.019981e+00 6.684323e-01 -5.137119e-01 -9.636958e-01 -3.887280e-01 4.309992e-01 3.731270e-01 -5.302786e-01 -6.115951e-01 -5.956809e-01 -5.129872e-01 -2.842425e-01 -2.697129e-02 3.379229e-01 6.612208e-01 9.365434e-01 
8.148987e-01 7.431215e-01 5.050915e-01 2.211203e-01 -9.314103e-02 -3.291388e-01 -5.045770e-01 -5.920490e-01 -5.249843e-01 -5.491250e-01 -1.816267e-02 6.237878e-01 1.035818e+00 4.529367e-01 -7.017128e-01 -5.706535e-01 -2.115631e-01 -5.706535e-01 -7.017128e-01 4.529367e-01 1.035818e+00 6.237878e-01 -1.816267e-02 -5.491250e-01 -5.249843e-01 -5.920490e-01 -5.045770e-01 -3.291388e-01 -9.314103e-02 2.211203e-01 5.050915e-01 7.431215e-01 
6.242136e-01 5.627725e-01 3.621981e-01 1.176365e-01 -1.540378e-01 -3.715840e-01 -5.402516e-01 -6.425912e-01 -6.329034e-01 -6.253977e-01 -3.677109e-01 -1.760052e-01 2.639323e-01 9.910674e-01 9.093695e-01 1.441018e-01 -3.054061e-01 1.441018e-01 9.093695e-01 9.910674e-01 2.639323e-01 -1.760052e-01 -3.677109e-01 -6.253977e-01 -6.329034e-01 -6.425912e-01 -5.402516e-01 -3.715840e-01 -1.540378e-01 1.176365e-01 3.621981e-01 5.627725e-01 
4.329991e-01 3.827150e-01 2.214265e-01 2.022337e-02 -2.013230e-01 -3.886395e-01 -5.266401e-01 -6.142872e-01 -5.954422e-01 -5.503638e-01 -3.848531e-01 -1.391400e-01 3.010142e-02 1.160773e-01 6.780821e-01 1.173415e+00 1.124298e+00 1.173415e+00 6.780821e-01 1.160773e-01 3.010142e-02 -1.391400e-01 -3.848531e-01 -5.503638e-01 -5.954422e-01 -6.142872e-01 -5.266401e-01 -3.886395e-01 -2.013230e-01 2.022337e-02 2.214265e-01 3.827150e-01 
2.762298e-01 2.358236e-01 1.069677e-01 -5.833593e-02 -2.445896e-01 -4.117466e-01 -5.420158e-01 -6.293971e-01 -6.235506e-01 -5.767233e-01 -4.038493e-01 -2.030377e-01 6.497149e-02 4.597890e-01 8.823681e-01 1.183628e+00 1.243166e+00 1.183628e+00 8.823681e-01 4.597890e-01 6.497149e-02 -2.030377e-01 -4.038493e-01 -5.767233e-01 -6.235506e-01 -6.293971e-01 -5.420158e-01 -4.117466e-01 -2.445896e-01 -5.833593e-02 1.069677e-01 2.358236e-01 
1.531590e-01 1.222472e-01 2.485721e-02 -1.041922e-01 -2.515927e-01 -3.902432e-01 -4.995697e-01 -5.720348e-01 -5.694681e-01 -5.166647e-01 -3.803270e-01 -1.973886e-01 3.711975e-02 3.237735e-01 8.262570e-01 1.334503e+00 1.472288e+00 1.334503e+00 8.262570e-01 3.237735e-01 3.711975e-02 -1.973886e-01 -3.803270e-01 -5.166647e-01 -5.694681e-01 -5.720348e-01 -4.995697e-01 -3.902432e-01 -2.515927e-01 -1.041922e-01 2.485721e-02 1.222472e-01 
6.990853e-02 4.704436e-02 -2.516129e-02 -1.239524e-01 -2.398392e-01 -3.533847e-01 -4.453093e-01 -5.073816e-01 -5.062733e-01 -4.593345e-01 -3.340761e-01 -1.638395e-01 6.949004e-02 3.873536e-01 7.859430e-01 1.173495e+00 1.320544e+00 1.173495e+00 7.859430e-01 3.873536e-01 6.949004e-02 -1.638395e-01 -3.340761e-01 -4.593345e-01 -5.062733e-01 -5.073816e-01 -4.453093e-01 -3.533847e-01 -2.398392e-01 -1.239524e-01 -2.516129e-02 4.704436e-02 
2.367011e-02 8.625455e-03 -3.855605e-02 -1.048743e-01 -1.837829e-01 -2.628724e-01 -3.278937e-01 -3.713964e-01 -3.730070e-01 -3.389429e-01 -2.536680e-01 -1.314662e-01 4.559944e-02 2.759892e-01 5.962897e-01 9.249375e-01 1.046367e+00 9.249375e-01 5.962897e-01 2.759892e-01 4.559944e-02 -1.314662e-01 -2.536680e-01 -3.389429e-01 -3.730070e-01 -3.713964e-01 -3.278937e-01 -2.628724e-01 -1.837829e-01 -1.048743e-01 -3.855605e-02 8.625455e-03 
3.904386e-03 -3.715817e-03 -2.769415e-02 -6.195889e-02 -1.032126e-01 -1.451792e-01 -1.797751e-01 -2.029522e-01 -2.029995e-01 -1.832858e-01 -1.346068e-01 -6.445287e-02 3.396039e-02 1.656036e-01 3.295982e-01 4.959411e-01 5.655548e-01 4.959411e-01 3.295982e-01 1.656036e-01 3.396039e-02 -6.445287e-02 -1.346068e-01 -1.832858e-01 -2.029995e-01 -2.029522e-01 -1.797751e-01 -1.451792e-01 -1.032126e-01 -6.195889e-02 -2.769415e-02 -3.715817e-03 
