# vtk DataFile Version 2.0
Comment goes here
ASCII

DATASET STRUCTURED_POINTS
FIELD FieldData 1
TIME 1 1 double
1.08000000
DIMENSIONS    32   32   1

ORIGIN    0.000   0.000   0.000
SPACING   0.03125 0.03125   1.000

POINT_DATA   1024
SCALARS uY double
LOOKUP_TABLE default

-3.655459e-14 -3.934791e-14 -3.184491e-14 -3.341377e-14 -2.181691e-14 -2.524492e-14 -1.182977e-14 -9.624683e-15 1.903290e-14 4.673623e-14 1.042390e-13 1.524190e-13 2.113544e-13 2.325200e-13 2.527514e-13 2.156954e-13 8.468354e-14 -2.975529e-14 -1.504721e-13 -1.890980e-13 -2.227325e-13 -2.046575e-13 -1.713221e-13 -1.253189e-13 -8.595354e-14 -5.689399e-14 -4.410260e-14 -3.716835e-14 -3.716466e-14 -3.620784e-14 -3.654724e-14 -3.869831e-14 
1.612564e-02 2.535984e-02 4.784627e-02 8.317315e-02 1.235429e-01 1.655320e-01 1.998227e-01 2.213572e-01 2.197148e-01 1.942025e-01 1.375168e-01 5.588579e-02 -5.516053e-02 -1.946611e-01 -3.650426e-01 -5.508494e-01 -6.326062e-01 -5.508494e-01 -3.650426e-01 -1.946611e-01 -5.516053e-02 5.588579e-02 1.375168e-01 1.942025e-01 2.197148e-01 2.213572e-01 1.998227e-01 1.655320e-01 1.235429e-01 8.317315e-02 4.784627e-02 2.535984e-02 
1.692653e-02 3.528103e-02 7.954978e-02 1.482291e-01 2.251534e-01 3.043334e-01 3.674191e-01 4.068351e-01 4.018423e-01 3.543497e-01 2.506396e-01 1.038562e-01 -9.295612e-02 -3.373848e-01 -6.573621e-01 -1.015500e+00 -1.165499e+00 -1.015500e+00 -6.573621e-01 -3.373848e-01 -9.295612e-02 1.038562e-01 2.506396e-01 3.543497e-01 4.018423e-01 4.068351e-01 3.674191e-01 3.043334e-01 2.251534e-01 1.482291e-01 7.954978e-02 3.528103e-02 
-9.689447e-03 1.887294e-02 8.686311e-02 1.904372e-01 3.044820e-01 4.193047e-01 5.112157e-01 5.681565e-01 5.631512e-01 4.980407e-01 3.518899e-01 1.478261e-01 -1.289618e-01 -4.692587e-01 -9.039801e-01 -1.373379e+00 -1.559630e+00 -1.373379e+00 -9.039801e-01 -4.692587e-01 -1.289618e-01 1.478261e-01 3.518899e-01 4.980407e-01 5.631512e-01 5.681565e-01 5.112157e-01 4.193047e-01 3.044820e-01 1.904372e-01 8.686311e-02 1.887294e-02 
-7.217020e-02 -3.305400e-02 5.924733e-02 1.962286e-01 3.418582e-01 4.836672e-01 5.921699e-01 6.578873e-01 6.446737e-01 5.637629e-01 3.856916e-01 1.402422e-01 -1.601962e-01 -4.837150e-01 -9.705838e-01 -1.525019e+00 -1.713551e+00 -1.525019e+00 -9.705838e-01 -4.837150e-01 -1.601962e-01 1.402422e-01 3.856916e-01 5.637629e-01 6.446737e-01 6.578873e-01 5.921699e-01 4.836672e-01 3.418582e-01 1.962286e-01 5.924733e-02 -3.305400e-02 
-1.778866e-01 -1.251805e-01 -2.650923e-03 1.761683e-01 3.622069e-01 5.370445e-01 6.720927e-01 7.530470e-01 7.480732e-01 6.639848e-01 4.617936e-01 1.786744e-01 -2.075285e-01 -6.117689e-01 -1.099793e+00 -1.571970e+00 -1.690502e+00 -1.571970e+00 -1.099793e+00 -6.117689e-01 -2.075285e-01 1.786744e-01 4.617936e-01 6.639848e-01 7.480732e-01 7.530470e-01 6.720927e-01 5.370445e-01 3.622069e-01 1.761683e-01 -2.650923e-03 -1.251805e-01 
-3.161633e-01 -2.497992e-01 -9.478418e-02 1.264341e-01 3.508154e-01 5.525196e-01 7.011517e-01 7.870229e-01 7.701644e-01 6.848431e-01 4.448685e-01 4.097597e-02 -3.571916e-01 -5.225110e-01 -9.166004e-01 -1.419486e+00 -1.480684e+00 -1.419486e+00 -9.166004e-01 -5.225110e-01 -3.571916e-01 4.097597e-02 4.448685e-01 6.848431e-01 7.701644e-01 7.870229e-01 7.011517e-01 5.525196e-01 3.508154e-01 1.264341e-01 -9.478418e-02 -2.497992e-01 
-4.965280e-01 -4.127507e-01 -2.204717e-01 5.446730e-02 3.304229e-01 5.745942e-01 7.631291e-01 8.725790e-01 8.928965e-01 8.307963e-01 6.058645e-01 1.800418e-01 -5.253197e-01 -1.019757e+00 -1.218821e+00 -1.079971e+00 -7.588732e-01 -1.079971e+00 -1.218821e+00 -1.019757e+00 -5.253197e-01 1.800418e-01 6.058645e-01 8.307963e-01 8.928965e-01 8.725790e-01 7.631291e-01 5.745942e-01 3.304229e-01 5.446730e-02 -2.204717e-01 -4.127507e-01 
-6.753625e-01 -5.766113e-01 -3.465335e-01 -2.207727e-02 3.018674e-01 5.785389e-01 7.945584e-01 9.085341e-01 9.315069e-01 9.681137e-01 4.255261e-01 -6.279293e-01 -1.456087e+00 -9.551070e-01 -3.387552e-01 -2.734619e-01 5.119699e-02 -2.734619e-01 -3.387552e-01 -9.551070e-01 -1.456087e+00 -6.279293e-01 4.255261e-01 9.681137e-01 9.315069e-01 9.085341e-01 7.945584e-01 5.785389e-01 3.018674e-01 -2.207727e-02 -3.465335e-01 -5.766113e-01 
-8.803573e-01 -7.635202e-01 -5.001878e-01 -1.218468e-01 2.486187e-01 5.729663e-01 8.451751e-01 9.954474e-01 1.090217e+00 1.010196e+00 -4.248601e-02 -6.733994e-01 -4.512084e-01 1.481968e-01 -1.996929e-01 -1.168040e+00 -1.100514e+00 -1.168040e+00 -1.996929e-01 1.481968e-01 -4.512084e-01 -6.733994e-01 -4.248601e-02 1.010196e+00 1.090217e+00 9.954474e-01 8.451751e-01 5.729663e-01 2.486187e-01 -1.218468e-01 -5.001878e-01 -7.635202e-01 
-1.027379e+00 -8.980414e-01 -6.039104e-01 -1.837118e-01 2.268833e-01 5.787991e-01 8.989354e-01 9.335725e-01 1.132712e+00 1.136512e+00 7.621726e-02 -2.451656e-01 -1.334673e-01 -2.432945e-01 -7.330303e-01 -1.078671e+00 -7.012998e-01 -1.078671e+00 -7.330303e-01 -2.432945e-01 -1.334673e-01 -2.451656e-01 7.621726e-02 1.136512e+00 1.132712e+00 9.335725e-01 8.989354e-01 5.787991e-01 2.268833e-01 -1.837118e-01 -6.039104e-01 -8.980414e-01 
-1.174260e+00 -1.033287e+00 -7.324875e-01 -2.851526e-01 1.234293e-01 5.081083e-01 8.634203e-01 9.365139e-01 1.740454e+00 1.231142e+00 -3.636543e-01 -5.798737e-01 -8.958452e-01 -5.505643e-01 -2.722523e-01 -2.268866e-01 2.481312e-01 -2.268866e-01 -2.722523e-01 -5.505643e-01 -8.958452e-01 -5.798737e-01 -3.636543e-01 1.231142e+00 1.740454e+00 9.365139e-01 8.634203e-01 5.081083e-01 1.234293e-01 -2.851526e-01 -7.324875e-01 -1.033287e+00 
-1.193107e+00 -1.051173e+00 -7.570156e-01 -2.997271e-01 1.042214e-01 6.059146e-01 9.963186e-01 1.260479e+00 1.893567e+00 3.546012e-01 -8.107340e-01 -7.924894e-02 -4.051279e-01 -4.436552e-01 -3.612064e-01 -3.471906e-01 -1.269392e-01 -3.471906e-01 -3.612064e-01 -4.436552e-01 -4.051279e-01 -7.924894e-02 -8.107340e-01 3.546012e-01 1.893567e+00 1.260479e+00 9.963186e-01 6.059146e-01 1.042214e-01 -2.997271e-01 -7.570156e-01 -1.051173e+00 
-1.154803e+00 -1.026131e+00 -7.853042e-01 -3.777474e-01 -8.204686e-02 4.857479e-01 6.249649e-01 1.658577e+00 2.020000e+00 -3.841983e-01 -4.885557e-01 9.835721e-02 -4.510791e-01 -2.979395e-01 -2.573975e-01 -1.566654e-01 -6.360047e-03 -1.566654e-01 -2.573975e-01 -2.979395e-01 -4.510791e-01 9.835721e-02 -4.885557e-01 -3.841983e-01 2.020000e+00 1.658577e+00 6.249649e-01 4.857479e-01 -8.204686e-02 -3.777474e-01 -7.853042e-01 -1.026131e+00 
-9.176061e-01 -8.206552e-01 -6.600874e-01 -3.686330e-01 -1.904762e-01 2.880646e-01 5.642352e-01 1.932219e+00 1.385484e+00 -9.255074e-01 -5.834221e-02 2.730477e-01 -2.632893e-01 -1.919501e-01 -2.510812e-01 -1.865852e-01 -1.352792e-01 -1.865852e-01 -2.510812e-01 -1.919501e-01 -2.632893e-01 2.730477e-01 -5.834221e-02 -9.255074e-01 1.385484e+00 1.932219e+00 5.642352e-01 2.880646e-01 -1.904762e-01 -3.686330e-01 -6.600874e-01 -8.206552e-01 
-5.433439e-01 -4.972248e-01 -4.181596e-01 -2.865310e-01 -1.688121e-01 1.119828e-01 5.949380e-01 1.267078e+00 4.080799e-01 -5.602835e-01 2.274188e-01 1.836175e-01 -1.930193e-01 -1.305736e-01 -1.479000e-01 -8.806515e-02 -6.174752e-02 -8.806515e-02 -1.479000e-01 -1.305736e-01 -1.930193e-01 1.836175e-01 2.274188e-01 -5.602835e-01 4.080799e-01 1.267078e+00 5.949380e-01 1.119828e-01 -1.688121e-01 -2.865310e-01 -4.181596e-01 -4.972248e-01 
1.096343e-13 9.796305e-16 -9.360649e-14 -1.293578e-13 -1.334110e-13 -3.827509e-14 1.240898e-13 2.908621e-13 2.137165e-13 -5.431721e-14 2.069878e-13 2.119172e-13 2.369438e-13 1.719657e-13 1.261355e-13 4.424722e-14 -1.811406e-14 -1.115630e-13 -1.955422e-13 -2.526737e-13 -2.377362e-13 1.435528e-13 5.502490e-13 4.674921e-13 -7.466847e-13 -1.353669e-12 -8.428063e-13 -1.635097e-13 1.697775e-13 3.458789e-13 3.520871e-13 2.484114e-13 
5.433439e-01 4.972248e-01 4.181596e-01 2.865310e-01 1.688121e-01 -1.119828e-01 -5.949380e-01 -1.267078e+00 -4.080799e-01 5.602835e-01 -2.274188e-01 -1.836175e-01 1.930193e-01 1.305736e-01 1.479000e-01 8.806515e-02 6.174752e-02 8.806515e-02 1.479000e-01 1.305736e-01 1.930193e-01 -1.836175e-01 -2.274188e-01 5.602835e-01 -4.080799e-01 -1.267078e+00 -5.949380e-01 -1.119828e-01 1.688121e-01 2.865310e-01 4.181596e-01 4.972248e-01 
9.176061e-01 8.206552e-01 6.600874e-01 3.686330e-01 1.904762e-01 -2.880646e-01 -5.642352e-01 -1.932219e+00 -1.385484e+00 9.255074e-01 5.834221e-02 -2.730477e-01 2.632893e-01 1.919501e-01 2.510812e-01 1.865852e-01 1.352792e-01 1.865852e-01 2.510812e-01 1.919501e-01 2.632893e-01 -2.730477e-01 5.834221e-02 9.255074e-01 -1.385484e+00 -1.932219e+00 -5.642352e-01 -2.880646e-01 1.904762e-01 3.686330e-01 6.600874e-01 8.206552e-01 
1.154803e+00 1.026131e+00 7.853042e-01 3.777474e-01 8.204686e-02 -4.857479e-01 -6.249649e-01 -1.658577e+00 -2.020000e+00 3.841983e-01 4.885557e-01 -9.835721e-02 4.510791e-01 2.979395e-01 2.573975e-01 1.566654e-01 6.360047e-03 1.566654e-01 2.573975e-01 2.979395e-01 4.510791e-01 -9.835721e-02 4.885557e-01 3.841983e-01 -2.020000e+00 -1.658577e+00 -6.249649e-01 -4.857479e-01 8.204686e-02 3.777474e-01 7.853042e-01 1.026131e+00 
1.193107e+00 1.051173e+00 7.570156e-01 2.997271e-01 -1.042214e-01 -6.059146e-01 -9.963186e-01 -1.260479e+00 -1.893567e+00 -3.546012e-01 8.107340e-01 7.924894e-02 4.051279e-01 4.436552e-01 3.612064e-01 3.471906e-01 1.269392e-01 3.471906e-01 3.612064e-01 4.436552e-01 4.051279e-01 7.924894e-02 8.107340e-01 -3.546012e-01 -1.893567e+00 -1.260479e+00 -9.963186e-01 -6.059146e-01 -1.042214e-01 2.997271e-01 7.570156e-01 1.051173e+00 
1.174260e+00 1.033287e+00 7.324875e-01 2.851526e-01 -1.234293e-01 -5.081083e-01 -8.634203e-01 -9.365139e-01 -1.740454e+00 -1.231142e+00 3.636543e-01 5.798737e-01 8.958452e-01 5.505643e-01 2.722523e-01 2.268866e-01 -2.481312e-01 2.268866e-01 2.722523e-01 5.505643e-01 8.958452e-01 5.798737e-01 3.636543e-01 -1.231142e+00 -1.740454e+00 -9.365139e-01 -8.634203e-01 -5.081083e-01 -1.234293e-01 2.851526e-01 7.324875e-01 1.033287e+00 
1.027379e+00 8.980414e-01 6.039104e-01 1.837118e-01 -2.268833e-01 -5.787991e-01 -8.989354e-01 -9.335725e-01 -1.132712e+00 -1.136512e+00 -7.621726e-02 2.451656e-01 1.334673e-01 2.432945e-01 7.330303e-01 1.078671e+00 7.012998e-01 1.078671e+00 7.330303e-01 2.432945e-01 1.334673e-01 2.451656e-01 -7.621726e-02 -1.136512e+00 -1.132712e+00 -9.335725e-01 -8.989354e-01 -5.787991e-01 -2.268833e-01 1.837118e-01 6.039104e-01 8.980414e-01 
8.803573e-01 7.635202e-01 5.001878e-01 1.218468e-01 -2.486187e-01 -5.729663e-01 -8.451751e-01 -9.954474e-01 -1.090217e+00 -1.010196e+00 4.248601e-02 6.733994e-01 4.512084e-01 -1.481968e-01 1.996929e-01 1.168040e+00 1.100514e+00 1.168040e+00 1.996929e-01 -1.481968e-01 4.512084e-01 6.733994e-01 4.248601e-02 -1.010196e+00 -1.090217e+00 -9.954474e-01 -8.451751e-01 -5.729663e-01 -2.486187e-01 1.218468e-01 5.001878e-01 7.635202e-01 
6.753625e-01 5.766113e-01 3.465335e-01 2.207727e-02 -3.018674e-01 -5.785389e-01 -7.945584e-01 -9.085341e-01 -9.315069e-01 -9.681137e-01 -4.255261e-01 6.279293e-01 1.456087e+00 9.551070e-01 3.387552e-01 2.734619e-01 -5.119699e-02 2.734619e-01 3.387552e-01 9.551070e-01 1.456087e+00 6.279293e-01 -4.255261e-01 -9.681137e-01 -9.315069e-01 -9.085341e-01 -7.945584e-01 -5.785389e-01 -3.018674e-01 2.207727e-02 3.465335e-01 5.766113e-01 
4.965280e-01 4.127507e-01 2.204717e-01 -5.446730e-02 -3.304229e-01 -5.745942e-01 -7.631291e-01 -8.725790e-01 -8.928965e-01 -8.307963e-01 -6.058645e-01 -1.800418e-01 5.253197e-01 1.019757e+00 1.218821e+00 1.079971e+00 7.588732e-01 1.079971e+00 1.218821e+00 1.019757e+00 5.253197e-01 -1.800418e-01 -6.058645e-01 -8.307963e-01 -8.928965e-01 -8.725790e-01 -7.631291e-01 -5.745942e-01 -3.304229e-01 -5.446730e-02 2.204717e-01 4.127507e-01 
3.161633e-01 2.497992e-01 9.478418e-02 -1.264341e-01 -3.508154e-01 -5.525196e-01 -7.011517e-01 -7.870229e-01 -7.701644e-01 -6.848431e-01 -4.448685e-01 -4.097597e-02 3.571916e-01 5.225110e-01 9.166004e-01 1.419486e+00 1.480684e+00 1.419486e+00 9.166004e-01 5.225110e-01 3.571916e-01 -4.097597e-02 -4.448685e-01 -6.848431e-01 -7.701644e-01 -7.870229e-01 -7.011517e-01 -5.525196e-01 -3.508154e-01 -1.264341e-01 9.478418e-02 2.497992e-01 
1.778866e-01 1.251805e-01 2.650923e-03 -1.761683e-01 -3.622069e-01 -5.370445e-01 -6.720927e-01 -7.530470e-01 -7.480732e-01 -6.639848e-01 -4.617936e-01 -1.786744e-01 2.075285e-01 6.117689e-01 1.099793e+00 1.571970e+00 1.690502e+00 1.571970e+00 1.099793e+00 6.117689e-01 2.075285e-01 -1.786744e-01 -4.617936e-01 -6.639848e-01 -7.480732e-01 -7.530470e-01 -6.720927e-01 -5.370445e-01 -3.622069e-01 -1.761683e-01 2.650923e-03 1.251805e-01 
7.217020e-02 3.305400e-02 -5.924733e-02 -1.962286e-01 -3.418582e-01 -4.836672e-01 -5.921699e-01 -6.578873e-01 -6.446737e-01 -5.637629e-01 -3.856916e-01 -1.402422e-01 1.601962e-01 4.837150e-01 9.705838e-01 1.525019e+00 1.713551e+00 1.525019e+00 9.705838e-01 4.837150e-01 1.601962e-01 -1.402422e-01 -3.856916e-01 -5.637629e-01 -6.446737e-01 -6.578873e-01 -5.921699e-01 -4.836672e-01 -3.418582e-01 -1.962286e-01 -5.924733e-02 3.305400e-02 
9.689447e-03 -1.887294e-02 -8.686311e-02 -1.904372e-01 -3.044820e-01 -4.193047e-01 -5.112157e-01 -5.681565e-01 -5.631512e-01 -4.980407e-01 -3.518899e-01 -1.478261e-01 1.289618e-01 4.692587e-01 9.039801e-01 1.373379e+00 1.559630e+00 1.373379e+00 9.039801e-01 4.692587e-01 1.289618e-01 -1.478261e-01 -3.518899e-01 -4.980407e-01 -5.631512e-01 -5.681565e-01 -5.112157e-01 -4.193047e-01 -3.044820e-01 -1.904372e-01 -8.686311e-02 -1.887294e-02 
-1.692653e-02 -3.528103e-02 -7.954978e-02 -1.482291e-01 -2.251534e-01 -3.043334e-01 -3.674191e-01 -4.068351e-01 -4.018423e-01 -3.543497e-01 -2.506396e-01 -1.038562e-01 9.295612e-02 3.373848e-01 6.573621e-01 1.015500e+00 1.165499e+00 1.015500e+00 6.573621e-01 3.373848e-01 9.295612e-02 -1.038562e-01 -2.506396e-01 -3.543497e-01 -4.018423e-01 -4.068351e-01 -3.674191e-01 -3.043334e-01 -2.251534e-01 -1.482291e-01 -7.954978e-02 -3.528103e-02 
-1.612564e-02 -2.535984e-02 -4.784627e-02 -8.317315e-02 -1.235429e-01 -1.655320e-01 -1.998227e-01 -2.213572e-01 -2.197148e-01 -1.942025e-01 -1.375168e-01 -5.588579e-02 5.516053e-02 1.946611e-01 3.650426e-01 5.508494e-01 6.326062e-01 5.508494e-01 3.650426e-01 1.946611e-01 5.516053e-02 -5.588579e-02 -1.375168e-01 -1.942025e-01 -2.197148e-01 -2.213572e-01 -1.998227e-01 -1.655320e-01 -1.235429e-01 -8.317315e-02 -4.784627e-02 -2.535984e-02 
