# vtk DataFile Version 2.0
Comment goes here
ASCII

DATASET STRUCTURED_POINTS
FIELD FieldData 1
TIME 1 1 double
0.56000000
DIMENSIONS    32   32   1

ORIGIN    0.000   0.000   0.000
SPACING   0.03125 0.03125   1.000

POINT_DATA   1024
SCALARS uY double
LOOKUP_TABLE default

-4.203055e-15 1.200673e-15 -5.716470e-15 3.201489e-15 -5.338703e-15 7.634616e-15 -1.712390e-15 1.396485e-14 5.653255e-15 1.604739e-14 6.148013e-15 2.640039e-17 -9.734928e-15 -2.822507e-14 -2.785081e-14 -4.073850e-14 5.347238e-15 1.144233e-14 1.802972e-14 1.676300e-14 9.834922e-15 -1.101865e-15 -3.578880e-15 -1.196012e-14 -5.140074e-15 -8.619645e-15 -2.215439e-15 -3.927601e-15 -1.426945e-15 -8.096829e-16 -2.223590e-15 4.553098e-16 
-3.709324e-02 -3.475499e-02 -2.336497e-02 -9.803052e-03 1.387965e-02 3.573703e-02 7.255711e-02 1.036612e-01 1.512204e-01 1.797253e-01 2.035699e-01 1.842509e-01 1.176041e-01 -4.327548e-03 -1.936648e-01 -4.544888e-01 -6.465095e-01 -4.544888e-01 -1.936648e-01 -4.327548e-03 1.176041e-01 1.842509e-01 2.035699e-01 1.797253e-01 1.512204e-01 1.036612e-01 7.255711e-02 3.573703e-02 1.387965e-02 -9.803052e-03 -2.336497e-02 -3.475499e-02 
-8.146698e-02 -7.623590e-02 -5.398327e-02 -2.721009e-02 1.752591e-02 5.720362e-02 1.237100e-01 1.766547e-01 2.624397e-01 3.132042e-01 3.661841e-01 3.467542e-01 2.489573e-01 4.898423e-02 -3.101510e-01 -8.393550e-01 -1.227899e+00 -8.393550e-01 -3.101510e-01 4.898423e-02 2.489573e-01 3.467542e-01 3.661841e-01 3.132042e-01 2.624397e-01 1.766547e-01 1.237100e-01 5.720362e-02 1.752591e-02 -2.721009e-02 -5.398327e-02 -7.623590e-02 
-1.366133e-01 -1.272439e-01 -9.218244e-02 -4.957896e-02 1.713563e-02 7.370281e-02 1.659662e-01 2.323131e-01 3.489577e-01 4.079381e-01 4.963344e-01 4.847761e-01 3.599810e-01 1.214249e-01 -3.746170e-01 -1.143332e+00 -1.706538e+00 -1.143332e+00 -3.746170e-01 1.214249e-01 3.599810e-01 4.847761e-01 4.963344e-01 4.079381e-01 3.489577e-01 2.323131e-01 1.659662e-01 7.370281e-02 1.713563e-02 -4.957896e-02 -9.218244e-02 -1.272439e-01 
-2.123697e-01 -1.965021e-01 -1.484450e-01 -8.828805e-02 -3.513899e-03 6.392788e-02 1.693848e-01 2.329508e-01 3.594064e-01 4.003772e-01 5.126075e-01 5.232307e-01 4.532611e-01 2.871170e-01 -3.163207e-01 -1.222813e+00 -1.840391e+00 -1.222813e+00 -3.163207e-01 2.871170e-01 4.532611e-01 5.232307e-01 5.126075e-01 4.003772e-01 3.594064e-01 2.329508e-01 1.693848e-01 6.392788e-02 -3.513899e-03 -8.828805e-02 -1.484450e-01 -1.965021e-01 
-3.121078e-01 -2.862661e-01 -2.186060e-01 -1.318503e-01 -2.218059e-02 6.225372e-02 1.832826e-01 2.470830e-01 3.838341e-01 3.864959e-01 5.689877e-01 5.548470e-01 3.946279e-01 2.757396e-01 -3.265579e-01 -1.108303e+00 -1.614668e+00 -1.108303e+00 -3.265579e-01 2.757396e-01 3.946279e-01 5.548470e-01 5.689877e-01 3.864959e-01 3.838341e-01 2.470830e-01 1.832826e-01 6.225372e-02 -2.218059e-02 -1.318503e-01 -2.186060e-01 -2.862661e-01 
-4.419439e-01 -4.008686e-01 -3.101805e-01 -1.892891e-01 -5.605334e-02 4.188815e-02 1.678065e-01 2.192810e-01 3.406379e-01 2.581610e-01 4.200850e-01 3.679880e-01 4.341364e-01 3.620442e-01 -3.527559e-01 -6.592046e-01 -8.454082e-01 -6.592046e-01 -3.527559e-01 3.620442e-01 4.341364e-01 3.679880e-01 4.200850e-01 2.581610e-01 3.406379e-01 2.192810e-01 1.678065e-01 4.188815e-02 -5.605334e-02 -1.892891e-01 -3.101805e-01 -4.008686e-01 
-6.089282e-01 -5.470303e-01 -4.217695e-01 -2.511279e-01 -8.104511e-02 4.263864e-02 1.827646e-01 2.388436e-01 3.323434e-01 2.196466e-01 6.895903e-01 6.026066e-01 4.829855e-02 -4.342227e-01 -5.050549e-01 1.286455e-01 1.186735e-01 1.286455e-01 -5.050549e-01 -4.342227e-01 4.829855e-02 6.026066e-01 6.895903e-01 2.196466e-01 3.323434e-01 2.388436e-01 1.827646e-01 4.263864e-02 -8.104511e-02 -2.511279e-01 -4.217695e-01 -5.470303e-01 
-7.974690e-01 -7.079774e-01 -5.446610e-01 -3.130049e-01 -1.091026e-01 3.559204e-02 1.903340e-01 2.503426e-01 4.070066e-01 2.920384e-01 1.444026e-01 -5.128219e-01 -3.426627e-01 2.701121e-01 5.168739e-01 6.857191e-01 2.730877e-01 6.857191e-01 5.168739e-01 2.701121e-01 -3.426627e-01 -5.128219e-01 1.444026e-01 2.920384e-01 4.070066e-01 2.503426e-01 1.903340e-01 3.559204e-02 -1.091026e-01 -3.130049e-01 -5.446610e-01 -7.079774e-01 
-1.016647e+00 -8.948364e-01 -6.855409e-01 -3.817304e-01 -1.342291e-01 4.093881e-02 2.578216e-01 4.127562e-01 3.907516e-01 -6.221310e-02 -1.615396e-01 4.146746e-02 5.436556e-01 5.903052e-01 2.982149e-01 2.533122e-01 -1.621551e-03 2.533122e-01 2.982149e-01 5.903052e-01 5.436556e-01 4.146746e-02 -1.615396e-01 -6.221310e-02 3.907516e-01 4.127562e-01 2.578216e-01 4.093881e-02 -1.342291e-01 -3.817304e-01 -6.855409e-01 -8.948364e-01 
-1.208134e+00 -1.049245e+00 -7.983993e-01 -4.170815e-01 -1.583236e-01 4.420622e-02 3.751377e-01 6.290040e-01 4.402037e-01 9.233922e-02 3.346604e-01 2.716663e-01 1.607401e-01 6.227063e-02 6.638907e-02 3.668406e-01 3.673176e-01 3.668406e-01 6.638907e-02 6.227063e-02 1.607401e-01 2.716663e-01 3.346604e-01 9.233922e-02 4.402037e-01 6.290040e-01 3.751377e-01 4.420622e-02 -1.583236e-01 -4.170815e-01 -7.983993e-01 -1.049245e+00 
-1.390216e+00 -1.192802e+00 -9.096453e-01 -4.614052e-01 -2.040114e-01 1.122153e-01 9.392417e-01 9.112935e-01 1.629796e-02 -1.514686e-01 1.269045e-01 -1.928943e-01 -8.350107e-02 2.072773e-01 4.476154e-01 7.677842e-01 7.244119e-01 7.677842e-01 4.476154e-01 2.072773e-01 -8.350107e-02 -1.928943e-01 1.269045e-01 -1.514686e-01 1.629796e-02 9.112935e-01 9.392417e-01 1.122153e-01 -2.040114e-01 -4.614052e-01 -9.096453e-01 -1.192802e+00 
-1.444966e+00 -1.217357e+00 -9.074630e-01 -3.779371e-01 -1.265166e-01 6.582012e-01 1.641946e+00 3.368415e-01 -6.339652e-01 -6.920457e-02 3.223536e-01 8.980962e-02 -2.958474e-02 9.839437e-02 2.013701e-01 4.812517e-01 5.086846e-01 4.812517e-01 2.013701e-01 9.839437e-02 -2.958474e-02 8.980962e-02 3.223536e-01 -6.920457e-02 -6.339652e-01 3.368415e-01 1.641946e+00 6.582012e-01 -1.265166e-01 -3.779371e-01 -9.074630e-01 -1.217357e+00 
-1.401379e+00 -1.158530e+00 -8.661284e-01 -2.936142e-01 -8.396962e-02 1.208932e+00 1.394356e+00 -1.043080e+00 -3.434884e-01 8.845540e-01 4.396866e-01 -7.226778e-02 -2.180082e-01 4.242119e-02 1.590120e-01 4.315851e-01 4.384602e-01 4.315851e-01 1.590120e-01 4.242119e-02 -2.180082e-01 -7.226778e-02 4.396866e-01 8.845540e-01 -3.434884e-01 -1.043080e+00 1.394356e+00 1.208932e+00 -8.396962e-02 -2.936142e-01 -8.661284e-01 -1.158530e+00 
-1.106518e+00 -9.084999e-01 -6.225257e-01 -1.616384e-01 1.559550e-01 1.250097e+00 4.553857e-01 -1.377004e+00 3.440127e-01 1.133553e+00 3.319590e-01 -6.878741e-02 -2.103959e-01 -4.710712e-02 4.436481e-03 1.793865e-01 1.888638e-01 1.793865e-01 4.436481e-03 -4.710712e-02 -2.103959e-01 -6.878741e-02 3.319590e-01 1.133553e+00 3.440127e-01 -1.377004e+00 4.553857e-01 1.250097e+00 1.559550e-01 -1.616384e-01 -6.225257e-01 -9.084999e-01 
-6.247908e-01 -5.127283e-01 -3.142634e-01 -8.918921e-02 2.072694e-01 6.770596e-01 -5.414323e-02 -6.878811e-01 4.328977e-01 6.786884e-01 1.753983e-01 -9.505704e-02 -1.661032e-01 -5.952540e-02 -1.351550e-02 8.863298e-02 8.971048e-02 8.863298e-02 -1.351550e-02 -5.952540e-02 -1.661032e-01 -9.505704e-02 1.753983e-01 6.786884e-01 4.328977e-01 -6.878811e-01 -5.414323e-02 6.770596e-01 2.072694e-01 -8.918921e-02 -3.142634e-01 -5.127283e-01 
5.698031e-15 9.016688e-15 1.995599e-14 2.035386e-14 6.047269e-14 8.742893e-14 -2.109176e-14 -6.458076e-14 -3.241197e-14 2.866405e-14 -1.662023e-14 1.996270e-14 -9.840660e-15 1.482633e-14 -1.535361e-14 3.420474e-15 -1.072050e-14 -1.294065e-14 -5.178478e-15 -3.408985e-14 -1.705595e-14 -6.086542e-14 -2.201427e-14 -6.963790e-14 6.648820e-14 1.222920e-13 -1.503883e-14 -1.003052e-13 -1.984085e-14 9.875111e-15 8.424070e-15 1.933166e-15 
6.247908e-01 5.127283e-01 3.142634e-01 8.918921e-02 -2.072694e-01 -6.770596e-01 5.414323e-02 6.878811e-01 -4.328977e-01 -6.786884e-01 -1.753983e-01 9.505704e-02 1.661032e-01 5.952540e-02 1.351550e-02 -8.863298e-02 -8.971048e-02 -8.863298e-02 1.351550e-02 5.952540e-02 1.661032e-01 9.505704e-02 -1.753983e-01 -6.786884e-01 -4.328977e-01 6.878811e-01 5.414323e-02 -6.770596e-01 -2.072694e-01 8.918921e-02 3.142634e-01 5.127283e-01 
1.106518e+00 9.084999e-01 6.225257e-01 1.616384e-01 -1.559550e-01 -1.250097e+00 -4.553857e-01 1.377004e+00 -3.440127e-01 -1.133553e+00 -3.319590e-01 6.878741e-02 2.103959e-01 4.710712e-02 -4.436481e-03 -1.793865e-01 -1.888638e-01 -1.793865e-01 -4.436481e-03 4.710712e-02 2.103959e-01 6.878741e-02 -3.319590e-01 -1.133553e+00 -3.440127e-01 1.377004e+00 -4.553857e-01 -1.250097e+00 -1.559550e-01 1.616384e-01 6.225257e-01 9.084999e-01 
1.401379e+00 1.158530e+00 8.661284e-01 2.936142e-01 8.396962e-02 -1.208932e+00 -1.394356e+00 1.043080e+00 3.434884e-01 -8.845540e-01 -4.396866e-01 7.226778e-02 2.180082e-01 -4.242119e-02 -1.590120e-01 -4.315851e-01 -4.384602e-01 -4.315851e-01 -1.590120e-01 -4.242119e-02 2.180082e-01 7.226778e-02 -4.396866e-01 -8.845540e-01 3.434884e-01 1.043080e+00 -1.394356e+00 -1.208932e+00 8.396962e-02 2.936142e-01 8.661284e-01 1.158530e+00 
1.444966e+00 1.217357e+00 9.074630e-01 3.779371e-01 1.265166e-01 -6.582012e-01 -1.641946e+00 -3.368415e-01 6.339652e-01 6.920457e-02 -3.223536e-01 -8.980962e-02 2.958474e-02 -9.839437e-02 -2.013701e-01 -4.812517e-01 -5.086846e-01 -4.812517e-01 -2.013701e-01 -9.839437e-02 2.958474e-02 -8.980962e-02 -3.223536e-01 6.920457e-02 6.339652e-01 -3.368415e-01 -1.641946e+00 -6.582012e-01 1.265166e-01 3.779371e-01 9.074630e-01 1.217357e+00 
1.390216e+00 1.192802e+00 9.096453e-01 4.614052e-01 2.040114e-01 -1.122153e-01 -9.392417e-01 -9.112935e-01 -1.629796e-02 1.514686e-01 -1.269045e-01 1.928943e-01 8.350107e-02 -2.072773e-01 -4.476154e-01 -7.677842e-01 -7.244119e-01 -7.677842e-01 -4.476154e-01 -2.072773e-01 8.350107e-02 1.928943e-01 -1.269045e-01 1.514686e-01 -1.629796e-02 -9.112935e-01 -9.392417e-01 -1.122153e-01 2.040114e-01 4.614052e-01 9.096453e-01 1.192802e+00 
1.208134e+00 1.049245e+00 7.983993e-01 4.170815e-01 1.583236e-01 -4.420622e-02 -3.751377e-01 -6.290040e-01 -4.402037e-01 -9.233922e-02 -3.346604e-01 -2.716663e-01 -1.607401e-01 -6.227063e-02 -6.638907e-02 -3.668406e-01 -3.673176e-01 -3.668406e-01 -6.638907e-02 -6.227063e-02 -1.607401e-01 -2.716663e-01 -3.346604e-01 -9.233922e-02 -4.402037e-01 -6.290040e-01 -3.751377e-01 -4.420622e-02 1.583236e-01 4.170815e-01 7.983993e-01 1.049245e+00 
1.016647e+00 8.948364e-01 6.855409e-01 3.817304e-01 1.342291e-01 -4.093881e-02 -2.578216e-01 -4.127562e-01 -3.907516e-01 6.221310e-02 1.615396e-01 -4.146746e-02 -5.436556e-01 -5.903052e-01 -2.982149e-01 -2.533122e-01 1.621551e-03 -2.533122e-01 -2.982149e-01 -5.903052e-01 -5.436556e-01 -4.146746e-02 1.615396e-01 6.221310e-02 -3.907516e-01 -4.127562e-01 -2.578216e-01 -4.093881e-02 1.342291e-01 3.817304e-01 6.855409e-01 8.948364e-01 
7.974690e-01 7.079774e-01 5.446610e-01 3.130049e-01 1.091026e-01 -3.559204e-02 -1.903340e-01 -2.503426e-01 -4.070066e-01 -2.920384e-01 -1.444026e-01 5.128219e-01 3.426627e-01 -2.701121e-01 -5.168739e-01 -6.857191e-01 -2.730877e-01 -6.857191e-01 -5.168739e-01 -2.701121e-01 3.426627e-01 5.128219e-01 -1.444026e-01 -2.920384e-01 -4.070066e-01 -2.503426e-01 -1.903340e-01 -3.559204e-02 1.091026e-01 3.130049e-01 5.446610e-01 7.079774e-01 
6.089282e-01 5.470303e-01 4.217695e-01 2.511279e-01 8.104511e-02 -4.263864e-02 -1.827646e-01 -2.388436e-01 -3.323434e-01 -2.196466e-01 -6.895903e-01 -6.026066e-01 -4.829855e-02 4.342227e-01 5.050549e-01 -1.286455e-01 -1.186735e-01 -1.286455e-01 5.050549e-01 4.342227e-01 -4.829855e-02 -6.026066e-01 -6.895903e-01 -2.196466e-01 -3.323434e-01 -2.388436e-01 -1.827646e-01 -4.263864e-02 8.104511e-02 2.511279e-01 4.217695e-01 5.470303e-01 
4.419439e-01 4.008686e-01 3.101805e-01 1.892891e-01 5.605334e-02 -4.188815e-02 -1.678065e-01 -2.192810e-01 -3.406379e-01 -2.581610e-01 -4.200850e-01 -3.679880e-01 -4.341364e-01 -3.620442e-01 3.527559e-01 6.592046e-01 8.454082e-01 6.592046e-01 3.527559e-01 -3.620442e-01 -4.341364e-01 -3.679880e-01 -4.200850e-01 -2.581610e-01 -3.406379e-01 -2.192810e-01 -1.678065e-01 -4.188815e-02 5.605334e-02 1.892891e-01 3.101805e-01 4.008686e-01 
3.121078e-01 2.862661e-01 2.186060e-01 1.318503e-01 2.218059e-02 -6.225372e-02 -1.832826e-01 -2.470830e-01 -3.838341e-01 -3.864959e-01 -5.689877e-01 -5.548470e-01 -3.946279e-01 -2.757396e-01 3.265579e-01 1.108303e+00 1.614668e+00 1.108303e+00 3.265579e-01 -2.757396e-01 -3.946279e-01 -5.548470e-01 -5.689877e-01 -3.864959e-01 -3.838341e-01 -2.470830e-01 -1.832826e-01 -6.225372e-02 2.218059e-02 1.318503e-01 2.186060e-01 2.862661e-01 
2.123697e-01 1.965021e-01 1.484450e-01 8.828805e-02 3.513899e-03 -6.392788e-02 -1.693848e-01 -2.329508e-01 -3.594064e-01 -4.003772e-01 -5.126075e-01 -5.232307e-01 -4.532611e-01 -2.871170e-01 3.163207e-01 1.222813e+00 1.840391e+00 1.222813e+00 3.163207e-01 -2.871170e-01 -4.532611e-01 -5.232307e-01 -5.126075e-01 -4.003772e-01 -3.594064e-01 -2.329508e-01 -1.693848e-01 -6.392788e-02 3.513899e-03 8.828805e-02 1.484450e-01 1.965021e-01 
1.366133e-01 1.272439e-01 9.218244e-02 4.957896e-02 -1.713563e-02 -7.370281e-02 -1.659662e-01 -2.323131e-01 -3.489577e-01 -4.079381e-01 -4.963344e-01 -4.847761e-01 -3.599810e-01 -1.214249e-01 3.746170e-01 1.143332e+00 1.706538e+00 1.143332e+00 3.746170e-01 -1.214249e-01 -3.599810e-01 -4.847761e-01 -4.963344e-01 -4.079381e-01 -3.489577e-01 -2.323131e-01 -1.659662e-01 -7.370281e-02 -1.713563e-02 4.957896e-02 9.218244e-02 1.272439e-01 
8.146698e-02 7.623590e-02 5.398327e-02 2.721009e-02 -1.752591e-02 -5.720362e-02 -1.237100e-01 -1.766547e-01 -2.624397e-01 -3.132042e-01 -3.661841e-01 -3.467542e-01 -2.489573e-01 -4.898423e-02 3.101510e-01 8.393550e-01 1.227899e+00 8.393550e-01 3.101510e-01 -4.898423e-02 -2.489573e-01 -3.467542e-01 -3.661841e-01 -3.132042e-01 -2.624397e-01 -1.766547e-01 -1.237100e-01 -5.720362e-02 -1.752591e-02 2.721009e-02 5.398327e-02 7.623590e-02 
3.709324e-02 3.475499e-02 2.336497e-02 9.803052e-03 -1.387965e-02 -3.573703e-02 -7.255711e-02 -1.036612e-01 -1.512204e-01 -1.797253e-01 -2.035699e-01 -1.842509e-01 -1.176041e-01 4.327548e-03 1.936648e-01 4.544888e-01 6.465095e-01 4.544888e-01 1.936648e-01 4.327548e-03 -1.176041e-01 -1.842509e-01 -2.035699e-01 -1.797253e-01 -1.512204e-01 -1.036612e-01 -7.255711e-02 -3.573703e-02 -1.387965e-02 9.803052e-03 2.336497e-02 3.475499e-02 
