# vtk DataFile Version 2.0
Comment goes here
ASCII

DATASET STRUCTURED_POINTS
FIELD FieldData 1
TIME 1 1 double
0.24000000
DIMENSIONS    32   32   1

ORIGIN    0.000   0.000   0.000
SPACING   0.03125 0.03125   1.000

POINT_DATA   1024
SCALARS uY double
LOOKUP_TABLE default

-2.705125e-15 1.521939e-15 -5.554668e-15 1.540931e-16 -6.841363e-15 -4.824973e-16 -7.563658e-15 -1.267979e-15 -5.592549e-15 -3.361055e-15 -8.591732e-16 -9.275928e-15 2.830181e-15 -1.252491e-14 -7.875906e-15 -4.433131e-14 -7.627060e-17 1.902155e-14 9.447059e-15 6.725777e-15 2.153355e-15 5.211495e-15 2.490125e-15 5.016004e-15 2.951537e-15 6.662403e-15 3.101681e-15 6.715081e-15 2.000740e-15 5.408024e-15 1.097062e-16 3.791571e-15 
-5.708761e-02 -5.656966e-02 -5.253635e-02 -4.735659e-02 -3.939003e-02 -2.915190e-02 -1.610170e-02 1.466034e-03 2.432520e-02 5.266834e-02 9.173221e-02 1.333954e-01 1.792940e-01 1.777863e-01 1.079715e-01 -2.322379e-01 -5.335021e-01 -2.322379e-01 1.079715e-01 1.777863e-01 1.792940e-01 1.333954e-01 9.173221e-02 5.266834e-02 2.432520e-02 1.466034e-03 -1.610170e-02 -2.915190e-02 -3.939003e-02 -4.735659e-02 -5.253635e-02 -5.656966e-02 
-1.151914e-01 -1.145522e-01 -1.057082e-01 -9.573687e-02 -7.912237e-02 -5.983176e-02 -3.420490e-02 -1.934881e-03 3.951000e-02 9.076730e-02 1.582127e-01 2.464994e-01 3.435838e-01 3.738964e-01 2.618645e-01 -4.391073e-01 -1.053080e+00 -4.391073e-01 2.618645e-01 3.738964e-01 3.435838e-01 2.464994e-01 1.582127e-01 9.076730e-02 3.951000e-02 -1.934881e-03 -3.420490e-02 -5.983176e-02 -7.912237e-02 -9.573687e-02 -1.057082e-01 -1.145522e-01 
-1.805046e-01 -1.790104e-01 -1.662319e-01 -1.508064e-01 -1.276793e-01 -9.867090e-02 -6.331528e-02 -1.434121e-02 4.623869e-02 1.238734e-01 2.301605e-01 3.734825e-01 5.390693e-01 6.136015e-01 3.664874e-01 -6.681285e-01 -1.468954e+00 -6.681285e-01 3.664874e-01 6.136015e-01 5.390693e-01 3.734825e-01 2.301605e-01 1.238734e-01 4.623869e-02 -1.434121e-02 -6.331528e-02 -9.867090e-02 -1.276793e-01 -1.508064e-01 -1.662319e-01 -1.790104e-01 
-2.495272e-01 -2.479839e-01 -2.282854e-01 -2.074075e-01 -1.741926e-01 -1.373036e-01 -8.976452e-02 -3.362686e-02 3.554932e-02 1.134421e-01 2.009752e-01 3.627376e-01 5.355400e-01 7.701381e-01 5.094205e-01 -6.199961e-01 -1.328958e+00 -6.199961e-01 5.094205e-01 7.701381e-01 5.355400e-01 3.627376e-01 2.009752e-01 1.134421e-01 3.554932e-02 -3.362686e-02 -8.976452e-02 -1.373036e-01 -1.741926e-01 -2.074075e-01 -2.282854e-01 -2.479839e-01 
-3.323572e-01 -3.292241e-01 -3.027683e-01 -2.741167e-01 -2.343889e-01 -1.879867e-01 -1.357555e-01 -7.679377e-02 -9.775102e-03 7.983196e-02 2.059256e-01 3.482446e-01 5.966731e-01 9.501982e-01 4.648889e-01 -5.101535e-01 -8.372424e-01 -5.101535e-01 4.648889e-01 9.501982e-01 5.966731e-01 3.482446e-01 2.059256e-01 7.983196e-02 -9.775102e-03 -7.679377e-02 -1.357555e-01 -1.879867e-01 -2.343889e-01 -2.741167e-01 -3.027683e-01 -3.292241e-01 
-4.247655e-01 -4.197018e-01 -3.786619e-01 -3.376076e-01 -2.810870e-01 -2.222167e-01 -1.502106e-01 -1.117979e-01 -3.316707e-02 2.915499e-02 1.001850e-01 3.114109e-01 5.881993e-01 7.027566e-01 2.610636e-01 4.800144e-02 2.121228e-01 4.800144e-02 2.610636e-01 7.027566e-01 5.881993e-01 3.114109e-01 1.001850e-01 2.915499e-02 -3.316707e-02 -1.117979e-01 -1.502106e-01 -2.222167e-01 -2.810870e-01 -3.376076e-01 -3.786619e-01 -4.197018e-01 
-5.372439e-01 -5.270142e-01 -4.651465e-01 -4.050042e-01 -3.353773e-01 -2.638611e-01 -2.099087e-01 -2.024459e-01 -1.576071e-01 4.398081e-02 3.571287e-01 4.683500e-01 4.103423e-01 3.739264e-01 2.908229e-01 5.120682e-01 7.567354e-01 5.120682e-01 2.908229e-01 3.739264e-01 4.103423e-01 4.683500e-01 3.571287e-01 4.398081e-02 -1.576071e-01 -2.024459e-01 -2.099087e-01 -2.638611e-01 -3.353773e-01 -4.050042e-01 -4.651465e-01 -5.270142e-01 
-6.727357e-01 -6.530611e-01 -5.542455e-01 -4.643426e-01 -3.736959e-01 -2.775481e-01 -2.333735e-01 -1.503062e-01 2.111956e-01 3.558785e-01 9.125321e-02 1.300422e-01 4.300955e-01 5.397400e-01 4.406373e-01 5.195974e-01 6.490025e-01 5.195974e-01 4.406373e-01 5.397400e-01 4.300955e-01 1.300422e-01 9.125321e-02 3.558785e-01 2.111956e-01 -1.503062e-01 -2.333735e-01 -2.775481e-01 -3.736959e-01 -4.643426e-01 -5.542455e-01 -6.530611e-01 
-8.320761e-01 -7.975514e-01 -6.437827e-01 -5.196465e-01 -4.039552e-01 -2.645712e-01 -1.569846e-01 1.914032e-02 6.565720e-02 1.075685e-02 1.960394e-01 5.733372e-01 7.989330e-01 6.512047e-01 3.845991e-01 3.273300e-01 3.510639e-01 3.273300e-01 3.845991e-01 6.512047e-01 7.989330e-01 5.733372e-01 1.960394e-01 1.075685e-02 6.565720e-02 1.914032e-02 -1.569846e-01 -2.645712e-01 -4.039552e-01 -5.196465e-01 -6.437827e-01 -7.975514e-01 
-1.019071e+00 -9.636922e-01 -7.387327e-01 -5.855829e-01 -4.206139e-01 -1.202799e-01 7.664653e-03 -9.384944e-02 -2.756079e-01 2.732704e-02 4.530747e-01 4.024428e-01 4.185079e-01 5.668612e-01 6.564744e-01 7.667735e-01 8.175370e-01 7.667735e-01 6.564744e-01 5.668612e-01 4.185079e-01 4.024428e-01 4.530747e-01 2.732704e-02 -2.756079e-01 -9.384944e-02 7.664653e-03 -1.202799e-01 -4.206139e-01 -5.855829e-01 -7.387327e-01 -9.636922e-01 
-1.188394e+00 -1.110935e+00 -8.078124e-01 -6.396787e-01 -2.825450e-01 3.312075e-01 -4.040700e-02 -6.767987e-01 -4.831954e-01 1.815518e-01 3.566723e-01 -5.006242e-02 1.484144e-01 6.881003e-01 1.030188e+00 1.276615e+00 1.345764e+00 1.276615e+00 1.030188e+00 6.881003e-01 1.484144e-01 -5.006242e-02 3.566723e-01 1.815518e-01 -4.831954e-01 -6.767987e-01 -4.040700e-02 3.312075e-01 -2.825450e-01 -6.396787e-01 -8.078124e-01 -1.110935e+00 
-1.307099e+00 -1.204926e+00 -8.428911e-01 -6.768367e-01 1.720726e-01 7.166934e-01 -8.121750e-01 -1.052187e+00 1.668824e-01 5.611566e-01 4.468554e-01 1.290295e-01 2.264036e-01 5.112952e-01 7.298610e-01 1.015775e+00 1.133081e+00 1.015775e+00 7.298610e-01 5.112952e-01 2.264036e-01 1.290295e-01 4.468554e-01 5.611566e-01 1.668824e-01 -1.052187e+00 -8.121750e-01 7.166934e-01 1.720726e-01 -6.768367e-01 -8.428911e-01 -1.204926e+00 
-1.274139e+00 -1.148472e+00 -8.028843e-01 -5.309311e-01 6.766213e-01 2.227404e-01 -1.591318e+00 -8.066003e-02 1.373301e+00 7.878809e-01 9.220175e-02 -2.629922e-01 -7.297616e-02 2.229793e-01 5.087639e-01 7.894543e-01 9.067193e-01 7.894543e-01 5.087639e-01 2.229793e-01 -7.297616e-02 -2.629922e-01 9.220175e-02 7.878809e-01 1.373301e+00 -8.066003e-02 -1.591318e+00 2.227404e-01 6.766213e-01 -5.309311e-01 -8.028843e-01 -1.148472e+00 
-1.077640e+00 -8.954489e-01 -7.178801e-01 -2.023404e-01 7.052430e-01 -4.512794e-01 -1.077239e+00 9.391663e-01 1.346117e+00 4.099643e-01 -4.796516e-02 -2.512007e-01 -1.333349e-01 4.139949e-02 2.185001e-01 4.097393e-01 4.907592e-01 4.097393e-01 2.185001e-01 4.139949e-02 -1.333349e-01 -2.512007e-01 -4.796516e-02 4.099643e-01 1.346117e+00 9.391663e-01 -1.077239e+00 -4.512794e-01 7.052430e-01 -2.023404e-01 -7.178801e-01 -8.954489e-01 
-6.068768e-01 -4.702557e-01 -4.102622e-01 6.483713e-02 4.875877e-01 -3.962662e-01 -4.172134e-01 6.818186e-01 6.989720e-01 1.894486e-01 -9.272373e-02 -2.076912e-01 -1.454881e-01 -3.774652e-02 7.314010e-02 1.758552e-01 2.188520e-01 1.758552e-01 7.314010e-02 -3.774652e-02 -1.454881e-01 -2.076912e-01 -9.272373e-02 1.894486e-01 6.989720e-01 6.818186e-01 -4.172134e-01 -3.962662e-01 4.875877e-01 6.483713e-02 -4.102622e-01 -4.702557e-01 
1.407195e-14 8.049837e-15 9.496017e-15 1.144487e-14 -2.262681e-14 -6.284648e-14 -2.277148e-15 7.312793e-14 4.504158e-15 1.941515e-14 4.888238e-16 1.867492e-14 2.940043e-15 2.902611e-15 5.996656e-15 -7.276051e-15 8.152578e-15 -1.315581e-14 2.989976e-16 -1.516073e-14 -2.619535e-15 -9.929280e-15 -7.022269e-15 6.274736e-16 -2.744107e-14 -4.549970e-14 -1.138447e-14 -2.282426e-14 -8.466410e-16 1.771557e-14 1.628439e-14 1.371821e-14 
6.068768e-01 4.702557e-01 4.102622e-01 -6.483713e-02 -4.875877e-01 3.962662e-01 4.172134e-01 -6.818186e-01 -6.989720e-01 -1.894486e-01 9.272373e-02 2.076912e-01 1.454881e-01 3.774652e-02 -7.314010e-02 -1.758552e-01 -2.188520e-01 -1.758552e-01 -7.314010e-02 3.774652e-02 1.454881e-01 2.076912e-01 9.272373e-02 -1.894486e-01 -6.989720e-01 -6.818186e-01 4.172134e-01 3.962662e-01 -4.875877e-01 -6.483713e-02 4.102622e-01 4.702557e-01 
1.077640e+00 8.954489e-01 7.178801e-01 2.023404e-01 -7.052430e-01 4.512794e-01 1.077239e+00 -9.391663e-01 -1.346117e+00 -4.099643e-01 4.796516e-02 2.512007e-01 1.333349e-01 -4.139949e-02 -2.185001e-01 -4.097393e-01 -4.907592e-01 -4.097393e-01 -2.185001e-01 -4.139949e-02 1.333349e-01 2.512007e-01 4.796516e-02 -4.099643e-01 -1.346117e+00 -9.391663e-01 1.077239e+00 4.512794e-01 -7.052430e-01 2.023404e-01 7.178801e-01 8.954489e-01 
1.274139e+00 1.148472e+00 8.028843e-01 5.309311e-01 -6.766213e-01 -2.227404e-01 1.591318e+00 8.066003e-02 -1.373301e+00 -7.878809e-01 -9.220175e-02 2.629922e-01 7.297616e-02 -2.229793e-01 -5.087639e-01 -7.894543e-01 -9.067193e-01 -7.894543e-01 -5.087639e-01 -2.229793e-01 7.297616e-02 2.629922e-01 -9.220175e-02 -7.878809e-01 -1.373301e+00 8.066003e-02 1.591318e+00 -2.227404e-01 -6.766213e-01 5.309311e-01 8.028843e-01 1.148472e+00 
1.307099e+00 1.204926e+00 8.428911e-01 6.768367e-01 -1.720726e-01 -7.166934e-01 8.121750e-01 1.052187e+00 -1.668824e-01 -5.611566e-01 -4.468554e-01 -1.290295e-01 -2.264036e-01 -5.112952e-01 -7.298610e-01 -1.015775e+00 -1.133081e+00 -1.015775e+00 -7.298610e-01 -5.112952e-01 -2.264036e-01 -1.290295e-01 -4.468554e-01 -5.611566e-01 -1.668824e-01 1.052187e+00 8.121750e-01 -7.166934e-01 -1.720726e-01 6.768367e-01 8.428911e-01 1.204926e+00 
1.188394e+00 1.110935e+00 8.078124e-01 6.396787e-01 2.825450e-01 -3.312075e-01 4.040700e-02 6.767987e-01 4.831954e-01 -1.815518e-01 -3.566723e-01 5.006242e-02 -1.484144e-01 -6.881003e-01 -1.030188e+00 -1.276615e+00 -1.345764e+00 -1.276615e+00 -1.030188e+00 -6.881003e-01 -1.484144e-01 5.006242e-02 -3.566723e-01 -1.815518e-01 4.831954e-01 6.767987e-01 4.040700e-02 -3.312075e-01 2.825450e-01 6.396787e-01 8.078124e-01 1.110935e+00 
1.019071e+00 9.636922e-01 7.387327e-01 5.855829e-01 4.206139e-01 1.202799e-01 -7.664653e-03 9.384944e-02 2.756079e-01 -2.732704e-02 -4.530747e-01 -4.024428e-01 -4.185079e-01 -5.668612e-01 -6.564744e-01 -7.667735e-01 -8.175370e-01 -7.667735e-01 -6.564744e-01 -5.668612e-01 -4.185079e-01 -4.024428e-01 -4.530747e-01 -2.732704e-02 2.756079e-01 9.384944e-02 -7.664653e-03 1.202799e-01 4.206139e-01 5.855829e-01 7.387327e-01 9.636922e-01 
8.320761e-01 7.975514e-01 6.437827e-01 5.196465e-01 4.039552e-01 2.645712e-01 1.569846e-01 -1.914032e-02 -6.565720e-02 -1.075685e-02 -1.960394e-01 -5.733372e-01 -7.989330e-01 -6.512047e-01 -3.845991e-01 -3.273300e-01 -3.510639e-01 -3.273300e-01 -3.845991e-01 -6.512047e-01 -7.989330e-01 -5.733372e-01 -1.960394e-01 -1.075685e-02 -6.565720e-02 -1.914032e-02 1.569846e-01 2.645712e-01 4.039552e-01 5.196465e-01 6.437827e-01 7.975514e-01 
6.727357e-01 6.530611e-01 5.542455e-01 4.643426e-01 3.736959e-01 2.775481e-01 2.333735e-01 1.503062e-01 -2.111956e-01 -3.558785e-01 -9.125321e-02 -1.300422e-01 -4.300955e-01 -5.397400e-01 -4.406373e-01 -5.195974e-01 -6.490025e-01 -5.195974e-01 -4.406373e-01 -5.397400e-01 -4.300955e-01 -1.300422e-01 -9.125321e-02 -3.558785e-01 -2.111956e-01 1.503062e-01 2.333735e-01 2.775481e-01 3.736959e-01 4.643426e-01 5.542455e-01 6.530611e-01 
5.372439e-01 5.270142e-01 4.651465e-01 4.050042e-01 3.353773e-01 2.638611e-01 2.099087e-01 2.024459e-01 1.576071e-01 -4.398081e-02 -3.571287e-01 -4.683500e-01 -4.103423e-01 -3.739264e-01 -2.908229e-01 -5.120682e-01 -7.567354e-01 -5.120682e-01 -2.908229e-01 -3.739264e-01 -4.103423e-01 -4.683500e-01 -3.571287e-01 -4.398081e-02 1.576071e-01 2.024459e-01 2.099087e-01 2.638611e-01 3.353773e-01 4.050042e-01 4.651465e-01 5.270142e-01 
4.247655e-01 4.197018e-01 3.786619e-01 3.376076e-01 2.810870e-01 2.222167e-01 1.502106e-01 1.117979e-01 3.316707e-02 -2.915499e-02 -1.001850e-01 -3.114109e-01 -5.881993e-01 -7.027566e-01 -2.610636e-01 -4.800144e-02 -2.121228e-01 -4.800144e-02 -2.610636e-01 -7.027566e-01 -5.881993e-01 -3.114109e-01 -1.001850e-01 -2.915499e-02 3.316707e-02 1.117979e-01 1.502106e-01 2.222167e-01 2.810870e-01 3.376076e-01 3.786619e-01 4.197018e-01 
3.323572e-01 3.292241e-01 3.027683e-01 2.741167e-01 2.343889e-01 1.879867e-01 1.357555e-01 7.679377e-02 9.775102e-03 -7.983196e-02 -2.059256e-01 -3.482446e-01 -5.966731e-01 -9.501982e-01 -4.648889e-01 5.101535e-01 8.372424e-01 5.101535e-01 -4.648889e-01 -9.501982e-01 -5.966731e-01 -3.482446e-01 -2.059256e-01 -7.983196e-02 9.775102e-03 7.679377e-02 1.357555e-01 1.879867e-01 2.343889e-01 2.741167e-01 3.027683e-01 3.292241e-01 
2.495272e-01 2.479839e-01 2.282854e-01 2.074075e-01 1.741926e-01 1.373036e-01 8.976452e-02 3.362686e-02 -3.554932e-02 -1.134421e-01 -2.009752e-01 -3.627376e-01 -5.355400e-01 -7.701381e-01 -5.094205e-01 6.199961e-01 1.328958e+00 6.199961e-01 -5.094205e-01 -7.701381e-01 -5.355400e-01 -3.627376e-01 -2.009752e-01 -1.134421e-01 -3.554932e-02 3.362686e-02 8.976452e-02 1.373036e-01 1.741926e-01 2.074075e-01 2.282854e-01 2.479839e-01 
1.805046e-01 1.790104e-01 1.662319e-01 1.508064e-01 1.276793e-01 9.867090e-02 6.331528e-02 1.434121e-02 -4.623869e-02 -1.238734e-01 -2.301605e-01 -3.734825e-01 -5.390693e-01 -6.136015e-01 -3.664874e-01 6.681285e-01 1.468954e+00 6.681285e-01 -3.664874e-01 -6.136015e-01 -5.390693e-01 -3.734825e-01 -2.301605e-01 -1.238734e-01 -4.623869e-02 1.434121e-02 6.331528e-02 9.867090e-02 1.276793e-01 1.508064e-01 1.662319e-01 1.790104e-01 
1.151914e-01 1.145522e-01 1.057082e-01 9.573687e-02 7.912237e-02 5.983176e-02 3.420490e-02 1.934881e-03 -3.951000e-02 -9.076730e-02 -1.582127e-01 -2.464994e-01 -3.435838e-01 -3.738964e-01 -2.618645e-01 4.391073e-01 1.053080e+00 4.391073e-01 -2.618645e-01 -3.738964e-01 -3.435838e-01 -2.464994e-01 -1.582127e-01 -9.076730e-02 -3.951000e-02 1.934881e-03 3.420490e-02 5.983176e-02 7.912237e-02 9.573687e-02 1.057082e-01 1.145522e-01 
5.708761e-02 5.656966e-02 5.253635e-02 4.735659e-02 3.939003e-02 2.915190e-02 1.610170e-02 -1.466034e-03 -2.432520e-02 -5.266834e-02 -9.173221e-02 -1.333954e-01 -1.792940e-01 -1.777863e-01 -1.079715e-01 2.322379e-01 5.335021e-01 2.322379e-01 -1.079715e-01 -1.777863e-01 -1.792940e-01 -1.333954e-01 -9.173221e-02 -5.266834e-02 -2.432520e-02 -1.466034e-03 1.610170e-02 2.915190e-02 3.939003e-02 4.735659e-02 5.253635e-02 5.656966e-02 
