# vtk DataFile Version 2.0
Comment goes here
ASCII

DATASET STRUCTURED_POINTS
FIELD FieldData 1
TIME 1 1 double
0.28000000
DIMENSIONS    32   32   1

ORIGIN    0.000   0.000   0.000
SPACING   0.03125 0.03125   1.000

POINT_DATA   1024
SCALARS uY double
LOOKUP_TABLE default

-3.077974e-15 3.793709e-15 -5.410249e-15 2.420413e-15 -6.551753e-15 2.709026e-15 -6.268097e-15 2.651852e-15 -6.192528e-15 2.491600e-15 -3.235368e-15 3.614446e-16 -8.939437e-16 -1.442205e-14 -1.852526e-14 -4.714707e-14 8.535447e-15 7.854400e-15 1.933570e-14 2.348090e-15 5.522439e-15 -1.018284e-15 3.503438e-15 4.101148e-15 3.521116e-15 7.793242e-15 2.474802e-15 7.882364e-15 1.468392e-15 7.608795e-15 -5.726015e-16 5.439594e-15 
1.261067e-01 1.276252e-01 1.282115e-01 1.302647e-01 1.298653e-01 1.273832e-01 1.208998e-01 1.093478e-01 9.473492e-02 7.620208e-02 6.254966e-02 4.503641e-02 2.264594e-02 -5.379610e-02 -2.292119e-01 -5.620634e-01 -7.854970e-01 -5.620634e-01 -2.292119e-01 -5.379610e-02 2.264594e-02 4.503641e-02 6.254966e-02 7.620208e-02 9.473492e-02 1.093478e-01 1.208998e-01 1.273832e-01 1.298653e-01 1.302647e-01 1.282115e-01 1.276252e-01 
2.518683e-01 2.549942e-01 2.568273e-01 2.613566e-01 2.614308e-01 2.561974e-01 2.426414e-01 2.167574e-01 1.818493e-01 1.372126e-01 1.013427e-01 6.641183e-02 2.132972e-02 -1.290806e-01 -4.759373e-01 -1.063849e+00 -1.430836e+00 -1.063849e+00 -4.759373e-01 -1.290806e-01 2.132972e-02 6.641183e-02 1.013427e-01 1.372126e-01 1.818493e-01 2.167574e-01 2.426414e-01 2.561974e-01 2.614308e-01 2.613566e-01 2.568273e-01 2.549942e-01 
3.740568e-01 3.802516e-01 3.853153e-01 3.969854e-01 4.015075e-01 3.993135e-01 3.820064e-01 3.431030e-01 2.834294e-01 1.997182e-01 1.176294e-01 1.988606e-02 -7.958704e-02 -2.987237e-01 -7.719789e-01 -1.440534e+00 -1.810701e+00 -1.440534e+00 -7.719789e-01 -2.987237e-01 -7.958704e-02 1.988606e-02 1.176294e-01 1.997182e-01 2.834294e-01 3.431030e-01 3.820064e-01 3.993135e-01 4.015075e-01 3.969854e-01 3.853153e-01 3.802516e-01 
4.938995e-01 5.039191e-01 5.149752e-01 5.364799e-01 5.502581e-01 5.525270e-01 5.331543e-01 4.744072e-01 3.723678e-01 2.188564e-01 5.622511e-02 -1.046325e-01 -2.448669e-01 -5.190156e-01 -1.059806e+00 -1.662541e+00 -1.938515e+00 -1.662541e+00 -1.059806e+00 -5.190156e-01 -2.448669e-01 -1.046325e-01 5.622511e-02 2.188564e-01 3.723678e-01 4.744072e-01 5.331543e-01 5.525270e-01 5.502581e-01 5.364799e-01 5.149752e-01 5.039191e-01 
6.002133e-01 6.173683e-01 6.403332e-01 6.838897e-01 7.183617e-01 7.426452e-01 7.339341e-01 6.665777e-01 5.319142e-01 3.200548e-01 5.328440e-02 -2.962746e-01 -5.660774e-01 -9.284247e-01 -1.434636e+00 -1.805836e+00 -1.954441e+00 -1.805836e+00 -1.434636e+00 -9.284247e-01 -5.660774e-01 -2.962746e-01 5.328440e-02 3.200548e-01 5.319142e-01 6.665777e-01 7.339341e-01 7.426452e-01 7.183617e-01 6.838897e-01 6.403332e-01 6.173683e-01 
6.965505e-01 7.241150e-01 7.661041e-01 8.408732e-01 9.104461e-01 9.654840e-01 9.859850e-01 9.196261e-01 7.388886e-01 4.001390e-01 -1.791938e-02 -4.483762e-01 -8.065102e-01 -1.385099e+00 -1.853642e+00 -2.016762e+00 -2.143255e+00 -2.016762e+00 -1.853642e+00 -1.385099e+00 -8.065102e-01 -4.483762e-01 -1.791938e-02 4.001390e-01 7.388886e-01 9.196261e-01 9.859850e-01 9.654840e-01 9.104461e-01 8.408732e-01 7.661041e-01 7.241150e-01 
7.539146e-01 7.973452e-01 8.720481e-01 1.001319e+00 1.127650e+00 1.251475e+00 1.332240e+00 1.314248e+00 1.181685e+00 8.534183e-01 1.762590e-01 -8.108820e-01 -1.540700e+00 -2.143509e+00 -2.289079e+00 -2.263414e+00 -2.474121e+00 -2.263414e+00 -2.289079e+00 -2.143509e+00 -1.540700e+00 -8.108820e-01 1.762590e-01 8.534183e-01 1.181685e+00 1.314248e+00 1.332240e+00 1.251475e+00 1.127650e+00 1.001319e+00 8.720481e-01 7.973452e-01 
7.796693e-01 8.481642e-01 9.671996e-01 1.168250e+00 1.372858e+00 1.586583e+00 1.866786e+00 2.068821e+00 1.705010e+00 5.244935e-01 -7.634090e-01 -1.469850e+00 -1.758010e+00 -2.234603e+00 -2.399374e+00 -2.491859e+00 -2.761790e+00 -2.491859e+00 -2.399374e+00 -2.234603e+00 -1.758010e+00 -1.469850e+00 -7.634090e-01 5.244935e-01 1.705010e+00 2.068821e+00 1.866786e+00 1.586583e+00 1.372858e+00 1.168250e+00 9.671996e-01 8.481642e-01 
7.172235e-01 8.144919e-01 1.000406e+00 1.306295e+00 1.639185e+00 2.073778e+00 2.506324e+00 2.314187e+00 1.040945e+00 -2.901468e-01 -9.843070e-01 -1.558545e+00 -1.912304e+00 -2.189103e+00 -2.337971e+00 -2.470957e+00 -2.621781e+00 -2.470957e+00 -2.337971e+00 -2.189103e+00 -1.912304e+00 -1.558545e+00 -9.843070e-01 -2.901468e-01 1.040945e+00 2.314187e+00 2.506324e+00 2.073778e+00 1.639185e+00 1.306295e+00 1.000406e+00 8.144919e-01 
5.917157e-01 7.332748e-01 9.892007e-01 1.426717e+00 1.869500e+00 2.334275e+00 2.732771e+00 2.035721e+00 3.640070e-01 -7.238782e-01 -1.337386e+00 -2.092671e+00 -2.365710e+00 -2.204777e+00 -1.842544e+00 -1.508661e+00 -1.411394e+00 -1.508661e+00 -1.842544e+00 -2.204777e+00 -2.365710e+00 -2.092671e+00 -1.337386e+00 -7.238782e-01 3.640070e-01 2.035721e+00 2.732771e+00 2.334275e+00 1.869500e+00 1.426717e+00 9.892007e-01 7.332748e-01 
3.416783e-01 5.035691e-01 8.231930e-01 1.351437e+00 1.859266e+00 2.437499e+00 2.978085e+00 1.637514e+00 -3.459772e-01 -1.176759e+00 -1.903289e+00 -2.295002e+00 -2.048378e+00 -1.665929e+00 -1.210621e+00 -7.923284e-01 -6.462358e-01 -7.923284e-01 -1.210621e+00 -1.665929e+00 -2.048378e+00 -2.295002e+00 -1.903289e+00 -1.176759e+00 -3.459772e-01 1.637514e+00 2.978085e+00 2.437499e+00 1.859266e+00 1.351437e+00 8.231930e-01 5.035691e-01 
5.715266e-02 2.439066e-01 5.721546e-01 1.234893e+00 1.704026e+00 2.983831e+00 3.002466e+00 3.434355e-01 -9.258163e-01 -1.212176e+00 -1.490541e+00 -1.440273e+00 -1.429850e+00 -1.341701e+00 -1.118801e+00 -8.119153e-01 -6.844303e-01 -8.119153e-01 -1.118801e+00 -1.341701e+00 -1.429850e+00 -1.440273e+00 -1.490541e+00 -1.212176e+00 -9.258163e-01 3.434355e-01 3.002466e+00 2.983831e+00 1.704026e+00 1.234893e+00 5.721546e-01 2.439066e-01 
-2.350105e-01 -9.328730e-02 2.277994e-01 6.904470e-01 1.465039e+00 3.619180e+00 2.430298e+00 -8.348836e-01 -6.857122e-01 -3.289113e-01 -7.364067e-01 -1.173127e+00 -1.366190e+00 -1.230448e+00 -9.544887e-01 -6.489697e-01 -5.256663e-01 -6.489697e-01 -9.544887e-01 -1.230448e+00 -1.366190e+00 -1.173127e+00 -7.364067e-01 -3.289113e-01 -6.857122e-01 -8.348836e-01 2.430298e+00 3.619180e+00 1.465039e+00 6.904470e-01 2.277994e-01 -9.328730e-02 
-4.068247e-01 -3.507528e-01 -1.859614e-01 3.332356e-02 1.788689e+00 3.340369e+00 9.815681e-01 -6.571009e-01 1.213729e-01 -1.052968e-01 -5.769980e-01 -8.343296e-01 -9.576351e-01 -8.792449e-01 -7.313902e-01 -5.469677e-01 -4.724657e-01 -5.469677e-01 -7.313902e-01 -8.792449e-01 -9.576351e-01 -8.343296e-01 -5.769980e-01 -1.052968e-01 1.213729e-01 -6.571009e-01 9.815681e-01 3.340369e+00 1.788689e+00 3.332356e-02 -1.859614e-01 -3.507528e-01 
-3.934563e-01 -3.699893e-01 -3.620363e-01 1.485961e-02 1.574831e+00 1.942394e+00 2.565945e-01 -2.708240e-01 1.075675e-01 -3.462931e-02 -2.774300e-01 -4.586046e-01 -5.508968e-01 -5.128437e-01 -4.185952e-01 -3.103624e-01 -2.666142e-01 -3.103624e-01 -4.185952e-01 -5.128437e-01 -5.508968e-01 -4.586046e-01 -2.774300e-01 -3.462931e-02 1.075675e-01 -2.708240e-01 2.565945e-01 1.942394e+00 1.574831e+00 1.485961e-02 -3.620363e-01 -3.699893e-01 
9.687181e-15 -1.284307e-14 -1.759231e-14 -4.051862e-14 9.654274e-16 6.702674e-14 2.968686e-14 9.148963e-15 -1.781529e-14 -1.064304e-15 -1.211561e-14 -6.686086e-16 6.162919e-16 -2.291697e-15 3.769857e-15 -8.577970e-15 5.981402e-15 -8.287636e-15 4.555739e-15 -1.286771e-15 3.443011e-15 -7.643355e-17 -2.438678e-15 1.074891e-14 4.091513e-14 6.688575e-14 -3.078887e-14 -6.587328e-14 -4.047365e-14 -2.187322e-14 1.523707e-14 4.419514e-15 
3.934563e-01 3.699893e-01 3.620363e-01 -1.485961e-02 -1.574831e+00 -1.942394e+00 -2.565945e-01 2.708240e-01 -1.075675e-01 3.462931e-02 2.774300e-01 4.586046e-01 5.508968e-01 5.128437e-01 4.185952e-01 3.103624e-01 2.666142e-01 3.103624e-01 4.185952e-01 5.128437e-01 5.508968e-01 4.586046e-01 2.774300e-01 3.462931e-02 -1.075675e-01 2.708240e-01 -2.565945e-01 -1.942394e+00 -1.574831e+00 -1.485961e-02 3.620363e-01 3.699893e-01 
4.068247e-01 3.507528e-01 1.859614e-01 -3.332356e-02 -1.788689e+00 -3.340369e+00 -9.815681e-01 6.571009e-01 -1.213729e-01 1.052968e-01 5.769980e-01 8.343296e-01 9.576351e-01 8.792449e-01 7.313902e-01 5.469677e-01 4.724657e-01 5.469677e-01 7.313902e-01 8.792449e-01 9.576351e-01 8.343296e-01 5.769980e-01 1.052968e-01 -1.213729e-01 6.571009e-01 -9.815681e-01 -3.340369e+00 -1.788689e+00 -3.332356e-02 1.859614e-01 3.507528e-01 
2.350105e-01 9.328730e-02 -2.277994e-01 -6.904470e-01 -1.465039e+00 -3.619180e+00 -2.430298e+00 8.348836e-01 6.857122e-01 3.289113e-01 7.364067e-01 1.173127e+00 1.366190e+00 1.230448e+00 9.544887e-01 6.489697e-01 5.256663e-01 6.489697e-01 9.544887e-01 1.230448e+00 1.366190e+00 1.173127e+00 7.364067e-01 3.289113e-01 6.857122e-01 8.348836e-01 -2.430298e+00 -3.619180e+00 -1.465039e+00 -6.904470e-01 -2.277994e-01 9.328730e-02 
-5.715266e-02 -2.439066e-01 -5.721546e-01 -1.234893e+00 -1.704026e+00 -2.983831e+00 -3.002466e+00 -3.434355e-01 9.258163e-01 1.212176e+00 1.490541e+00 1.440273e+00 1.429850e+00 1.341701e+00 1.118801e+00 8.119153e-01 6.844303e-01 8.119153e-01 1.118801e+00 1.341701e+00 1.429850e+00 1.440273e+00 1.490541e+00 1.212176e+00 9.258163e-01 -3.434355e-01 -3.002466e+00 -2.983831e+00 -1.704026e+00 -1.234893e+00 -5.721546e-01 -2.439066e-01 
-3.416783e-01 -5.035691e-01 -8.231930e-01 -1.351437e+00 -1.859266e+00 -2.437499e+00 -2.978085e+00 -1.637514e+00 3.459772e-01 1.176759e+00 1.903289e+00 2.295002e+00 2.048378e+00 1.665929e+00 1.210621e+00 7.923284e-01 6.462358e-01 7.923284e-01 1.210621e+00 1.665929e+00 2.048378e+00 2.295002e+00 1.903289e+00 1.176759e+00 3.459772e-01 -1.637514e+00 -2.978085e+00 -2.437499e+00 -1.859266e+00 -1.351437e+00 -8.231930e-01 -5.035691e-01 
-5.917157e-01 -7.332748e-01 -9.892007e-01 -1.426717e+00 -1.869500e+00 -2.334275e+00 -2.732771e+00 -2.035721e+00 -3.640070e-01 7.238782e-01 1.337386e+00 2.092671e+00 2.365710e+00 2.204777e+00 1.842544e+00 1.508661e+00 1.411394e+00 1.508661e+00 1.842544e+00 2.204777e+00 2.365710e+00 2.092671e+00 1.337386e+00 7.238782e-01 -3.640070e-01 -2.035721e+00 -2.732771e+00 -2.334275e+00 -1.869500e+00 -1.426717e+00 -9.892007e-01 -7.332748e-01 
-7.172235e-01 -8.144919e-01 -1.000406e+00 -1.306295e+00 -1.639185e+00 -2.073778e+00 -2.506324e+00 -2.314187e+00 -1.040945e+00 2.901468e-01 9.843070e-01 1.558545e+00 1.912304e+00 2.189103e+00 2.337971e+00 2.470957e+00 2.621781e+00 2.470957e+00 2.337971e+00 2.189103e+00 1.912304e+00 1.558545e+00 9.843070e-01 2.901468e-01 -1.040945e+00 -2.314187e+00 -2.506324e+00 -2.073778e+00 -1.639185e+00 -1.306295e+00 -1.000406e+00 -8.144919e-01 
-7.796693e-01 -8.481642e-01 -9.671996e-01 -1.168250e+00 -1.372858e+00 -1.586583e+00 -1.866786e+00 -2.068821e+00 -1.705010e+00 -5.244935e-01 7.634090e-01 1.469850e+00 1.758010e+00 2.234603e+00 2.399374e+00 2.491859e+00 2.761790e+00 2.491859e+00 2.399374e+00 2.234603e+00 1.758010e+00 1.469850e+00 7.634090e-01 -5.244935e-01 -1.705010e+00 -2.068821e+00 -1.866786e+00 -1.586583e+00 -1.372858e+00 -1.168250e+00 -9.671996e-01 -8.481642e-01 
-7.539146e-01 -7.973452e-01 -8.720481e-01 -1.001319e+00 -1.127650e+00 -1.251475e+00 -1.332240e+00 -1.314248e+00 -1.181685e+00 -8.534183e-01 -1.762590e-01 8.108820e-01 1.540700e+00 2.143509e+00 2.289079e+00 2.263414e+00 2.474121e+00 2.263414e+00 2.289079e+00 2.143509e+00 1.540700e+00 8.108820e-01 -1.762590e-01 -8.534183e-01 -1.181685e+00 -1.314248e+00 -1.332240e+00 -1.251475e+00 -1.127650e+00 -1.001319e+00 -8.720481e-01 -7.973452e-01 
-6.965505e-01 -7.241150e-01 -7.661041e-01 -8.408732e-01 -9.104461e-01 -9.654840e-01 -9.859850e-01 -9.196261e-01 -7.388886e-01 -4.001390e-01 1.791938e-02 4.483762e-01 8.065102e-01 1.385099e+00 1.853642e+00 2.016762e+00 2.143255e+00 2.016762e+00 1.853642e+00 1.385099e+00 8.065102e-01 4.483762e-01 1.791938e-02 -4.001390e-01 -7.388886e-01 -9.196261e-01 -9.859850e-01 -9.654840e-01 -9.104461e-01 -8.408732e-01 -7.661041e-01 -7.241150e-01 
-6.002133e-01 -6.173683e-01 -6.403332e-01 -6.838897e-01 -7.183617e-01 -7.426452e-01 -7.339341e-01 -6.665777e-01 -5.319142e-01 -3.200548e-01 -5.328440e-02 2.962746e-01 5.660774e-01 9.284247e-01 1.434636e+00 1.805836e+00 1.954441e+00 1.805836e+00 1.434636e+00 9.284247e-01 5.660774e-01 2.962746e-01 -5.328440e-02 -3.200548e-01 -5.319142e-01 -6.665777e-01 -7.339341e-01 -7.426452e-01 -7.183617e-01 -6.838897e-01 -6.403332e-01 -6.173683e-01 
-4.938995e-01 -5.039191e-01 -5.149752e-01 -5.364799e-01 -5.502581e-01 -5.525270e-01 -5.331543e-01 -4.744072e-01 -3.723678e-01 -2.188564e-01 -5.622511e-02 1.046325e-01 2.448669e-01 5.190156e-01 1.059806e+00 1.662541e+00 1.938515e+00 1.662541e+00 1.059806e+00 5.190156e-01 2.448669e-01 1.046325e-01 -5.622511e-02 -2.188564e-01 -3.723678e-01 -4.744072e-01 -5.331543e-01 -5.525270e-01 -5.502581e-01 -5.364799e-01 -5.149752e-01 -5.039191e-01 
-3.740568e-01 -3.802516e-01 -3.853153e-01 -3.969854e-01 -4.015075e-01 -3.993135e-01 -3.820064e-01 -3.431030e-01 -2.834294e-01 -1.997182e-01 -1.176294e-01 -1.988606e-02 7.958704e-02 2.987237e-01 7.719789e-01 1.440534e+00 1.810701e+00 1.440534e+00 7.719789e-01 2.987237e-01 7.958704e-02 -1.988606e-02 -1.176294e-01 -1.997182e-01 -2.834294e-01 -3.431030e-01 -3.820064e-01 -3.993135e-01 -4.015075e-01 -3.969854e-01 -3.853153e-01 -3.802516e-01 
-2.518683e-01 -2.549942e-01 -2.568273e-01 -2.613566e-01 -2.614308e-01 -2.561974e-01 -2.426414e-01 -2.167574e-01 -1.818493e-01 -1.372126e-01 -1.013427e-01 -6.641183e-02 -2.132972e-02 1.290806e-01 4.759373e-01 1.063849e+00 1.430836e+00 1.063849e+00 4.759373e-01 1.290806e-01 -2.132972e-02 -6.641183e-02 -1.013427e-01 -1.372126e-01 -1.818493e-01 -2.167574e-01 -2.426414e-01 -2.561974e-01 -2.614308e-01 -2.613566e-01 -2.568273e-01 -2.549942e-01 
-1.261067e-01 -1.276252e-01 -1.282115e-01 -1.302647e-01 -1.298653e-01 -1.273832e-01 -1.208998e-01 -1.093478e-01 -9.473492e-02 -7.620208e-02 -6.254966e-02 -4.503641e-02 -2.264594e-02 5.379610e-02 2.292119e-01 5.620634e-01 7.854970e-01 5.620634e-01 2.292119e-01 5.379610e-02 -2.264594e-02 -4.503641e-02 -6.254966e-02 -7.620208e-02 -9.473492e-02 -1.093478e-01 -1.208998e-01 -1.273832e-01 -1.298653e-01 -1.302647e-01 -1.282115e-01 -1.276252e-01 
