# vtk DataFile Version 2.0
fMag
ASCII
DATASET UNSTRUCTURED_GRID

FIELD FieldData 1
TIME 1 1 double
0.16000000
POINTS 310 float
1.002269522074513e+00 2.000491277730986e+00 0.000000000000000e+00
1.021539796947517e+00 2.004631991085116e+00 0.000000000000000e+00
1.041259991409679e+00 2.007160658187425e+00 0.000000000000000e+00
1.061024408083545e+00 2.010212272511905e+00 0.000000000000000e+00
1.079745125436127e+00 2.014806726729387e+00 0.000000000000000e+00
1.099514691035983e+00 2.018228682792768e+00 0.000000000000000e+00
1.119209528737716e+00 2.020555373969272e+00 0.000000000000000e+00
1.138589708769544e+00 2.023619273084049e+00 0.000000000000000e+00
1.158409753829720e+00 2.026001276039786e+00 0.000000000000000e+00
1.177617352255073e+00 2.030263402605728e+00 0.000000000000000e+00
1.197512179284768e+00 2.032049900540517e+00 0.000000000000000e+00
1.216884995843787e+00 2.035508983383647e+00 0.000000000000000e+00
1.236688954565162e+00 2.037483818605179e+00 0.000000000000000e+00
1.256092816671005e+00 2.041368557170181e+00 0.000000000000000e+00
1.275916961458409e+00 2.043947157670014e+00 0.000000000000000e+00
1.294988336183168e+00 2.048065458177734e+00 0.000000000000000e+00
1.314877719906835e+00 2.052060658611515e+00 0.000000000000000e+00
1.334052123609209e+00 2.055751714195591e+00 0.000000000000000e+00
1.353719744482442e+00 2.060329736752706e+00 0.000000000000000e+00
1.373080522228552e+00 2.064005756795979e+00 0.000000000000000e+00
1.392447242235721e+00 2.068615577204447e+00 0.000000000000000e+00
1.411742178867953e+00 2.073253348688933e+00 0.000000000000000e+00
1.431078878413346e+00 2.078860219664105e+00 0.000000000000000e+00
1.449980436650491e+00 2.084043007273233e+00 0.000000000000000e+00
1.469486080017565e+00 2.089631033573787e+00 0.000000000000000e+00
1.488014384024783e+00 2.095766542781266e+00 0.000000000000000e+00
1.507257193520487e+00 2.102512119968067e+00 0.000000000000000e+00
1.525574088938404e+00 2.108819287420749e+00 0.000000000000000e+00
1.544861524578446e+00 2.115553686019471e+00 0.000000000000000e+00
1.563378808393128e+00 2.121664408855090e+00 0.000000000000000e+00
1.582012285302384e+00 2.129811706579474e+00 0.000000000000000e+00
1.600967597339722e+00 2.134891793564641e+00 0.000000000000000e+00
1.619779650283992e+00 2.141980204256396e+00 0.000000000000000e+00
1.638149273785766e+00 2.149214178526822e+00 0.000000000000000e+00
1.657583608105356e+00 2.154473824870704e+00 0.000000000000000e+00
1.676300693314229e+00 2.160572109092067e+00 0.000000000000000e+00
1.694056104698174e+00 2.170178230263639e+00 0.000000000000000e+00
1.713706046216790e+00 2.172294665662420e+00 0.000000000000000e+00
1.731567995456218e+00 2.181260569028733e+00 0.000000000000000e+00
1.750055750113202e+00 2.188732439160681e+00 0.000000000000000e+00
1.769606443278122e+00 2.193341921806475e+00 0.000000000000000e+00
1.787905991017473e+00 2.200185065303809e+00 0.000000000000000e+00
1.806881079939853e+00 2.207597705437013e+00 0.000000000000000e+00
1.825595064284929e+00 2.213880311859464e+00 0.000000000000000e+00
1.844682943382192e+00 2.219916782970412e+00 0.000000000000000e+00
1.864228559604586e+00 2.224506768127552e+00 0.000000000000000e+00
1.881268138417068e+00 2.235008707286990e+00 0.000000000000000e+00
1.900998908212912e+00 2.238329214482287e+00 0.000000000000000e+00
1.920010587556069e+00 2.244094701360673e+00 0.000000000000000e+00
1.939595532313779e+00 2.250119499817826e+00 0.000000000000000e+00
1.958117264941189e+00 2.257330700646514e+00 0.000000000000000e+00
1.977602429315442e+00 2.261500121746695e+00 0.000000000000000e+00
1.996927242449436e+00 2.266944380626864e+00 0.000000000000000e+00
2.016210284695836e+00 2.273051016416338e+00 0.000000000000000e+00
2.034873336867033e+00 2.280589934970249e+00 0.000000000000000e+00
2.054680395386139e+00 2.283927921762777e+00 0.000000000000000e+00
2.074104082381584e+00 2.289595147399583e+00 0.000000000000000e+00
2.091752786845158e+00 2.298776429892351e+00 0.000000000000000e+00
2.111244355194778e+00 2.303867214203441e+00 0.000000000000000e+00
2.130715388095720e+00 2.309031612636998e+00 0.000000000000000e+00
2.149869984383683e+00 2.316106646853109e+00 0.000000000000000e+00
2.168118143001313e+00 2.323717067869278e+00 0.000000000000000e+00
2.187574750472171e+00 2.329950656748787e+00 0.000000000000000e+00
2.207160698709131e+00 2.333965668542954e+00 0.000000000000000e+00
2.226287070349692e+00 2.340723643609697e+00 0.000000000000000e+00
2.245193485893306e+00 2.346914170424198e+00 0.000000000000000e+00
2.265555063299151e+00 2.349405502673626e+00 0.000000000000000e+00
2.285499338273706e+00 2.352322068368041e+00 0.000000000000000e+00
2.305505277117116e+00 2.355599294079755e+00 0.000000000000000e+00
2.324962434019877e+00 2.358432935487896e+00 0.000000000000000e+00
2.345836475297811e+00 2.359051997823532e+00 0.000000000000000e+00
2.366113786842368e+00 2.359889586392100e+00 0.000000000000000e+00
2.385976692290150e+00 2.362243953141445e+00 0.000000000000000e+00
2.406389099374571e+00 2.363240979046638e+00 0.000000000000000e+00
2.426913118725264e+00 2.362569140655501e+00 0.000000000000000e+00
2.447338027326185e+00 2.362286730175012e+00 0.000000000000000e+00
2.467355278748103e+00 2.363685682959284e+00 0.000000000000000e+00
2.488005989579126e+00 2.364518978555463e+00 0.000000000000000e+00
2.509021757638988e+00 2.364441149672435e+00 0.000000000000000e+00
2.529185441625833e+00 2.365063960718963e+00 0.000000000000000e+00
2.549632563580337e+00 2.366070485924252e+00 0.000000000000000e+00
2.570086591539924e+00 2.368148271260732e+00 0.000000000000000e+00
2.591018266243986e+00 2.367904770012482e+00 0.000000000000000e+00
2.611904144868334e+00 2.368220383757514e+00 0.000000000000000e+00
2.631597409320675e+00 2.370497216834098e+00 0.000000000000000e+00
2.653206200285581e+00 2.370639204181519e+00 0.000000000000000e+00
2.673738173794939e+00 2.369584168169487e+00 0.000000000000000e+00
2.694433470069165e+00 2.369505644281683e+00 0.000000000000000e+00
2.714890071203057e+00 2.370991140538125e+00 0.000000000000000e+00
2.735968067330202e+00 2.370415681706784e+00 0.000000000000000e+00
2.756571619569479e+00 2.370911624926942e+00 0.000000000000000e+00
2.777542078713346e+00 2.371089226346640e+00 0.000000000000000e+00
2.798799553997044e+00 2.371805627720131e+00 0.000000000000000e+00
2.819680267272694e+00 2.372551249415225e+00 0.000000000000000e+00
2.840651980292392e+00 2.372041567072739e+00 0.000000000000000e+00
2.861129716393049e+00 2.372582170420214e+00 0.000000000000000e+00
2.882497052908779e+00 2.372772307161437e+00 0.000000000000000e+00
2.903016382490796e+00 2.371290619416281e+00 0.000000000000000e+00
2.924701464723144e+00 2.370361149448798e+00 0.000000000000000e+00
2.945212135698262e+00 2.369140227586726e+00 0.000000000000000e+00
2.965970159593826e+00 2.367921092506638e+00 0.000000000000000e+00
2.987663156363406e+00 2.366223048487366e+00 0.000000000000000e+00
3.007286991477641e+00 2.363314178300223e+00 0.000000000000000e+00
3.028120899144972e+00 2.361919663953686e+00 0.000000000000000e+00
3.049385037506447e+00 2.361295264417622e+00 0.000000000000000e+00
3.070428440246252e+00 2.360920566331609e+00 0.000000000000000e+00
3.092166538152098e+00 2.359933745781957e+00 0.000000000000000e+00
3.111311077223475e+00 2.357999059688817e+00 0.000000000000000e+00
3.133542025042486e+00 2.358071027701616e+00 0.000000000000000e+00
3.154351619692484e+00 2.357461875083747e+00 0.000000000000000e+00
3.174212559576567e+00 2.355918931141590e+00 0.000000000000000e+00
3.196153294994777e+00 2.354733667326810e+00 0.000000000000000e+00
3.216943640920295e+00 2.353049216856762e+00 0.000000000000000e+00
3.237995830313499e+00 2.351389161757411e+00 0.000000000000000e+00
3.258036247257110e+00 2.348093353236151e+00 0.000000000000000e+00
3.278177921955930e+00 2.344294634161743e+00 0.000000000000000e+00
3.300036121519748e+00 2.341203765993681e+00 0.000000000000000e+00
3.320264768067035e+00 2.337703661887337e+00 0.000000000000000e+00
3.340050754811528e+00 2.333880163786660e+00 0.000000000000000e+00
3.361706431968825e+00 2.329519657010115e+00 0.000000000000000e+00
3.382394225537489e+00 2.325606472517069e+00 0.000000000000000e+00
3.403066468282923e+00 2.321085685954920e+00 0.000000000000000e+00
3.422774050808816e+00 2.315621438383650e+00 0.000000000000000e+00
3.443530772661157e+00 2.309962464533150e+00 0.000000000000000e+00
3.464296321770458e+00 2.303633420465143e+00 0.000000000000000e+00
3.483647050592489e+00 2.297461339339861e+00 0.000000000000000e+00
3.504244477273592e+00 2.291862247334938e+00 0.000000000000000e+00
3.525165790975009e+00 2.285287434533258e+00 0.000000000000000e+00
3.544453179158983e+00 2.277823948041704e+00 0.000000000000000e+00
3.565335252513875e+00 2.272776178799290e+00 0.000000000000000e+00
3.584150652087890e+00 2.265703242802817e+00 0.000000000000000e+00
3.605390644901362e+00 2.258044099016849e+00 0.000000000000000e+00
3.623847897075029e+00 2.251213754198845e+00 0.000000000000000e+00
3.644646201604833e+00 2.244180427204352e+00 0.000000000000000e+00
3.665269226724345e+00 2.239345474839965e+00 0.000000000000000e+00
3.685197186867843e+00 2.231157639746768e+00 0.000000000000000e+00
3.705541692480797e+00 2.225120970906908e+00 0.000000000000000e+00
3.726006098223943e+00 2.220544521307817e+00 0.000000000000000e+00
3.746385547700044e+00 2.214329640098315e+00 0.000000000000000e+00
3.766126908927880e+00 2.206185573206659e+00 0.000000000000000e+00
3.785922901681703e+00 2.198593347692976e+00 0.000000000000000e+00
3.806502688305967e+00 2.192972858267930e+00 0.000000000000000e+00
3.826555369485200e+00 2.185814399235526e+00 0.000000000000000e+00
3.845717422630644e+00 2.176989402183080e+00 0.000000000000000e+00
3.865231897221334e+00 2.169076294458697e+00 0.000000000000000e+00
3.884228104316093e+00 2.159658582904623e+00 0.000000000000000e+00
3.902606177054954e+00 2.147757810163695e+00 0.000000000000000e+00
3.920445197881873e+00 2.138074014136534e+00 0.000000000000000e+00
3.936975108877962e+00 2.124803567576821e+00 0.000000000000000e+00
3.950307504674720e+00 2.108185919685059e+00 0.000000000000000e+00
3.963342299773673e+00 2.091522152876771e+00 0.000000000000000e+00
3.975673683479848e+00 2.074376862535169e+00 0.000000000000000e+00
3.983095927268185e+00 2.055203554768599e+00 0.000000000000000e+00
3.987402171801667e+00 2.033627940928254e+00 0.000000000000000e+00
3.999709488584264e+00 2.016771316281164e+00 0.000000000000000e+00
1.002269522074513e+00 2.999508722269014e+00 0.000000000000000e+00
1.021539796947517e+00 2.995368008914884e+00 0.000000000000000e+00
1.041259991409680e+00 2.992839341812579e+00 0.000000000000000e+00
1.061024408083547e+00 2.989787727488098e+00 0.000000000000000e+00
1.079745125436128e+00 2.985193273270620e+00 0.000000000000000e+00
1.099514691035989e+00 2.981771317207246e+00 0.000000000000000e+00
1.119209528737718e+00 2.979444626030742e+00 0.000000000000000e+00
1.138589708769549e+00 2.976380726915968e+00 0.000000000000000e+00
1.158409753829724e+00 2.973998723960237e+00 0.000000000000000e+00
1.177617352255080e+00 2.969736597394299e+00 0.000000000000000e+00
1.197512179284775e+00 2.967950099459510e+00 0.000000000000000e+00
1.216884995843793e+00 2.964491016616382e+00 0.000000000000000e+00
1.236688954565170e+00 2.962516181394848e+00 0.000000000000000e+00
1.256092816671011e+00 2.958631442829846e+00 0.000000000000000e+00
1.275916961458416e+00 2.956052842330001e+00 0.000000000000000e+00
1.294988336183174e+00 2.951934541822289e+00 0.000000000000000e+00
1.314877719906843e+00 2.947939341388511e+00 0.000000000000000e+00
1.334052123609218e+00 2.944248285804440e+00 0.000000000000000e+00
1.353719744482451e+00 2.939670263247327e+00 0.000000000000000e+00
1.373080522228560e+00 2.935994243204060e+00 0.000000000000000e+00
1.392447242235735e+00 2.931384422795594e+00 0.000000000000000e+00
1.411742178867959e+00 2.926746651311098e+00 0.000000000000000e+00
1.431078878413357e+00 2.921139780335932e+00 0.000000000000000e+00
1.449980436650498e+00 2.915956992726794e+00 0.000000000000000e+00
1.469486080017571e+00 2.910368966426238e+00 0.000000000000000e+00
1.488014384024791e+00 2.904233457218763e+00 0.000000000000000e+00
1.507257193520494e+00 2.897487880031962e+00 0.000000000000000e+00
1.525574088938412e+00 2.891180712579280e+00 0.000000000000000e+00
1.544861524578452e+00 2.884446313980556e+00 0.000000000000000e+00
1.563378808393131e+00 2.878335591144932e+00 0.000000000000000e+00
1.582012285302388e+00 2.870188293420548e+00 0.000000000000000e+00
1.600967597339724e+00 2.865108206435376e+00 0.000000000000000e+00
1.619779650283995e+00 2.858019795743617e+00 0.000000000000000e+00
1.638149273785765e+00 2.850785821473187e+00 0.000000000000000e+00
1.657583608105353e+00 2.845526175129295e+00 0.000000000000000e+00
1.676300693314226e+00 2.839427890907936e+00 0.000000000000000e+00
1.694056104698172e+00 2.829821769736363e+00 0.000000000000000e+00
1.713706046216790e+00 2.827705334337588e+00 0.000000000000000e+00
1.731567995456214e+00 2.818739430971270e+00 0.000000000000000e+00
1.750055750113199e+00 2.811267560839320e+00 0.000000000000000e+00
1.769606443278121e+00 2.806658078193534e+00 0.000000000000000e+00
1.787905991017469e+00 2.799814934696197e+00 0.000000000000000e+00
1.806881079939853e+00 2.792402294562996e+00 0.000000000000000e+00
1.825595064284927e+00 2.786119688140543e+00 0.000000000000000e+00
1.844682943382192e+00 2.780083217029598e+00 0.000000000000000e+00
1.864228559604590e+00 2.775493231872465e+00 0.000000000000000e+00
1.881268138417071e+00 2.764991292713028e+00 0.000000000000000e+00
1.900998908212916e+00 2.761670785517730e+00 0.000000000000000e+00
1.920010587556076e+00 2.755905298639359e+00 0.000000000000000e+00
1.939595532313788e+00 2.749880500182211e+00 0.000000000000000e+00
1.958117264941195e+00 2.742669299353519e+00 0.000000000000000e+00
1.977602429315450e+00 2.738499878253339e+00 0.000000000000000e+00
1.996927242449444e+00 2.733055619373179e+00 0.000000000000000e+00
2.016210284695843e+00 2.726948983583702e+00 0.000000000000000e+00
2.034873336867044e+00 2.719410065029800e+00 0.000000000000000e+00
2.054680395386150e+00 2.716072078237267e+00 0.000000000000000e+00
2.074104082381595e+00 2.710404852600464e+00 0.000000000000000e+00
2.091752786845173e+00 2.701223570107702e+00 0.000000000000000e+00
2.111244355194789e+00 2.696132785796610e+00 0.000000000000000e+00
2.130715388095739e+00 2.690968387363057e+00 0.000000000000000e+00
2.149869984383693e+00 2.683893353146935e+00 0.000000000000000e+00
2.168118143001324e+00 2.676282932130767e+00 0.000000000000000e+00
2.187574750472185e+00 2.670049343251265e+00 0.000000000000000e+00
2.207160698709144e+00 2.666034331457094e+00 0.000000000000000e+00
2.226287070349701e+00 2.659276356390348e+00 0.000000000000000e+00
2.245193485893320e+00 2.653085829575848e+00 0.000000000000000e+00
2.265555063299165e+00 2.650594497326428e+00 0.000000000000000e+00
2.285499338273716e+00 2.647677931632009e+00 0.000000000000000e+00
2.305505277117126e+00 2.644400705920292e+00 0.000000000000000e+00
2.324962434019889e+00 2.641567064512155e+00 0.000000000000000e+00
2.345836475297824e+00 2.640948002176521e+00 0.000000000000000e+00
2.366113786842374e+00 2.640110413607948e+00 0.000000000000000e+00
2.385976692290162e+00 2.637756046858602e+00 0.000000000000000e+00
2.406389099374578e+00 2.636759020953418e+00 0.000000000000000e+00
2.426913118725277e+00 2.637430859344553e+00 0.000000000000000e+00
2.447338027326191e+00 2.637713269825036e+00 0.000000000000000e+00
2.467355278748116e+00 2.636314317040765e+00 0.000000000000000e+00
2.488005989579133e+00 2.635481021444588e+00 0.000000000000000e+00
2.509021757638999e+00 2.635558850327610e+00 0.000000000000000e+00
2.529185441625845e+00 2.634936039281079e+00 0.000000000000000e+00
2.549632563580347e+00 2.633929514075783e+00 0.000000000000000e+00
2.570086591539935e+00 2.631851728739302e+00 0.000000000000000e+00
2.591018266243996e+00 2.632095229987553e+00 0.000000000000000e+00
2.611904144868343e+00 2.631779616242516e+00 0.000000000000000e+00
2.631597409320686e+00 2.629502783165928e+00 0.000000000000000e+00
2.653206200285590e+00 2.629360795818509e+00 0.000000000000000e+00
2.673738173794948e+00 2.630415831830545e+00 0.000000000000000e+00
2.694433470069173e+00 2.630494355718349e+00 0.000000000000000e+00
2.714890071203069e+00 2.629008859461909e+00 0.000000000000000e+00
2.735968067330211e+00 2.629584318293250e+00 0.000000000000000e+00
2.756571619569490e+00 2.629088375073106e+00 0.000000000000000e+00
2.777542078713357e+00 2.628910773653408e+00 0.000000000000000e+00
2.798799553997052e+00 2.628194372279913e+00 0.000000000000000e+00
2.819680267272702e+00 2.627448750584827e+00 0.000000000000000e+00
2.840651980292403e+00 2.627958432927320e+00 0.000000000000000e+00
2.861129716393056e+00 2.627417829579845e+00 0.000000000000000e+00
2.882497052908790e+00 2.627227692838620e+00 0.000000000000000e+00
2.903016382490799e+00 2.628709380583784e+00 0.000000000000000e+00
2.924701464723152e+00 2.629638850551275e+00 0.000000000000000e+00
2.945212135698262e+00 2.630859772413346e+00 0.000000000000000e+00
2.965970159593832e+00 2.632078907493430e+00 0.000000000000000e+00
2.987663156363411e+00 2.633776951512702e+00 0.000000000000000e+00
3.007286991477647e+00 2.636685821699845e+00 0.000000000000000e+00
3.028120899144974e+00 2.638080336046381e+00 0.000000000000000e+00
3.049385037506445e+00 2.638704735582442e+00 0.000000000000000e+00
3.070428440246262e+00 2.639079433668449e+00 0.000000000000000e+00
3.092166538152094e+00 2.640066254218103e+00 0.000000000000000e+00
3.111311077223473e+00 2.642000940311250e+00 0.000000000000000e+00
3.133542025042482e+00 2.641928972298446e+00 0.000000000000000e+00
3.154351619692484e+00 2.642538124916316e+00 0.000000000000000e+00
3.174212559576560e+00 2.644081068858480e+00 0.000000000000000e+00
3.196153294994772e+00 2.645266332673263e+00 0.000000000000000e+00
3.216943640920297e+00 2.646950783143303e+00 0.000000000000000e+00
3.237995830313495e+00 2.648610838242650e+00 0.000000000000000e+00
3.258036247257110e+00 2.651906646763905e+00 0.000000000000000e+00
3.278177921955922e+00 2.655705365838320e+00 0.000000000000000e+00
3.300036121519755e+00 2.658796234006378e+00 0.000000000000000e+00
3.320264768067027e+00 2.662296338112721e+00 0.000000000000000e+00
3.340050754811529e+00 2.666119836213401e+00 0.000000000000000e+00
3.361706431968815e+00 2.670480342989949e+00 0.000000000000000e+00
3.382394225537491e+00 2.674393527482995e+00 0.000000000000000e+00
3.403066468282915e+00 2.678914314045151e+00 0.000000000000000e+00
3.422774050808806e+00 2.684378561616422e+00 0.000000000000000e+00
3.443530772661156e+00 2.690037535466925e+00 0.000000000000000e+00
3.464296321770445e+00 2.696366579534933e+00 0.000000000000000e+00
3.483647050592483e+00 2.702538660660212e+00 0.000000000000000e+00
3.504244477273579e+00 2.708137752665133e+00 0.000000000000000e+00
3.525165790975003e+00 2.714712565466814e+00 0.000000000000000e+00
3.544453179158977e+00 2.722176051958361e+00 0.000000000000000e+00
3.565335252513868e+00 2.727223821200763e+00 0.000000000000000e+00
3.584150652087891e+00 2.734296757197241e+00 0.000000000000000e+00
3.605390644901358e+00 2.741955900983203e+00 0.000000000000000e+00
3.623847897075028e+00 2.748786245801196e+00 0.000000000000000e+00
3.644646201604831e+00 2.755819572795686e+00 0.000000000000000e+00
3.665269226724348e+00 2.760654525160086e+00 0.000000000000000e+00
3.685197186867833e+00 2.768842360253285e+00 0.000000000000000e+00
3.705541692480801e+00 2.774879029093134e+00 0.000000000000000e+00
3.726006098223944e+00 2.779455478692205e+00 0.000000000000000e+00
3.746385547700052e+00 2.785670359901708e+00 0.000000000000000e+00
3.766126908927887e+00 2.793814426793361e+00 0.000000000000000e+00
3.785922901681711e+00 2.801406652307039e+00 0.000000000000000e+00
3.806502688305978e+00 2.807027141732074e+00 0.000000000000000e+00
3.826555369485209e+00 2.814185600764470e+00 0.000000000000000e+00
3.845717422630662e+00 2.823010597816916e+00 0.000000000000000e+00
3.865231897221344e+00 2.830923705541299e+00 0.000000000000000e+00
3.884228104316114e+00 2.840341417095362e+00 0.000000000000000e+00
3.902606177054975e+00 2.852242189836286e+00 0.000000000000000e+00
3.920445197881895e+00 2.861925985863446e+00 0.000000000000000e+00
3.936975108877978e+00 2.875196432423166e+00 0.000000000000000e+00
3.950307504674739e+00 2.891814080314931e+00 0.000000000000000e+00
3.963342299773691e+00 2.908477847123210e+00 0.000000000000000e+00
3.975673683479857e+00 2.925623137464827e+00 0.000000000000000e+00
3.983095927268180e+00 2.944796445231397e+00 0.000000000000000e+00
3.987402171801666e+00 2.966372059071745e+00 0.000000000000000e+00
3.999709488584266e+00 2.983228683718830e+00 0.000000000000000e+00

POINT_DATA   310
SCALARS fMag double
LOOKUP_TABLE default

6.273381e+02 
1.826230e+03 
1.249619e+03 
7.191451e+03 
7.819195e+03 
2.505097e+03 
2.213672e+03 
3.454913e+03 
2.837846e+03 
2.993474e+03 
3.076727e+03 
2.203955e+03 
1.308532e+03 
2.057069e+03 
4.808974e+03 
7.801493e+03 
7.578169e+03 
6.643328e+03 
4.889469e+03 
2.045067e+03 
5.888239e+02 
2.882898e+03 
5.411948e+03 
6.912289e+03 
7.673499e+03 
8.766486e+03 
1.016535e+04 
1.065091e+04 
9.357935e+03 
8.365128e+03 
7.107651e+03 
4.853059e+03 
3.487430e+03 
3.988076e+03 
4.609744e+03 
5.057003e+03 
4.883164e+03 
2.714237e+03 
3.683972e+02 
1.760873e+03 
5.656430e+03 
8.246060e+03 
6.463999e+03 
2.642953e+03 
9.282448e+02 
1.925127e+03 
2.251551e+03 
1.681565e+03 
6.046497e+03 
6.283281e+03 
1.091735e+03 
2.011863e+03 
1.381523e+03 
1.545123e+03 
1.452907e+03 
1.947231e+03 
3.720467e+03 
3.179147e+03 
1.243013e+02 
2.638936e+03 
6.607895e+03 
6.688477e+03 
4.285523e+03 
3.030883e+03 
3.959046e+03 
6.426136e+03 
3.960009e+03 
1.133253e+03 
5.794137e+03 
1.258802e+04 
6.197660e+03 
3.488056e+03 
4.284349e+03 
1.548961e+03 
7.217917e+02 
3.328590e+03 
5.585942e+03 
2.916659e+03 
8.358313e+03 
3.192845e+03 
1.449651e+03 
3.874313e+03 
7.493203e+02 
1.045121e+04 
1.780433e+04 
1.078124e+04 
1.302521e+03 
1.811794e+03 
6.282798e+03 
4.738299e+03 
2.985500e+03 
2.233456e+03 
4.170323e+03 
2.072973e+03 
3.874761e+03 
8.536423e+03 
8.519528e+03 
1.119131e+04 
1.175533e+04 
2.092860e+03 
9.572685e+03 
1.857211e+04 
1.060334e+04 
4.127818e+03 
2.997273e+03 
6.328386e+03 
2.450248e+04 
3.019776e+04 
1.381920e+04 
8.834943e+03 
2.068617e+04 
1.114074e+04 
1.882175e+03 
8.456779e+03 
1.682089e+03 
1.558001e+04 
1.489775e+04 
3.649457e+03 
1.907572e+04 
1.063321e+04 
9.756235e+02 
6.621512e+03 
1.113044e+04 
2.328463e+03 
1.397641e+04 
1.057436e+04 
5.835265e+03 
1.334300e+04 
8.017969e+03 
1.390808e+04 
2.553607e+04 
2.888136e+04 
2.277532e+04 
8.009001e+03 
4.754042e+03 
3.659455e+03 
2.875631e+03 
3.625512e+03 
1.910383e+03 
1.784051e+03 
2.275289e+03 
1.547914e+03 
2.603062e+03 
1.060983e+03 
2.069481e+03 
7.197268e+03 
1.610373e+04 
9.299732e+03 
4.571866e+03 
1.580848e+03 
9.102430e+02 
6.996559e+03 
1.402967e+04 
1.394898e+04 
9.363886e+03 
6.273381e+02 
1.826230e+03 
1.249619e+03 
7.191451e+03 
7.819195e+03 
2.505097e+03 
2.213672e+03 
3.454913e+03 
2.837846e+03 
2.993474e+03 
3.076727e+03 
2.203955e+03 
1.308532e+03 
2.057069e+03 
4.808974e+03 
7.801493e+03 
7.578169e+03 
6.643328e+03 
4.889469e+03 
2.045067e+03 
5.888239e+02 
2.882898e+03 
5.411948e+03 
6.912289e+03 
7.673499e+03 
8.766486e+03 
1.016535e+04 
1.065091e+04 
9.357935e+03 
8.365128e+03 
7.107651e+03 
4.853059e+03 
3.487430e+03 
3.988076e+03 
4.609744e+03 
5.057003e+03 
4.883164e+03 
2.714237e+03 
3.683972e+02 
1.760873e+03 
5.656430e+03 
8.246060e+03 
6.463999e+03 
2.642953e+03 
9.282448e+02 
1.925127e+03 
2.251551e+03 
1.681565e+03 
6.046497e+03 
6.283281e+03 
1.091735e+03 
2.011863e+03 
1.381523e+03 
1.545123e+03 
1.452907e+03 
1.947231e+03 
3.720467e+03 
3.179147e+03 
1.243013e+02 
2.638936e+03 
6.607895e+03 
6.688477e+03 
4.285523e+03 
3.030883e+03 
3.959046e+03 
6.426136e+03 
3.960009e+03 
1.133253e+03 
5.794137e+03 
1.258802e+04 
6.197660e+03 
3.488056e+03 
4.284349e+03 
1.548961e+03 
7.217917e+02 
3.328590e+03 
5.585942e+03 
2.916659e+03 
8.358313e+03 
3.192845e+03 
1.449651e+03 
3.874313e+03 
7.493203e+02 
1.045121e+04 
1.780433e+04 
1.078124e+04 
1.302521e+03 
1.811794e+03 
6.282798e+03 
4.738299e+03 
2.985500e+03 
2.233456e+03 
4.170323e+03 
2.072973e+03 
3.874761e+03 
8.536423e+03 
8.519528e+03 
1.119131e+04 
1.175533e+04 
2.092860e+03 
9.572685e+03 
1.857211e+04 
1.060334e+04 
4.127818e+03 
2.997273e+03 
6.328386e+03 
2.450248e+04 
3.019776e+04 
1.381920e+04 
8.834943e+03 
2.068617e+04 
1.114074e+04 
1.882175e+03 
8.456779e+03 
1.682089e+03 
1.558001e+04 
1.489775e+04 
3.649457e+03 
1.907572e+04 
1.063321e+04 
9.756235e+02 
6.621512e+03 
1.113044e+04 
2.328463e+03 
1.397641e+04 
1.057436e+04 
5.835265e+03 
1.334300e+04 
8.017969e+03 
1.390808e+04 
2.553607e+04 
2.888136e+04 
2.277532e+04 
8.009001e+03 
4.754042e+03 
3.659455e+03 
2.875631e+03 
3.625512e+03 
1.910383e+03 
1.784051e+03 
2.275289e+03 
1.547914e+03 
2.603062e+03 
1.060983e+03 
2.069481e+03 
7.197268e+03 
1.610373e+04 
9.299732e+03 
4.571866e+03 
1.580848e+03 
9.102430e+02 
6.996559e+03 
1.402967e+04 
1.394898e+04 
9.363886e+03 
