# vtk DataFile Version 2.0
fMag
ASCII
DATASET UNSTRUCTURED_GRID

FIELD FieldData 1
TIME 1 1 double
0.14000000
POINTS 310 float
1.030259679285418e+00 2.002182308086397e+00 0.000000000000000e+00
1.052762653537064e+00 2.004059968875507e+00 0.000000000000000e+00
1.075253812867749e+00 2.007485498146011e+00 0.000000000000000e+00
1.097782147555891e+00 2.009920168239794e+00 0.000000000000000e+00
1.119920186961518e+00 2.013421157467384e+00 0.000000000000000e+00
1.142435812704154e+00 2.016809220546131e+00 0.000000000000000e+00
1.164682056085695e+00 2.019724502812453e+00 0.000000000000000e+00
1.187199434533386e+00 2.023047584549150e+00 0.000000000000000e+00
1.209611164894951e+00 2.025106624481617e+00 0.000000000000000e+00
1.231962731354195e+00 2.029058767668596e+00 0.000000000000000e+00
1.254275802685876e+00 2.031319867991871e+00 0.000000000000000e+00
1.276448155719683e+00 2.035094806703833e+00 0.000000000000000e+00
1.299134730155690e+00 2.037663920531672e+00 0.000000000000000e+00
1.320897317463745e+00 2.042177876035760e+00 0.000000000000000e+00
1.343523622606200e+00 2.045931146558307e+00 0.000000000000000e+00
1.364830297193119e+00 2.050708310501761e+00 0.000000000000000e+00
1.387442421881693e+00 2.055483009305926e+00 0.000000000000000e+00
1.409029951252766e+00 2.060608965290894e+00 0.000000000000000e+00
1.430752839768940e+00 2.067483064529466e+00 0.000000000000000e+00
1.452122669685738e+00 2.073846830787829e+00 0.000000000000000e+00
1.473492301766657e+00 2.080832149249761e+00 0.000000000000000e+00
1.494870874656097e+00 2.088008321359380e+00 0.000000000000000e+00
1.516069650697936e+00 2.096247127364636e+00 0.000000000000000e+00
1.536792786270322e+00 2.104072431878035e+00 0.000000000000000e+00
1.558155110983208e+00 2.112532002788764e+00 0.000000000000000e+00
1.578218255061547e+00 2.121312881799546e+00 0.000000000000000e+00
1.599536578985099e+00 2.130451397315017e+00 0.000000000000000e+00
1.620061926018436e+00 2.137791305514560e+00 0.000000000000000e+00
1.641992533461642e+00 2.145327146726181e+00 0.000000000000000e+00
1.662963400122920e+00 2.152562034897368e+00 0.000000000000000e+00
1.684057522935318e+00 2.161492977246280e+00 0.000000000000000e+00
1.705873141311021e+00 2.166746995474294e+00 0.000000000000000e+00
1.727301958172879e+00 2.174747483107408e+00 0.000000000000000e+00
1.747713283028484e+00 2.183522363399820e+00 0.000000000000000e+00
1.769850490756346e+00 2.189715717384373e+00 0.000000000000000e+00
1.791408309587955e+00 2.196347450965920e+00 0.000000000000000e+00
1.811854452411352e+00 2.206075834307975e+00 0.000000000000000e+00
1.834119686657867e+00 2.208541974396439e+00 0.000000000000000e+00
1.855104914203900e+00 2.218457610944359e+00 0.000000000000000e+00
1.875996951402155e+00 2.226873800127125e+00 0.000000000000000e+00
1.897695967266600e+00 2.232158443062257e+00 0.000000000000000e+00
1.918459583911067e+00 2.240006258072990e+00 0.000000000000000e+00
1.939632488816027e+00 2.249586374030871e+00 0.000000000000000e+00
1.959870341344409e+00 2.258506039328130e+00 0.000000000000000e+00
1.980888665278596e+00 2.266013964818293e+00 0.000000000000000e+00
2.002368019911756e+00 2.271280265711690e+00 0.000000000000000e+00
2.022058135261794e+00 2.283167368110127e+00 0.000000000000000e+00
2.043357707121305e+00 2.288348169152467e+00 0.000000000000000e+00
2.063984879798563e+00 2.296129326592815e+00 0.000000000000000e+00
2.085140734474995e+00 2.304620340611319e+00 0.000000000000000e+00
2.104672742382480e+00 2.313943257410138e+00 0.000000000000000e+00
2.125842809718357e+00 2.319688757674934e+00 0.000000000000000e+00
2.147055744665504e+00 2.325890140567042e+00 0.000000000000000e+00
2.168719913667414e+00 2.332335547811944e+00 0.000000000000000e+00
2.188711964506520e+00 2.339056512528699e+00 0.000000000000000e+00
2.210778432131057e+00 2.340913123350061e+00 0.000000000000000e+00
2.233311309742570e+00 2.343587000043846e+00 0.000000000000000e+00
2.253458951905850e+00 2.348736158235269e+00 0.000000000000000e+00
2.275534528203559e+00 2.349577922785356e+00 0.000000000000000e+00
2.297431242541446e+00 2.349220118246506e+00 0.000000000000000e+00
2.319844978667010e+00 2.349169437373224e+00 0.000000000000000e+00
2.340641409883129e+00 2.349725092753209e+00 0.000000000000000e+00
2.362590771279837e+00 2.349247857164579e+00 0.000000000000000e+00
2.385019892877722e+00 2.346191147368490e+00 0.000000000000000e+00
2.406283340056485e+00 2.345482515812812e+00 0.000000000000000e+00
2.427156584546593e+00 2.344727032799310e+00 0.000000000000000e+00
2.449658601652523e+00 2.340340238942737e+00 0.000000000000000e+00
2.470979352363840e+00 2.336836253430658e+00 0.000000000000000e+00
2.492218978257926e+00 2.334043359849192e+00 0.000000000000000e+00
2.513232803624844e+00 2.331375720487865e+00 0.000000000000000e+00
2.535470107272396e+00 2.326732061885600e+00 0.000000000000000e+00
2.556623063543786e+00 2.322127146331093e+00 0.000000000000000e+00
2.577391558045454e+00 2.318671189678264e+00 0.000000000000000e+00
2.598847459627128e+00 2.314212402386118e+00 0.000000000000000e+00
2.620537079769251e+00 2.309293175904399e+00 0.000000000000000e+00
2.641364340240049e+00 2.305073222178012e+00 0.000000000000000e+00
2.662690963777417e+00 2.301563025682108e+00 0.000000000000000e+00
2.684347815558404e+00 2.297372874332669e+00 0.000000000000000e+00
2.705744632688978e+00 2.293163031184446e+00 0.000000000000000e+00
2.727074804604020e+00 2.289954969080080e+00 0.000000000000000e+00
2.748081249341296e+00 2.286941345377296e+00 0.000000000000000e+00
2.770414979093168e+00 2.285133580397478e+00 0.000000000000000e+00
2.791338256612591e+00 2.281913255359270e+00 0.000000000000000e+00
2.812721447655719e+00 2.279273755285128e+00 0.000000000000000e+00
2.834323117333292e+00 2.278746753379953e+00 0.000000000000000e+00
2.856192068270836e+00 2.276902296889628e+00 0.000000000000000e+00
2.876915467137812e+00 2.274841117331257e+00 0.000000000000000e+00
2.898579678790078e+00 2.274054541506559e+00 0.000000000000000e+00
2.920144601055242e+00 2.274713261318137e+00 0.000000000000000e+00
2.941531051454378e+00 2.273694848790316e+00 0.000000000000000e+00
2.962771389557906e+00 2.274244462876741e+00 0.000000000000000e+00
2.983731539627229e+00 2.274633754121557e+00 0.000000000000000e+00
3.005664229523973e+00 2.275758393885648e+00 0.000000000000000e+00
3.026713477896373e+00 2.277266420496843e+00 0.000000000000000e+00
3.047441512584410e+00 2.278025440954590e+00 0.000000000000000e+00
3.068712828639500e+00 2.280803682358497e+00 0.000000000000000e+00
3.090374124924386e+00 2.284143784441626e+00 0.000000000000000e+00
3.110348939054194e+00 2.286148997043863e+00 0.000000000000000e+00
3.131462031758970e+00 2.289732680772055e+00 0.000000000000000e+00
3.152268347523048e+00 2.293791683712348e+00 0.000000000000000e+00
3.172474905858029e+00 2.298933310067274e+00 0.000000000000000e+00
3.192988542554288e+00 2.305294645631126e+00 0.000000000000000e+00
3.213258703134318e+00 2.310860020604089e+00 0.000000000000000e+00
3.232605765951469e+00 2.317596978660762e+00 0.000000000000000e+00
3.252772683448050e+00 2.324862534190299e+00 0.000000000000000e+00
3.272054864381395e+00 2.332116099601855e+00 0.000000000000000e+00
3.291845395439307e+00 2.340047920643564e+00 0.000000000000000e+00
3.311400589739430e+00 2.347263576718995e+00 0.000000000000000e+00
3.330326043041541e+00 2.355694795776941e+00 0.000000000000000e+00
3.349971165994729e+00 2.363607325367448e+00 0.000000000000000e+00
3.369079107267691e+00 2.371673305449296e+00 0.000000000000000e+00
3.387700766588528e+00 2.380683505896637e+00 0.000000000000000e+00
3.407264357183308e+00 2.389276519031649e+00 0.000000000000000e+00
3.425592089255865e+00 2.397789843180945e+00 0.000000000000000e+00
3.444992350825150e+00 2.405853306431443e+00 0.000000000000000e+00
3.463760731471206e+00 2.413816402659736e+00 0.000000000000000e+00
3.482372245344420e+00 2.422987374203978e+00 0.000000000000000e+00
3.501809252653274e+00 2.431412365834706e+00 0.000000000000000e+00
3.520694897375422e+00 2.438777112723854e+00 0.000000000000000e+00
3.540528339242997e+00 2.445562235570224e+00 0.000000000000000e+00
3.559638654325369e+00 2.451024413209915e+00 0.000000000000000e+00
3.580098606791163e+00 2.455098034084031e+00 0.000000000000000e+00
3.599971267110100e+00 2.457153938346338e+00 0.000000000000000e+00
3.621119696650079e+00 2.458289089388604e+00 0.000000000000000e+00
3.641998155178686e+00 2.457614468129698e+00 0.000000000000000e+00
3.660124251837223e+00 2.455154157871397e+00 0.000000000000000e+00
3.680814279395976e+00 2.450768234196710e+00 0.000000000000000e+00
3.701356699534728e+00 2.443477301897812e+00 0.000000000000000e+00
3.715583726184950e+00 2.435558098438875e+00 0.000000000000000e+00
3.736767293300263e+00 2.423793690212222e+00 0.000000000000000e+00
3.750991139284856e+00 2.413291446534439e+00 0.000000000000000e+00
3.770051373111962e+00 2.400820001032377e+00 0.000000000000000e+00
3.787010220017639e+00 2.390817968720266e+00 0.000000000000000e+00
3.803808283759006e+00 2.380284695794761e+00 0.000000000000000e+00
3.821534666008805e+00 2.369200887054760e+00 0.000000000000000e+00
3.836138828983210e+00 2.355111013643550e+00 0.000000000000000e+00
3.852015416539843e+00 2.340750831541113e+00 0.000000000000000e+00
3.867245651956419e+00 2.328011764869559e+00 0.000000000000000e+00
3.881343227637011e+00 2.312115520445349e+00 0.000000000000000e+00
3.893089780902780e+00 2.295049180391347e+00 0.000000000000000e+00
3.904980544033980e+00 2.278611534562970e+00 0.000000000000000e+00
3.917973696268579e+00 2.263234452012012e+00 0.000000000000000e+00
3.929597883602816e+00 2.245415636642889e+00 0.000000000000000e+00
3.939996824709973e+00 2.227201813154065e+00 0.000000000000000e+00
3.949695594315604e+00 2.209620924492156e+00 0.000000000000000e+00
3.957694266459975e+00 2.189860634038036e+00 0.000000000000000e+00
3.964378806502128e+00 2.169876514133569e+00 0.000000000000000e+00
3.972612349521603e+00 2.152652895674455e+00 0.000000000000000e+00
3.978581454150221e+00 2.132037479112598e+00 0.000000000000000e+00
3.983072141454097e+00 2.111375800515047e+00 0.000000000000000e+00
3.990695739466430e+00 2.092339728838966e+00 0.000000000000000e+00
3.996656806233492e+00 2.072733990415130e+00 0.000000000000000e+00
3.996035083535111e+00 2.051786406318594e+00 0.000000000000000e+00
3.992595305105348e+00 2.031003567781483e+00 0.000000000000000e+00
4.002256966475243e+00 2.012438234281873e+00 0.000000000000000e+00
1.030259679285423e+00 2.997817691913601e+00 0.000000000000000e+00
1.052762653537070e+00 2.995940031124490e+00 0.000000000000000e+00
1.075253812867754e+00 2.992514501853989e+00 0.000000000000000e+00
1.097782147555899e+00 2.990079831760202e+00 0.000000000000000e+00
1.119920186961522e+00 2.986578842532615e+00 0.000000000000000e+00
1.142435812704164e+00 2.983190779453870e+00 0.000000000000000e+00
1.164682056085700e+00 2.980275497187549e+00 0.000000000000000e+00
1.187199434533395e+00 2.976952415450853e+00 0.000000000000000e+00
1.209611164894958e+00 2.974893375518388e+00 0.000000000000000e+00
1.231962731354204e+00 2.970941232331411e+00 0.000000000000000e+00
1.254275802685886e+00 2.968680132008136e+00 0.000000000000000e+00
1.276448155719691e+00 2.964905193296173e+00 0.000000000000000e+00
1.299134730155702e+00 2.962336079468334e+00 0.000000000000000e+00
1.320897317463754e+00 2.957822123964252e+00 0.000000000000000e+00
1.343523622606210e+00 2.954068853441699e+00 0.000000000000000e+00
1.364830297193129e+00 2.949291689498249e+00 0.000000000000000e+00
1.387442421881704e+00 2.944516990694082e+00 0.000000000000000e+00
1.409029951252777e+00 2.939391034709114e+00 0.000000000000000e+00
1.430752839768950e+00 2.932516935470540e+00 0.000000000000000e+00
1.452122669685747e+00 2.926153169212181e+00 0.000000000000000e+00
1.473492301766670e+00 2.919167850750250e+00 0.000000000000000e+00
1.494870874656104e+00 2.911991678640627e+00 0.000000000000000e+00
1.516069650697953e+00 2.903752872635380e+00 0.000000000000000e+00
1.536792786270335e+00 2.895927568121977e+00 0.000000000000000e+00
1.558155110983218e+00 2.887467997211247e+00 0.000000000000000e+00
1.578218255061562e+00 2.878687118200469e+00 0.000000000000000e+00
1.599536578985111e+00 2.869548602684998e+00 0.000000000000000e+00
1.620061926018449e+00 2.862208694485453e+00 0.000000000000000e+00
1.641992533461654e+00 2.854672853273836e+00 0.000000000000000e+00
1.662963400122932e+00 2.847437965102650e+00 0.000000000000000e+00
1.684057522935334e+00 2.838507022753743e+00 0.000000000000000e+00
1.705873141311033e+00 2.833253004525729e+00 0.000000000000000e+00
1.727301958172894e+00 2.825252516892616e+00 0.000000000000000e+00
1.747713283028498e+00 2.816477636600212e+00 0.000000000000000e+00
1.769850490756359e+00 2.810284282615656e+00 0.000000000000000e+00
1.791408309587969e+00 2.803652549034113e+00 0.000000000000000e+00
1.811854452411364e+00 2.793924165692057e+00 0.000000000000000e+00
1.834119686657882e+00 2.791458025603598e+00 0.000000000000000e+00
1.855104914203910e+00 2.781542389055673e+00 0.000000000000000e+00
1.875996951402164e+00 2.773126199872905e+00 0.000000000000000e+00
1.897695967266612e+00 2.767841556937780e+00 0.000000000000000e+00
1.918459583911077e+00 2.759993741927047e+00 0.000000000000000e+00
1.939632488816038e+00 2.750413625969164e+00 0.000000000000000e+00
1.959870341344416e+00 2.741493960671903e+00 0.000000000000000e+00
1.980888665278604e+00 2.733986035181741e+00 0.000000000000000e+00
2.002368019911763e+00 2.728719734288346e+00 0.000000000000000e+00
2.022058135261798e+00 2.716832631889905e+00 0.000000000000000e+00
2.043357707121310e+00 2.711651830847557e+00 0.000000000000000e+00
2.063984879798566e+00 2.703870673407216e+00 0.000000000000000e+00
2.085140734474998e+00 2.695379659388710e+00 0.000000000000000e+00
2.104672742382480e+00 2.686056742589885e+00 0.000000000000000e+00
2.125842809718358e+00 2.680311242325091e+00 0.000000000000000e+00
2.147055744665507e+00 2.674109859432992e+00 0.000000000000000e+00
2.168719913667413e+00 2.667664452188086e+00 0.000000000000000e+00
2.188711964506521e+00 2.660943487471338e+00 0.000000000000000e+00
2.210778432131058e+00 2.659086876649978e+00 0.000000000000000e+00
2.233311309742571e+00 2.656412999956195e+00 0.000000000000000e+00
2.253458951905850e+00 2.651263841764772e+00 0.000000000000000e+00
2.275534528203553e+00 2.650422077214684e+00 0.000000000000000e+00
2.297431242541450e+00 2.650779881753544e+00 0.000000000000000e+00
2.319844978667008e+00 2.650830562626817e+00 0.000000000000000e+00
2.340641409883128e+00 2.650274907246833e+00 0.000000000000000e+00
2.362590771279837e+00 2.650752142835469e+00 0.000000000000000e+00
2.385019892877720e+00 2.653808852631557e+00 0.000000000000000e+00
2.406283340056485e+00 2.654517484187231e+00 0.000000000000000e+00
2.427156584546590e+00 2.655272967200736e+00 0.000000000000000e+00
2.449658601652521e+00 2.659659761057313e+00 0.000000000000000e+00
2.470979352363839e+00 2.663163746569387e+00 0.000000000000000e+00
2.492218978257924e+00 2.665956640150851e+00 0.000000000000000e+00
2.513232803624841e+00 2.668624279512180e+00 0.000000000000000e+00
2.535470107272392e+00 2.673267938114455e+00 0.000000000000000e+00
2.556623063543780e+00 2.677872853668960e+00 0.000000000000000e+00
2.577391558045451e+00 2.681328810321788e+00 0.000000000000000e+00
2.598847459627118e+00 2.685787597613943e+00 0.000000000000000e+00
2.620537079769244e+00 2.690706824095665e+00 0.000000000000000e+00
2.641364340240037e+00 2.694926777822050e+00 0.000000000000000e+00
2.662690963777408e+00 2.698436974317961e+00 0.000000000000000e+00
2.684347815558389e+00 2.702627125667404e+00 0.000000000000000e+00
2.705744632688968e+00 2.706836968815627e+00 0.000000000000000e+00
2.727074804604003e+00 2.710045030919994e+00 0.000000000000000e+00
2.748081249341283e+00 2.713058654622775e+00 0.000000000000000e+00
2.770414979093153e+00 2.714866419602594e+00 0.000000000000000e+00
2.791338256612575e+00 2.718086744640809e+00 0.000000000000000e+00
2.812721447655705e+00 2.720726244714951e+00 0.000000000000000e+00
2.834323117333276e+00 2.721253246620125e+00 0.000000000000000e+00
2.856192068270818e+00 2.723097703110454e+00 0.000000000000000e+00
2.876915467137799e+00 2.725158882668827e+00 0.000000000000000e+00
2.898579678790061e+00 2.725945458493525e+00 0.000000000000000e+00
2.920144601055226e+00 2.725286738681943e+00 0.000000000000000e+00
2.941531051454363e+00 2.726305151209760e+00 0.000000000000000e+00
2.962771389557888e+00 2.725755537123340e+00 0.000000000000000e+00
2.983731539627214e+00 2.725366245878519e+00 0.000000000000000e+00
3.005664229523956e+00 2.724241606114421e+00 0.000000000000000e+00
3.026713477896358e+00 2.722733579503221e+00 0.000000000000000e+00
3.047441512584393e+00 2.721974559045477e+00 0.000000000000000e+00
3.068712828639479e+00 2.719196317641565e+00 0.000000000000000e+00
3.090374124924371e+00 2.715856215558429e+00 0.000000000000000e+00
3.110348939054171e+00 2.713851002956197e+00 0.000000000000000e+00
3.131462031758955e+00 2.710267319228003e+00 0.000000000000000e+00
3.152268347523025e+00 2.706208316287707e+00 0.000000000000000e+00
3.172474905858008e+00 2.701066689932772e+00 0.000000000000000e+00
3.192988542554265e+00 2.694705354368912e+00 0.000000000000000e+00
3.213258703134292e+00 2.689139979395948e+00 0.000000000000000e+00
3.232605765951445e+00 2.682403021339273e+00 0.000000000000000e+00
3.252772683448020e+00 2.675137465809735e+00 0.000000000000000e+00
3.272054864381370e+00 2.667883900398170e+00 0.000000000000000e+00
3.291845395439274e+00 2.659952079356461e+00 0.000000000000000e+00
3.311400589739401e+00 2.652736423281026e+00 0.000000000000000e+00
3.330326043041504e+00 2.644305204223076e+00 0.000000000000000e+00
3.349971165994694e+00 2.636392674632564e+00 0.000000000000000e+00
3.369079107267654e+00 2.628326694550722e+00 0.000000000000000e+00
3.387700766588492e+00 2.619316494103379e+00 0.000000000000000e+00
3.407264357183271e+00 2.610723480968364e+00 0.000000000000000e+00
3.425592089255830e+00 2.602210156819074e+00 0.000000000000000e+00
3.444992350825111e+00 2.594146693568576e+00 0.000000000000000e+00
3.463760731471175e+00 2.586183597340289e+00 0.000000000000000e+00
3.482372245344383e+00 2.577012625796042e+00 0.000000000000000e+00
3.501809252653237e+00 2.568587634165316e+00 0.000000000000000e+00
3.520694897375387e+00 2.561222887276166e+00 0.000000000000000e+00
3.540528339242960e+00 2.554437764429806e+00 0.000000000000000e+00
3.559638654325338e+00 2.548975586790104e+00 0.000000000000000e+00
3.580098606791125e+00 2.544901965915987e+00 0.000000000000000e+00
3.599971267110058e+00 2.542846061653677e+00 0.000000000000000e+00
3.621119696650050e+00 2.541710910611409e+00 0.000000000000000e+00
3.641998155178647e+00 2.542385531870323e+00 0.000000000000000e+00
3.660124251837195e+00 2.544845842128622e+00 0.000000000000000e+00
3.680814279395945e+00 2.549231765803300e+00 0.000000000000000e+00
3.701356699534700e+00 2.556522698102199e+00 0.000000000000000e+00
3.715583726184914e+00 2.564441901561138e+00 0.000000000000000e+00
3.736767293300226e+00 2.576206309787795e+00 0.000000000000000e+00
3.750991139284818e+00 2.586708553465578e+00 0.000000000000000e+00
3.770051373111926e+00 2.599179998967635e+00 0.000000000000000e+00
3.787010220017609e+00 2.609182031279743e+00 0.000000000000000e+00
3.803808283758971e+00 2.619715304205245e+00 0.000000000000000e+00
3.821534666008771e+00 2.630799112945265e+00 0.000000000000000e+00
3.836138828983163e+00 2.644888986356471e+00 0.000000000000000e+00
3.852015416539807e+00 2.659249168458917e+00 0.000000000000000e+00
3.867245651956380e+00 2.671988235130450e+00 0.000000000000000e+00
3.881343227636987e+00 2.687884479554659e+00 0.000000000000000e+00
3.893089780902762e+00 2.704950819608652e+00 0.000000000000000e+00
3.904980544033960e+00 2.721388465437029e+00 0.000000000000000e+00
3.917973696268566e+00 2.736765547987992e+00 0.000000000000000e+00
3.929597883602799e+00 2.754584363357107e+00 0.000000000000000e+00
3.939996824709965e+00 2.772798186845935e+00 0.000000000000000e+00
3.949695594315593e+00 2.790379075507841e+00 0.000000000000000e+00
3.957694266459975e+00 2.810139365961958e+00 0.000000000000000e+00
3.964378806502118e+00 2.830123485866430e+00 0.000000000000000e+00
3.972612349521591e+00 2.847347104325551e+00 0.000000000000000e+00
3.978581454150200e+00 2.867962520887402e+00 0.000000000000000e+00
3.983072141454089e+00 2.888624199484959e+00 0.000000000000000e+00
3.990695739466434e+00 2.907660271161030e+00 0.000000000000000e+00
3.996656806233494e+00 2.927266009584871e+00 0.000000000000000e+00
3.996035083535106e+00 2.948213593681405e+00 0.000000000000000e+00
3.992595305105345e+00 2.968996432218517e+00 0.000000000000000e+00
4.002256966475244e+00 2.987561765718128e+00 0.000000000000000e+00

POINT_DATA   310
SCALARS fMag double
LOOKUP_TABLE default

2.774966e+02 
2.854496e+03 
1.843597e+03 
2.894610e+03 
3.693110e+03 
3.289926e+03 
3.295094e+03 
3.403236e+03 
3.246860e+03 
3.243434e+03 
2.158931e+03 
3.543525e+03 
6.864442e+03 
7.305395e+03 
1.077550e+04 
1.273993e+04 
9.845336e+03 
6.438330e+03 
4.570205e+03 
2.127898e+03 
6.990808e+02 
2.269065e+03 
6.154143e+03 
8.485523e+03 
1.102871e+04 
1.318768e+04 
1.414062e+04 
1.398155e+04 
1.007259e+04 
7.579352e+03 
7.470504e+03 
5.848884e+03 
6.529299e+03 
8.561704e+03 
4.738722e+03 
4.783380e+03 
1.039061e+04 
1.421214e+04 
7.507183e+03 
4.842111e+03 
3.672309e+03 
1.050879e+04 
1.089721e+04 
3.025193e+03 
3.370415e+03 
1.236580e+04 
1.370547e+04 
3.418742e+03 
7.411706e+03 
1.263888e+04 
5.479884e+03 
1.970817e+03 
5.096938e+03 
1.531260e+04 
1.224513e+04 
5.231791e+03 
1.951899e+04 
1.372454e+04 
2.340859e+03 
5.269863e+03 
1.625902e+04 
1.150621e+04 
7.931192e+03 
1.408827e+04 
4.141805e+03 
2.111259e+04 
1.336153e+04 
2.116291e+03 
2.368092e+03 
1.551215e+04 
1.071270e+04 
6.060690e+03 
8.581882e+03 
3.256379e+03 
9.942768e+03 
3.777890e+03 
4.541407e+03 
2.447172e+03 
2.581620e+03 
3.611442e+03 
1.212955e+04 
1.267170e+04 
4.146496e+03 
2.340553e+03 
3.399915e+03 
1.141610e+04 
8.586713e+03 
1.785117e+03 
2.154164e+03 
2.545138e+03 
3.028604e+03 
1.039024e+04 
8.496887e+03 
3.884431e+03 
7.043441e+03 
5.006465e+03 
1.809692e+04 
1.313742e+04 
2.353760e+03 
3.707223e+03 
6.553278e+03 
4.131668e+03 
5.921077e+03 
9.527817e+03 
8.278427e+03 
7.249984e+03 
4.922704e+03 
1.962501e+03 
5.152088e+03 
4.374094e+03 
1.153529e+03 
6.960833e+03 
1.166118e+04 
8.345359e+03 
6.168897e+03 
3.540191e+03 
4.354569e+03 
9.463974e+03 
6.913866e+03 
1.071001e+04 
1.018261e+04 
8.578431e+03 
1.156438e+04 
3.578007e+03 
2.574396e+04 
2.864670e+04 
7.198424e+03 
5.559163e+04 
8.032696e+04 
6.542658e+04 
5.166061e+04 
3.122130e+04 
8.037675e+02 
1.024494e+04 
6.895405e+03 
1.204706e+04 
1.476392e+04 
1.365337e+04 
6.106677e+03 
4.677845e+03 
1.529764e+03 
1.198107e+04 
2.772660e+03 
8.773616e+03 
1.187943e+04 
2.872580e+03 
2.004767e+04 
2.417534e+04 
3.008474e+03 
6.896824e+03 
1.429374e+03 
6.875880e+03 
2.080076e+03 
1.031010e+04 
8.628607e+03 
2.774966e+02 
2.854496e+03 
1.843597e+03 
2.894610e+03 
3.693110e+03 
3.289926e+03 
3.295094e+03 
3.403236e+03 
3.246860e+03 
3.243434e+03 
2.158931e+03 
3.543525e+03 
6.864442e+03 
7.305395e+03 
1.077550e+04 
1.273993e+04 
9.845336e+03 
6.438330e+03 
4.570205e+03 
2.127898e+03 
6.990808e+02 
2.269065e+03 
6.154143e+03 
8.485523e+03 
1.102871e+04 
1.318768e+04 
1.414062e+04 
1.398155e+04 
1.007259e+04 
7.579352e+03 
7.470504e+03 
5.848884e+03 
6.529299e+03 
8.561704e+03 
4.738722e+03 
4.783380e+03 
1.039061e+04 
1.421214e+04 
7.507183e+03 
4.842111e+03 
3.672309e+03 
1.050879e+04 
1.089721e+04 
3.025193e+03 
3.370415e+03 
1.236580e+04 
1.370547e+04 
3.418742e+03 
7.411706e+03 
1.263888e+04 
5.479884e+03 
1.970817e+03 
5.096938e+03 
1.531260e+04 
1.224513e+04 
5.231791e+03 
1.951899e+04 
1.372454e+04 
2.340859e+03 
5.269863e+03 
1.625902e+04 
1.150621e+04 
7.931192e+03 
1.408827e+04 
4.141805e+03 
2.111259e+04 
1.336153e+04 
2.116291e+03 
2.368092e+03 
1.551215e+04 
1.071270e+04 
6.060690e+03 
8.581882e+03 
3.256379e+03 
9.942768e+03 
3.777890e+03 
4.541407e+03 
2.447172e+03 
2.581620e+03 
3.611442e+03 
1.212955e+04 
1.267170e+04 
4.146496e+03 
2.340553e+03 
3.399915e+03 
1.141610e+04 
8.586713e+03 
1.785117e+03 
2.154164e+03 
2.545138e+03 
3.028604e+03 
1.039024e+04 
8.496887e+03 
3.884431e+03 
7.043441e+03 
5.006465e+03 
1.809692e+04 
1.313742e+04 
2.353760e+03 
3.707223e+03 
6.553278e+03 
4.131668e+03 
5.921077e+03 
9.527817e+03 
8.278427e+03 
7.249984e+03 
4.922704e+03 
1.962501e+03 
5.152088e+03 
4.374094e+03 
1.153529e+03 
6.960833e+03 
1.166118e+04 
8.345359e+03 
6.168897e+03 
3.540191e+03 
4.354569e+03 
9.463974e+03 
6.913866e+03 
1.071001e+04 
1.018261e+04 
8.578431e+03 
1.156438e+04 
3.578007e+03 
2.574396e+04 
2.864670e+04 
7.198424e+03 
5.559163e+04 
8.032696e+04 
6.542658e+04 
5.166061e+04 
3.122130e+04 
8.037675e+02 
1.024494e+04 
6.895405e+03 
1.204706e+04 
1.476392e+04 
1.365337e+04 
6.106677e+03 
4.677845e+03 
1.529764e+03 
1.198107e+04 
2.772660e+03 
8.773616e+03 
1.187943e+04 
2.872580e+03 
2.004767e+04 
2.417534e+04 
3.008474e+03 
6.896824e+03 
1.429374e+03 
6.875880e+03 
2.080076e+03 
1.031010e+04 
8.628607e+03 
