# vtk DataFile Version 2.0
fMag
ASCII
DATASET UNSTRUCTURED_GRID

FIELD FieldData 1
TIME 1 1 double
0.17500000
POINTS 310 float
1.007785930273714e+00 2.002737765448463e+00 0.000000000000000e+00
1.026921408128638e+00 2.010026941800634e+00 0.000000000000000e+00
1.046214065331173e+00 2.016070126893031e+00 0.000000000000000e+00
1.065704455242941e+00 2.022873748784584e+00 0.000000000000000e+00
1.084148830637832e+00 2.030912441577707e+00 0.000000000000000e+00
1.103582909319362e+00 2.037964943363302e+00 0.000000000000000e+00
1.122828263946310e+00 2.044189586756807e+00 0.000000000000000e+00
1.141832561590925e+00 2.051474417059180e+00 0.000000000000000e+00
1.161312152641123e+00 2.058156995373650e+00 0.000000000000000e+00
1.179860032841057e+00 2.066384213186854e+00 0.000000000000000e+00
1.199554360295772e+00 2.072161296606356e+00 0.000000000000000e+00
1.218612996405939e+00 2.079309802144553e+00 0.000000000000000e+00
1.238229421747153e+00 2.084844703112333e+00 0.000000000000000e+00
1.257367793656269e+00 2.091969098218327e+00 0.000000000000000e+00
1.277182219614928e+00 2.097347038750491e+00 0.000000000000000e+00
1.296331543587470e+00 2.103449576403938e+00 0.000000000000000e+00
1.316356179092965e+00 2.108962900715754e+00 0.000000000000000e+00
1.335797284704325e+00 2.114033993862253e+00 0.000000000000000e+00
1.355609329119620e+00 2.119447614427991e+00 0.000000000000000e+00
1.375533033183842e+00 2.123528279876866e+00 0.000000000000000e+00
1.395438790792106e+00 2.127784831532440e+00 0.000000000000000e+00
1.415387819755388e+00 2.131477570014641e+00 0.000000000000000e+00
1.435387765498315e+00 2.135644228913264e+00 0.000000000000000e+00
1.455166637314060e+00 2.139307784018177e+00 0.000000000000000e+00
1.475543137408809e+00 2.142920781644146e+00 0.000000000000000e+00
1.495075933720899e+00 2.146636473701212e+00 0.000000000000000e+00
1.515475311345860e+00 2.150140649503871e+00 0.000000000000000e+00
1.535039186858814e+00 2.153181138660241e+00 0.000000000000000e+00
1.555507104721863e+00 2.156603002781298e+00 0.000000000000000e+00
1.575213774443567e+00 2.159646165139435e+00 0.000000000000000e+00
1.595040639234287e+00 2.164526969998554e+00 0.000000000000000e+00
1.615090627693766e+00 2.166651714564092e+00 0.000000000000000e+00
1.635104263039330e+00 2.170314680091258e+00 0.000000000000000e+00
1.654636219729257e+00 2.174341862604802e+00 0.000000000000000e+00
1.674978759599879e+00 2.177115883183627e+00 0.000000000000000e+00
1.694777510249863e+00 2.180492370907420e+00 0.000000000000000e+00
1.713832562514585e+00 2.186917857418617e+00 0.000000000000000e+00
1.734093195868770e+00 2.186662316355556e+00 0.000000000000000e+00
1.753239168703405e+00 2.193203855567626e+00 0.000000000000000e+00
1.772602185914171e+00 2.198204514361702e+00 0.000000000000000e+00
1.792780125270642e+00 2.201119643315456e+00 0.000000000000000e+00
1.811838192205058e+00 2.206448055602551e+00 0.000000000000000e+00
1.831441191922202e+00 2.212229257890380e+00 0.000000000000000e+00
1.850583002122064e+00 2.217569593229378e+00 0.000000000000000e+00
1.870013621586039e+00 2.223335618767154e+00 0.000000000000000e+00
1.889588889758743e+00 2.227443196491287e+00 0.000000000000000e+00
1.907347168292249e+00 2.236944751927010e+00 0.000000000000000e+00
1.927298422747303e+00 2.240199727432290e+00 0.000000000000000e+00
1.946294917631844e+00 2.246149145573053e+00 0.000000000000000e+00
1.965630372186333e+00 2.252280715648831e+00 0.000000000000000e+00
1.984151643828672e+00 2.259684062072198e+00 0.000000000000000e+00
2.003733047961252e+00 2.264224652287548e+00 0.000000000000000e+00
2.022961209757231e+00 2.270257992177003e+00 0.000000000000000e+00
2.041841502173459e+00 2.276999358007294e+00 0.000000000000000e+00
2.060245093889594e+00 2.285174597174029e+00 0.000000000000000e+00
2.079913537979165e+00 2.289210642261722e+00 0.000000000000000e+00
2.099065496797277e+00 2.295124863131278e+00 0.000000000000000e+00
2.117071882085979e+00 2.304202861711247e+00 0.000000000000000e+00
2.136578779384796e+00 2.309300612692609e+00 0.000000000000000e+00
2.155881732537792e+00 2.314448637961137e+00 0.000000000000000e+00
2.174833229161089e+00 2.321936595577403e+00 0.000000000000000e+00
2.192750842908697e+00 2.329976477948391e+00 0.000000000000000e+00
2.212356654596416e+00 2.336254088358770e+00 0.000000000000000e+00
2.231810042471618e+00 2.339929169262875e+00 0.000000000000000e+00
2.250930801120997e+00 2.347197269855988e+00 0.000000000000000e+00
2.269343389223245e+00 2.354960077451636e+00 0.000000000000000e+00
2.288809136886308e+00 2.359737597981230e+00 0.000000000000000e+00
2.308293542347945e+00 2.365280368284477e+00 0.000000000000000e+00
2.327669683291920e+00 2.371816030296191e+00 0.000000000000000e+00
2.345957160920518e+00 2.378609422609704e+00 0.000000000000000e+00
2.365986835005093e+00 2.383090788668578e+00 0.000000000000000e+00
2.386099685851111e+00 2.387144018989736e+00 0.000000000000000e+00
2.405337225872723e+00 2.392117650061465e+00 0.000000000000000e+00
2.425032504604037e+00 2.395866250249086e+00 0.000000000000000e+00
2.445336581039663e+00 2.398103768482790e+00 0.000000000000000e+00
2.465903066929950e+00 2.400371117078337e+00 0.000000000000000e+00
2.485362719478232e+00 2.403551678401938e+00 0.000000000000000e+00
2.505631484230697e+00 2.405755696644118e+00 0.000000000000000e+00
2.526274046187595e+00 2.406986338875981e+00 0.000000000000000e+00
2.546145407877057e+00 2.408024507253776e+00 0.000000000000000e+00
2.567211482842879e+00 2.408797080222394e+00 0.000000000000000e+00
2.586904882172427e+00 2.410843935228663e+00 0.000000000000000e+00
2.607739151549406e+00 2.410952428883913e+00 0.000000000000000e+00
2.628528905253857e+00 2.411264352172968e+00 0.000000000000000e+00
2.647687277259218e+00 2.413659833881955e+00 0.000000000000000e+00
2.668936768403702e+00 2.414004409361903e+00 0.000000000000000e+00
2.689242634282416e+00 2.413045838367765e+00 0.000000000000000e+00
2.709916431698047e+00 2.413186470246943e+00 0.000000000000000e+00
2.730109232169918e+00 2.414978191003609e+00 0.000000000000000e+00
2.751080962616852e+00 2.414278675282915e+00 0.000000000000000e+00
2.771449196344339e+00 2.414502651451220e+00 0.000000000000000e+00
2.791930261160639e+00 2.414350026083999e+00 0.000000000000000e+00
2.812589329597965e+00 2.414566223396519e+00 0.000000000000000e+00
2.833452262988652e+00 2.414857919189638e+00 0.000000000000000e+00
2.854113668198058e+00 2.414181102756474e+00 0.000000000000000e+00
2.874250881322330e+00 2.414860890135492e+00 0.000000000000000e+00
2.895512911176887e+00 2.415458858834014e+00 0.000000000000000e+00
2.915627624344249e+00 2.414510842741408e+00 0.000000000000000e+00
2.936946963089258e+00 2.414337393319133e+00 0.000000000000000e+00
2.956661522512801e+00 2.413655856243037e+00 0.000000000000000e+00
2.977095294726230e+00 2.412867758034716e+00 0.000000000000000e+00
2.998846835951640e+00 2.411243999528682e+00 0.000000000000000e+00
3.017910927753199e+00 2.407781752201162e+00 0.000000000000000e+00
3.038878597969762e+00 2.404807909185626e+00 0.000000000000000e+00
3.059357482992465e+00 2.401103546635979e+00 0.000000000000000e+00
3.079037935182352e+00 2.397102123402509e+00 0.000000000000000e+00
3.099911183137401e+00 2.391787463645100e+00 0.000000000000000e+00
3.117790015226152e+00 2.385140067061350e+00 0.000000000000000e+00
3.138627400825917e+00 2.379367272125542e+00 0.000000000000000e+00
3.157987880181831e+00 2.372580541328464e+00 0.000000000000000e+00
3.176682120612748e+00 2.364807002841039e+00 0.000000000000000e+00
3.196464253958830e+00 2.356828673904540e+00 0.000000000000000e+00
3.214756859808212e+00 2.347997204575514e+00 0.000000000000000e+00
3.233928229456366e+00 2.339437387764018e+00 0.000000000000000e+00
3.252427336262826e+00 2.330264403531915e+00 0.000000000000000e+00
3.270242048475251e+00 2.320463843307043e+00 0.000000000000000e+00
3.289132938693881e+00 2.310840288909499e+00 0.000000000000000e+00
3.307369231984386e+00 2.301183493027791e+00 0.000000000000000e+00
3.325538443205242e+00 2.291555118437393e+00 0.000000000000000e+00
3.343800757136101e+00 2.280373922183743e+00 0.000000000000000e+00
3.360904910269421e+00 2.269066311452713e+00 0.000000000000000e+00
3.378619222644008e+00 2.257841731309261e+00 0.000000000000000e+00
3.395460399751904e+00 2.246542258099970e+00 0.000000000000000e+00
3.412531976796568e+00 2.234074500663296e+00 0.000000000000000e+00
3.429041432348831e+00 2.221022647958172e+00 0.000000000000000e+00
3.445372249101812e+00 2.208289195841049e+00 0.000000000000000e+00
3.461766415420372e+00 2.195873484349450e+00 0.000000000000000e+00
3.477712464162923e+00 2.181864469842113e+00 0.000000000000000e+00
3.492714614354372e+00 2.167504512547984e+00 0.000000000000000e+00
3.509809797428210e+00 2.155831954251256e+00 0.000000000000000e+00
3.525262063858601e+00 2.142706238562580e+00 0.000000000000000e+00
3.541943395036160e+00 2.128518520341284e+00 0.000000000000000e+00
3.556941303628411e+00 2.115516103421180e+00 0.000000000000000e+00
3.574150173344816e+00 2.102785160759606e+00 0.000000000000000e+00
3.592343284131124e+00 2.093033421095052e+00 0.000000000000000e+00
3.608864110545529e+00 2.080733187692705e+00 0.000000000000000e+00
3.626989564946109e+00 2.069777924026834e+00 0.000000000000000e+00
3.645890388330940e+00 2.061347344484850e+00 0.000000000000000e+00
3.665207181179491e+00 2.052980075065329e+00 0.000000000000000e+00
3.684227916024099e+00 2.045323628390365e+00 0.000000000000000e+00
3.703881102594325e+00 2.038060362484646e+00 0.000000000000000e+00
3.723839715891406e+00 2.032485291257419e+00 0.000000000000000e+00
3.743787199730093e+00 2.026889998845449e+00 0.000000000000000e+00
3.763909282422527e+00 2.022329719724244e+00 0.000000000000000e+00
3.784911792225036e+00 2.019792148341285e+00 0.000000000000000e+00
3.804812115476450e+00 2.016413122025617e+00 0.000000000000000e+00
3.825090838558140e+00 2.011689700861772e+00 0.000000000000000e+00
3.845726006362594e+00 2.011516649999923e+00 0.000000000000000e+00
3.866916200196259e+00 2.011211556889714e+00 0.000000000000000e+00
3.886766655504724e+00 2.008010126880050e+00 0.000000000000000e+00
3.906821471137126e+00 2.005096949834112e+00 0.000000000000000e+00
3.928151462273354e+00 2.005569536232188e+00 0.000000000000000e+00
3.948797495120616e+00 2.005556455102589e+00 0.000000000000000e+00
3.968243817874265e+00 2.000128520196456e+00 0.000000000000000e+00
3.989072748611650e+00 2.000677164851139e+00 0.000000000000000e+00
1.007785930273713e+00 2.997262234551540e+00 0.000000000000000e+00
1.026921408128639e+00 2.989973058199374e+00 0.000000000000000e+00
1.046214065331175e+00 2.983929873106983e+00 0.000000000000000e+00
1.065704455242945e+00 2.977126251215430e+00 0.000000000000000e+00
1.084148830637833e+00 2.969087558422311e+00 0.000000000000000e+00
1.103582909319369e+00 2.962035056636719e+00 0.000000000000000e+00
1.122828263946311e+00 2.955810413243216e+00 0.000000000000000e+00
1.141832561590931e+00 2.948525582940845e+00 0.000000000000000e+00
1.161312152641129e+00 2.941843004626381e+00 0.000000000000000e+00
1.179860032841064e+00 2.933615786813176e+00 0.000000000000000e+00
1.199554360295779e+00 2.927838703393673e+00 0.000000000000000e+00
1.218612996405946e+00 2.920690197855476e+00 0.000000000000000e+00
1.238229421747163e+00 2.915155296887701e+00 0.000000000000000e+00
1.257367793656277e+00 2.908030901781708e+00 0.000000000000000e+00
1.277182219614935e+00 2.902652961249532e+00 0.000000000000000e+00
1.296331543587476e+00 2.896550423596088e+00 0.000000000000000e+00
1.316356179092971e+00 2.891037099284270e+00 0.000000000000000e+00
1.335797284704330e+00 2.885966006137773e+00 0.000000000000000e+00
1.355609329119623e+00 2.880552385572029e+00 0.000000000000000e+00
1.375533033183844e+00 2.876471720123154e+00 0.000000000000000e+00
1.395438790792111e+00 2.872215168467581e+00 0.000000000000000e+00
1.415387819755385e+00 2.868522429985368e+00 0.000000000000000e+00
1.435387765498320e+00 2.864355771086754e+00 0.000000000000000e+00
1.455166637314061e+00 2.860692215981834e+00 0.000000000000000e+00
1.475543137408808e+00 2.857079218355866e+00 0.000000000000000e+00
1.495075933720901e+00 2.853363526298807e+00 0.000000000000000e+00
1.515475311345861e+00 2.849859350496148e+00 0.000000000000000e+00
1.535039186858816e+00 2.846818861339782e+00 0.000000000000000e+00
1.555507104721864e+00 2.843396997218725e+00 0.000000000000000e+00
1.575213774443567e+00 2.840353834860587e+00 0.000000000000000e+00
1.595040639234290e+00 2.835473030001473e+00 0.000000000000000e+00
1.615090627693768e+00 2.833348285435938e+00 0.000000000000000e+00
1.635104263039334e+00 2.829685319908779e+00 0.000000000000000e+00
1.654636219729260e+00 2.825658137395239e+00 0.000000000000000e+00
1.674978759599884e+00 2.822884116816413e+00 0.000000000000000e+00
1.694777510249867e+00 2.819507629092625e+00 0.000000000000000e+00
1.713832562514590e+00 2.813082142581427e+00 0.000000000000000e+00
1.734093195868774e+00 2.813337683644492e+00 0.000000000000000e+00
1.753239168703406e+00 2.806796144432416e+00 0.000000000000000e+00
1.772602185914174e+00 2.801795485638343e+00 0.000000000000000e+00
1.792780125270645e+00 2.798880356684596e+00 0.000000000000000e+00
1.811838192205060e+00 2.793551944397498e+00 0.000000000000000e+00
1.831441191922204e+00 2.787770742109669e+00 0.000000000000000e+00
1.850583002122063e+00 2.782430406770667e+00 0.000000000000000e+00
1.870013621586040e+00 2.776664381232892e+00 0.000000000000000e+00
1.889588889758745e+00 2.772556803508766e+00 0.000000000000000e+00
1.907347168292250e+00 2.763055248073039e+00 0.000000000000000e+00
1.927298422747302e+00 2.759800272567751e+00 0.000000000000000e+00
1.946294917631844e+00 2.753850854426996e+00 0.000000000000000e+00
1.965630372186334e+00 2.747719284351219e+00 0.000000000000000e+00
1.984151643828669e+00 2.740315937927844e+00 0.000000000000000e+00
2.003733047961247e+00 2.735775347712492e+00 0.000000000000000e+00
2.022961209757225e+00 2.729742007823039e+00 0.000000000000000e+00
2.041841502173452e+00 2.723000641992741e+00 0.000000000000000e+00
2.060245093889587e+00 2.714825402826013e+00 0.000000000000000e+00
2.079913537979155e+00 2.710789357738317e+00 0.000000000000000e+00
2.099065496797270e+00 2.704875136868761e+00 0.000000000000000e+00
2.117071882085973e+00 2.695797138288794e+00 0.000000000000000e+00
2.136578779384786e+00 2.690699387307425e+00 0.000000000000000e+00
2.155881732537786e+00 2.685551362038907e+00 0.000000000000000e+00
2.174833229161080e+00 2.678063404422638e+00 0.000000000000000e+00
2.192750842908691e+00 2.670023522051653e+00 0.000000000000000e+00
2.212356654596412e+00 2.663745911641282e+00 0.000000000000000e+00
2.231810042471613e+00 2.660070830737170e+00 0.000000000000000e+00
2.250930801120989e+00 2.652802730144055e+00 0.000000000000000e+00
2.269343389223242e+00 2.645039922548415e+00 0.000000000000000e+00
2.288809136886306e+00 2.640262402018837e+00 0.000000000000000e+00
2.308293542347944e+00 2.634719631715587e+00 0.000000000000000e+00
2.327669683291921e+00 2.628183969703872e+00 0.000000000000000e+00
2.345957160920513e+00 2.621390577390363e+00 0.000000000000000e+00
2.365986835005093e+00 2.616909211331491e+00 0.000000000000000e+00
2.386099685851106e+00 2.612855981010329e+00 0.000000000000000e+00
2.405337225872722e+00 2.607882349938595e+00 0.000000000000000e+00
2.425032504604034e+00 2.604133749750983e+00 0.000000000000000e+00
2.445336581039662e+00 2.601896231517275e+00 0.000000000000000e+00
2.465903066929940e+00 2.599628882921726e+00 0.000000000000000e+00
2.485362719478231e+00 2.596448321598126e+00 0.000000000000000e+00
2.505631484230690e+00 2.594244303355943e+00 0.000000000000000e+00
2.526274046187590e+00 2.593013661124075e+00 0.000000000000000e+00
2.546145407877053e+00 2.591975492746279e+00 0.000000000000000e+00
2.567211482842871e+00 2.591202919777654e+00 0.000000000000000e+00
2.586904882172420e+00 2.589156064771386e+00 0.000000000000000e+00
2.607739151549401e+00 2.589047571116141e+00 0.000000000000000e+00
2.628528905253850e+00 2.588735647827078e+00 0.000000000000000e+00
2.647687277259211e+00 2.586340166118087e+00 0.000000000000000e+00
2.668936768403694e+00 2.585995590638138e+00 0.000000000000000e+00
2.689242634282409e+00 2.586954161632280e+00 0.000000000000000e+00
2.709916431698037e+00 2.586813529753101e+00 0.000000000000000e+00
2.730109232169909e+00 2.585021808996431e+00 0.000000000000000e+00
2.751080962616842e+00 2.585721324717120e+00 0.000000000000000e+00
2.771449196344328e+00 2.585497348548826e+00 0.000000000000000e+00
2.791930261160628e+00 2.585649973916039e+00 0.000000000000000e+00
2.812589329597955e+00 2.585433776603508e+00 0.000000000000000e+00
2.833452262988641e+00 2.585142080810392e+00 0.000000000000000e+00
2.854113668198050e+00 2.585818897243557e+00 0.000000000000000e+00
2.874250881322316e+00 2.585139109864535e+00 0.000000000000000e+00
2.895512911176879e+00 2.584541141166009e+00 0.000000000000000e+00
2.915627624344237e+00 2.585489157258618e+00 0.000000000000000e+00
2.936946963089248e+00 2.585662606680898e+00 0.000000000000000e+00
2.956661522512788e+00 2.586344143756988e+00 0.000000000000000e+00
2.977095294726223e+00 2.587132241965306e+00 0.000000000000000e+00
2.998846835951628e+00 2.588756000471341e+00 0.000000000000000e+00
3.017910927753189e+00 2.592218247798864e+00 0.000000000000000e+00
3.038878597969753e+00 2.595192090814398e+00 0.000000000000000e+00
3.059357482992450e+00 2.598896453364044e+00 0.000000000000000e+00
3.079037935182348e+00 2.602897876597512e+00 0.000000000000000e+00
3.099911183137387e+00 2.608212536354924e+00 0.000000000000000e+00
3.117790015226148e+00 2.614859932938684e+00 0.000000000000000e+00
3.138627400825905e+00 2.620632727874485e+00 0.000000000000000e+00
3.157987880181825e+00 2.627419458671566e+00 0.000000000000000e+00
3.176682120612742e+00 2.635192997158994e+00 0.000000000000000e+00
3.196464253958819e+00 2.643171326095495e+00 0.000000000000000e+00
3.214756859808208e+00 2.652002795424521e+00 0.000000000000000e+00
3.233928229456358e+00 2.660562612236007e+00 0.000000000000000e+00
3.252427336262827e+00 2.669735596468107e+00 0.000000000000000e+00
3.270242048475244e+00 2.679536156692981e+00 0.000000000000000e+00
3.289132938693882e+00 2.689159711090524e+00 0.000000000000000e+00
3.307369231984373e+00 2.698816506972234e+00 0.000000000000000e+00
3.325538443205236e+00 2.708444881562644e+00 0.000000000000000e+00
3.343800757136082e+00 2.719626077816299e+00 0.000000000000000e+00
3.360904910269414e+00 2.730933688547325e+00 0.000000000000000e+00
3.378619222643994e+00 2.742158268690781e+00 0.000000000000000e+00
3.395460399751887e+00 2.753457741900073e+00 0.000000000000000e+00
3.412531976796554e+00 2.765925499336755e+00 0.000000000000000e+00
3.429041432348809e+00 2.778977352041872e+00 0.000000000000000e+00
3.445372249101804e+00 2.791710804158987e+00 0.000000000000000e+00
3.461766415420358e+00 2.804126515650586e+00 0.000000000000000e+00
3.477712464162908e+00 2.818135530157936e+00 0.000000000000000e+00
3.492714614354355e+00 2.832495487452061e+00 0.000000000000000e+00
3.509809797428195e+00 2.844168045748785e+00 0.000000000000000e+00
3.525262063858585e+00 2.857293761437471e+00 0.000000000000000e+00
3.541943395036138e+00 2.871481479658767e+00 0.000000000000000e+00
3.556941303628395e+00 2.884483896578871e+00 0.000000000000000e+00
3.574150173344805e+00 2.897214839240438e+00 0.000000000000000e+00
3.592343284131110e+00 2.906966578904997e+00 0.000000000000000e+00
3.608864110545509e+00 2.919266812307347e+00 0.000000000000000e+00
3.626989564946098e+00 2.930222075973218e+00 0.000000000000000e+00
3.645890388330923e+00 2.938652655515198e+00 0.000000000000000e+00
3.665207181179477e+00 2.947019924934729e+00 0.000000000000000e+00
3.684227916024084e+00 2.954676371609691e+00 0.000000000000000e+00
3.703881102594309e+00 2.961939637515409e+00 0.000000000000000e+00
3.723839715891395e+00 2.967514708742630e+00 0.000000000000000e+00
3.743787199730076e+00 2.973110001154593e+00 0.000000000000000e+00
3.763909282422520e+00 2.977670280275796e+00 0.000000000000000e+00
3.784911792225023e+00 2.980207851658757e+00 0.000000000000000e+00
3.804812115476445e+00 2.983586877974414e+00 0.000000000000000e+00
3.825090838558129e+00 2.988310299138260e+00 0.000000000000000e+00
3.845726006362590e+00 2.988483350000107e+00 0.000000000000000e+00
3.866916200196250e+00 2.988788443110319e+00 0.000000000000000e+00
3.886766655504721e+00 2.991989873119977e+00 0.000000000000000e+00
3.906821471137120e+00 2.994903050165905e+00 0.000000000000000e+00
3.928151462273351e+00 2.994430463767835e+00 0.000000000000000e+00
3.948797495120609e+00 2.994443544897430e+00 0.000000000000000e+00
3.968243817874264e+00 2.999871479803554e+00 0.000000000000000e+00
3.989072748611648e+00 2.999322835148864e+00 0.000000000000000e+00

POINT_DATA   310
SCALARS fMag double
LOOKUP_TABLE default

1.075860e+03 
2.508762e+03 
4.353035e+03 
5.372817e+03 
5.736867e+03 
4.546697e+03 
1.188686e+03 
2.478311e+03 
3.105293e+03 
2.695129e+03 
1.801205e+03 
7.218643e+02 
7.884865e+02 
1.350374e+03 
4.291257e+03 
6.781783e+03 
6.715047e+03 
4.475611e+03 
2.227800e+03 
2.334958e+02 
6.894900e+02 
1.479854e+03 
3.126264e+03 
5.770143e+03 
8.080014e+03 
8.174523e+03 
9.033451e+03 
9.570861e+03 
8.093082e+03 
4.970633e+03 
2.927168e+03 
1.946650e+03 
4.034408e+03 
5.905546e+03 
4.405887e+03 
9.067708e+02 
2.616776e+03 
2.592069e+03 
2.303427e+03 
3.954077e+03 
6.035199e+03 
6.331451e+03 
5.744494e+03 
4.027223e+03 
2.602924e+03 
2.019466e+03 
2.347755e+03 
3.159588e+03 
3.804280e+03 
3.453811e+03 
1.810152e+03 
7.198624e+02 
1.096661e+03 
1.007008e+03 
1.493399e+03 
7.108127e+02 
1.658071e+03 
1.493526e+03 
1.842994e+03 
4.117353e+03 
7.424824e+03 
9.560952e+03 
7.965550e+03 
6.560219e+03 
4.727258e+03 
1.124111e+03 
2.137896e+03 
1.882738e+03 
9.492329e+03 
1.035000e+04 
2.521800e+02 
6.536866e+03 
1.457812e+03 
3.649990e+03 
2.870099e+03 
9.415738e+03 
6.567873e+03 
2.770763e+03 
7.839985e+03 
1.184220e+04 
1.265127e+04 
1.022185e+04 
4.060622e+02 
1.458539e+04 
1.942259e+04 
9.419811e+03 
3.437141e+03 
3.996456e+03 
7.235790e+03 
6.387047e+03 
1.123736e+03 
2.070635e+03 
2.158541e+03 
2.039572e+03 
5.444539e+03 
1.133259e+04 
1.086038e+04 
1.199269e+04 
1.607131e+04 
6.905177e+03 
1.327611e+04 
2.441723e+04 
1.841891e+04 
3.362374e+03 
7.540926e+03 
1.432135e+04 
2.474592e+04 
2.602917e+04 
1.123548e+04 
2.787838e+03 
1.114959e+04 
1.029939e+04 
6.804749e+03 
3.618968e+03 
3.252405e+03 
8.642629e+03 
5.567507e+03 
5.590641e+02 
8.554588e+03 
9.272767e+03 
5.401716e+03 
7.232232e+03 
8.466899e+03 
1.150177e+03 
3.528973e+03 
1.729179e+03 
6.941057e+03 
4.623678e+03 
2.293949e+03 
3.774605e+03 
1.607173e+04 
2.100329e+04 
1.602072e+04 
8.099182e+03 
1.707573e+03 
5.744620e+03 
4.913290e+03 
3.217092e+03 
5.820339e+03 
4.654979e+03 
2.206961e+03 
1.690688e+02 
1.109132e+03 
5.362397e+03 
9.841408e+03 
6.567461e+03 
3.576407e+03 
5.314971e+03 
1.068610e+04 
1.939245e+03 
1.039185e+04 
7.486541e+03 
4.535949e+03 
6.893736e+03 
2.051100e+03 
1.075860e+03 
2.508762e+03 
4.353035e+03 
5.372817e+03 
5.736867e+03 
4.546697e+03 
1.188686e+03 
2.478311e+03 
3.105293e+03 
2.695129e+03 
1.801205e+03 
7.218643e+02 
7.884865e+02 
1.350374e+03 
4.291257e+03 
6.781783e+03 
6.715047e+03 
4.475611e+03 
2.227800e+03 
2.334958e+02 
6.894900e+02 
1.479854e+03 
3.126264e+03 
5.770143e+03 
8.080014e+03 
8.174523e+03 
9.033451e+03 
9.570861e+03 
8.093082e+03 
4.970633e+03 
2.927168e+03 
1.946650e+03 
4.034408e+03 
5.905546e+03 
4.405887e+03 
9.067708e+02 
2.616776e+03 
2.592069e+03 
2.303427e+03 
3.954077e+03 
6.035199e+03 
6.331451e+03 
5.744494e+03 
4.027223e+03 
2.602924e+03 
2.019466e+03 
2.347755e+03 
3.159588e+03 
3.804280e+03 
3.453811e+03 
1.810152e+03 
7.198624e+02 
1.096661e+03 
1.007008e+03 
1.493399e+03 
7.108127e+02 
1.658071e+03 
1.493526e+03 
1.842994e+03 
4.117353e+03 
7.424824e+03 
9.560952e+03 
7.965550e+03 
6.560219e+03 
4.727258e+03 
1.124111e+03 
2.137896e+03 
1.882738e+03 
9.492329e+03 
1.035000e+04 
2.521800e+02 
6.536866e+03 
1.457812e+03 
3.649990e+03 
2.870099e+03 
9.415738e+03 
6.567873e+03 
2.770763e+03 
7.839985e+03 
1.184220e+04 
1.265127e+04 
1.022185e+04 
4.060622e+02 
1.458539e+04 
1.942259e+04 
9.419811e+03 
3.437141e+03 
3.996456e+03 
7.235790e+03 
6.387047e+03 
1.123736e+03 
2.070635e+03 
2.158541e+03 
2.039572e+03 
5.444539e+03 
1.133259e+04 
1.086038e+04 
1.199269e+04 
1.607131e+04 
6.905177e+03 
1.327611e+04 
2.441723e+04 
1.841891e+04 
3.362374e+03 
7.540926e+03 
1.432135e+04 
2.474592e+04 
2.602917e+04 
1.123548e+04 
2.787838e+03 
1.114959e+04 
1.029939e+04 
6.804749e+03 
3.618968e+03 
3.252405e+03 
8.642629e+03 
5.567507e+03 
5.590641e+02 
8.554588e+03 
9.272767e+03 
5.401716e+03 
7.232232e+03 
8.466899e+03 
1.150177e+03 
3.528973e+03 
1.729179e+03 
6.941057e+03 
4.623678e+03 
2.293949e+03 
3.774605e+03 
1.607173e+04 
2.100329e+04 
1.602072e+04 
8.099182e+03 
1.707573e+03 
5.744620e+03 
4.913290e+03 
3.217092e+03 
5.820339e+03 
4.654979e+03 
2.206961e+03 
1.690688e+02 
1.109132e+03 
5.362397e+03 
9.841408e+03 
6.567461e+03 
3.576407e+03 
5.314971e+03 
1.068610e+04 
1.939245e+03 
1.039185e+04 
7.486541e+03 
4.535949e+03 
6.893736e+03 
2.051100e+03 
