# vtk DataFile Version 2.0
fMag
ASCII
DATASET UNSTRUCTURED_GRID

FIELD FieldData 1
TIME 1 1 double
0.20500000
POINTS 310 float
1.004178623695782e+00 2.001414606545819e+00 0.000000000000000e+00
1.023085978396486e+00 2.008224310717411e+00 0.000000000000000e+00
1.041879589440845e+00 2.014379361948319e+00 0.000000000000000e+00
1.060988208164352e+00 2.020742935474449e+00 0.000000000000000e+00
1.079540098757170e+00 2.027978542019995e+00 0.000000000000000e+00
1.098669304079192e+00 2.034203608162295e+00 0.000000000000000e+00
1.117630643144956e+00 2.039823938225042e+00 0.000000000000000e+00
1.136549885281350e+00 2.046811185477755e+00 0.000000000000000e+00
1.155582504954050e+00 2.052525773117001e+00 0.000000000000000e+00
1.174369001144504e+00 2.059784167137649e+00 0.000000000000000e+00
1.193585511291839e+00 2.064912633081657e+00 0.000000000000000e+00
1.212206984636104e+00 2.072404998856588e+00 0.000000000000000e+00
1.231229657941673e+00 2.078572945424985e+00 0.000000000000000e+00
1.249588456638553e+00 2.086321915212617e+00 0.000000000000000e+00
1.268592294047665e+00 2.093076873315850e+00 0.000000000000000e+00
1.286622153777579e+00 2.101183035207517e+00 0.000000000000000e+00
1.305226655343535e+00 2.108966180539993e+00 0.000000000000000e+00
1.323521366905981e+00 2.116598313721609e+00 0.000000000000000e+00
1.341683884291511e+00 2.125124397680092e+00 0.000000000000000e+00
1.359949057533117e+00 2.133100325102114e+00 0.000000000000000e+00
1.377757092596291e+00 2.141963322667842e+00 0.000000000000000e+00
1.395929916548966e+00 2.150343708923291e+00 0.000000000000000e+00
1.414010751580866e+00 2.158871051086176e+00 0.000000000000000e+00
1.431956239921707e+00 2.167001812744824e+00 0.000000000000000e+00
1.450426991142773e+00 2.175259588330435e+00 0.000000000000000e+00
1.468202281993301e+00 2.183173959384701e+00 0.000000000000000e+00
1.486992882979210e+00 2.190986066733476e+00 0.000000000000000e+00
1.505050284661393e+00 2.198315691580718e+00 0.000000000000000e+00
1.523860456059103e+00 2.205622855304694e+00 0.000000000000000e+00
1.542620184299954e+00 2.212289054896416e+00 0.000000000000000e+00
1.560155052913097e+00 2.220870383286105e+00 0.000000000000000e+00
1.579320485616516e+00 2.227437610690852e+00 0.000000000000000e+00
1.597747997911404e+00 2.234779621145407e+00 0.000000000000000e+00
1.615962504819858e+00 2.242201349294159e+00 0.000000000000000e+00
1.635178293578035e+00 2.248739178721161e+00 0.000000000000000e+00
1.653682232204043e+00 2.255650716832255e+00 0.000000000000000e+00
1.670956101354010e+00 2.265296650399606e+00 0.000000000000000e+00
1.690684132401736e+00 2.269127995558214e+00 0.000000000000000e+00
1.707867100671556e+00 2.279012496485657e+00 0.000000000000000e+00
1.725941315229083e+00 2.287100177180851e+00 0.000000000000000e+00
1.745129021152725e+00 2.293593347232762e+00 0.000000000000000e+00
1.763093086963950e+00 2.301581334718138e+00 0.000000000000000e+00
1.782046531701132e+00 2.308622906336961e+00 0.000000000000000e+00
1.801007475051122e+00 2.313997329770750e+00 0.000000000000000e+00
1.820680526411814e+00 2.318458373585761e+00 0.000000000000000e+00
1.840557683951311e+00 2.319848421088172e+00 0.000000000000000e+00
1.859832110007964e+00 2.325640286112767e+00 0.000000000000000e+00
1.879946555943527e+00 2.324375059832020e+00 0.000000000000000e+00
1.899723247711024e+00 2.324545690076271e+00 0.000000000000000e+00
1.919941120064511e+00 2.323767734868268e+00 0.000000000000000e+00
1.940047084677007e+00 2.324461950517622e+00 0.000000000000000e+00
1.960013859372868e+00 2.322787429429260e+00 0.000000000000000e+00
1.980114106516669e+00 2.323545846931668e+00 0.000000000000000e+00
2.000181747505471e+00 2.325660853501981e+00 0.000000000000000e+00
2.019944811371178e+00 2.329711046700412e+00 0.000000000000000e+00
2.039937284239097e+00 2.330729275930380e+00 0.000000000000000e+00
2.059885744175850e+00 2.334116640952955e+00 0.000000000000000e+00
2.079159078534947e+00 2.340683161894671e+00 0.000000000000000e+00
2.099163717073834e+00 2.343650655313765e+00 0.000000000000000e+00
2.118850744513759e+00 2.346388388211677e+00 0.000000000000000e+00
2.138955350303309e+00 2.350715949726192e+00 0.000000000000000e+00
2.158319102016268e+00 2.355675003924145e+00 0.000000000000000e+00
2.178648056567643e+00 2.358973911656755e+00 0.000000000000000e+00
2.198497584207488e+00 2.359884374673618e+00 0.000000000000000e+00
2.218302068573747e+00 2.364131828819963e+00 0.000000000000000e+00
2.238041211911674e+00 2.368725514759968e+00 0.000000000000000e+00
2.258249582727851e+00 2.370503252597194e+00 0.000000000000000e+00
2.278046333855410e+00 2.372962802479447e+00 0.000000000000000e+00
2.298044302531622e+00 2.376543590385851e+00 0.000000000000000e+00
2.317721632949555e+00 2.380819438100185e+00 0.000000000000000e+00
2.337888838551227e+00 2.382860195613739e+00 0.000000000000000e+00
2.357731619051620e+00 2.384901054645117e+00 0.000000000000000e+00
2.377560933406023e+00 2.389111085463741e+00 0.000000000000000e+00
2.397535773840954e+00 2.393360461385775e+00 0.000000000000000e+00
2.417046922020079e+00 2.396577594390693e+00 0.000000000000000e+00
2.437028090772014e+00 2.400123081286153e+00 0.000000000000000e+00
2.456689184498600e+00 2.404992944556413e+00 0.000000000000000e+00
2.476547734653416e+00 2.409659058304533e+00 0.000000000000000e+00
2.496297767720506e+00 2.413855802797059e+00 0.000000000000000e+00
2.515696844063888e+00 2.417900093161520e+00 0.000000000000000e+00
2.535968398663810e+00 2.422421952159450e+00 0.000000000000000e+00
2.555465044856347e+00 2.428098458792924e+00 0.000000000000000e+00
2.575639081603324e+00 2.430478091814001e+00 0.000000000000000e+00
2.595828245897719e+00 2.432128507942884e+00 0.000000000000000e+00
2.615811241168406e+00 2.436250705580287e+00 0.000000000000000e+00
2.636427817548520e+00 2.436792578323014e+00 0.000000000000000e+00
2.656008589553035e+00 2.434772497034107e+00 0.000000000000000e+00
2.676356083704065e+00 2.431934684658421e+00 0.000000000000000e+00
2.696895575860187e+00 2.427539199158847e+00 0.000000000000000e+00
2.715301081434115e+00 2.419822733785731e+00 0.000000000000000e+00
2.735069657539185e+00 2.412806398642804e+00 0.000000000000000e+00
2.754219275152229e+00 2.405767742517806e+00 0.000000000000000e+00
2.773015922366544e+00 2.398668123954214e+00 0.000000000000000e+00
2.792045890175296e+00 2.391103855484654e+00 0.000000000000000e+00
2.811086588823217e+00 2.383260698951868e+00 0.000000000000000e+00
2.830706641530679e+00 2.378801624475747e+00 0.000000000000000e+00
2.850750006475763e+00 2.375345375497890e+00 0.000000000000000e+00
2.870117157784922e+00 2.368790194995087e+00 0.000000000000000e+00
2.889786478406280e+00 2.361525908687876e+00 0.000000000000000e+00
2.908738347025631e+00 2.354592060715246e+00 0.000000000000000e+00
2.928349219212356e+00 2.349678706924363e+00 0.000000000000000e+00
2.948173616461676e+00 2.344054571418372e+00 0.000000000000000e+00
2.966931027354140e+00 2.335065861878388e+00 0.000000000000000e+00
2.985296564138539e+00 2.326247933112897e+00 0.000000000000000e+00
3.004682951892035e+00 2.317355793428125e+00 0.000000000000000e+00
3.023240405129988e+00 2.309516450542905e+00 0.000000000000000e+00
3.041587268171920e+00 2.299588612748597e+00 0.000000000000000e+00
3.058925790050943e+00 2.287688642225635e+00 0.000000000000000e+00
3.077019223935642e+00 2.278644399699752e+00 0.000000000000000e+00
3.095809478992244e+00 2.269765129080704e+00 0.000000000000000e+00
3.114511259230598e+00 2.259543232842486e+00 0.000000000000000e+00
3.132058850820993e+00 2.250829094923457e+00 0.000000000000000e+00
3.151117133338278e+00 2.240263800056834e+00 0.000000000000000e+00
3.169763205991695e+00 2.232078228261013e+00 0.000000000000000e+00
3.188327276528849e+00 2.223676472188157e+00 0.000000000000000e+00
3.206861366937324e+00 2.213710233108662e+00 0.000000000000000e+00
3.224890019054616e+00 2.204212873160802e+00 0.000000000000000e+00
3.244114079741236e+00 2.194523945874182e+00 0.000000000000000e+00
3.262736850366317e+00 2.186265844777364e+00 0.000000000000000e+00
3.281560704490194e+00 2.176781861978085e+00 0.000000000000000e+00
3.299357113372578e+00 2.166403500323908e+00 0.000000000000000e+00
3.316851567921202e+00 2.155270745143757e+00 0.000000000000000e+00
3.334059501174196e+00 2.143488491719985e+00 0.000000000000000e+00
3.350848306641250e+00 2.130812894552971e+00 0.000000000000000e+00
3.367363369396938e+00 2.118149475033891e+00 0.000000000000000e+00
3.384505989093070e+00 2.105902641981201e+00 0.000000000000000e+00
3.401882089078360e+00 2.095117387841415e+00 0.000000000000000e+00
3.419841251202041e+00 2.083717314311579e+00 0.000000000000000e+00
3.437475990629943e+00 2.072784638023087e+00 0.000000000000000e+00
3.457497402229580e+00 2.065533005389126e+00 0.000000000000000e+00
3.477031315209696e+00 2.058864347254225e+00 0.000000000000000e+00
3.497851154137391e+00 2.053365300550035e+00 0.000000000000000e+00
3.517589466936521e+00 2.048748264677836e+00 0.000000000000000e+00
3.539087087725570e+00 2.045791528325083e+00 0.000000000000000e+00
3.560340792493363e+00 2.044972702325740e+00 0.000000000000000e+00
3.580419382690815e+00 2.041051995478597e+00 0.000000000000000e+00
3.601493205423060e+00 2.039250235121917e+00 0.000000000000000e+00
3.622838931398515e+00 2.038911457394978e+00 0.000000000000000e+00
3.644006814972856e+00 2.037677772454863e+00 0.000000000000000e+00
3.664546111931671e+00 2.036179782476882e+00 0.000000000000000e+00
3.685307816833455e+00 2.034523418780257e+00 0.000000000000000e+00
3.706860238618280e+00 2.033586534291088e+00 0.000000000000000e+00
3.727932698965848e+00 2.031546370880154e+00 0.000000000000000e+00
3.747945906754285e+00 2.029419423368954e+00 0.000000000000000e+00
3.769474429006585e+00 2.028571677411830e+00 0.000000000000000e+00
3.790552651425759e+00 2.026312109363680e+00 0.000000000000000e+00
3.811121607057834e+00 2.022532161641897e+00 0.000000000000000e+00
3.832228503851653e+00 2.021814801350569e+00 0.000000000000000e+00
3.853558084666526e+00 2.020198819432552e+00 0.000000000000000e+00
3.874239213282052e+00 2.016714347059562e+00 0.000000000000000e+00
3.895481140722845e+00 2.013303318406870e+00 0.000000000000000e+00
3.916782942845709e+00 2.011605486271007e+00 0.000000000000000e+00
3.937883092472969e+00 2.009939724384101e+00 0.000000000000000e+00
3.958655263119934e+00 2.003911908425218e+00 0.000000000000000e+00
3.980105163543965e+00 2.003510372793313e+00 0.000000000000000e+00
1.004178623695779e+00 2.998585393454183e+00 0.000000000000000e+00
1.023085978396484e+00 2.991775689282595e+00 0.000000000000000e+00
1.041879589440845e+00 2.985620638051693e+00 0.000000000000000e+00
1.060988208164354e+00 2.979257064525568e+00 0.000000000000000e+00
1.079540098757169e+00 2.972021457980024e+00 0.000000000000000e+00
1.098669304079195e+00 2.965796391837727e+00 0.000000000000000e+00
1.117630643144956e+00 2.960176061774982e+00 0.000000000000000e+00
1.136549885281354e+00 2.953188814522271e+00 0.000000000000000e+00
1.155582504954054e+00 2.947474226883037e+00 0.000000000000000e+00
1.174369001144509e+00 2.940215832862390e+00 0.000000000000000e+00
1.193585511291844e+00 2.935087366918381e+00 0.000000000000000e+00
1.212206984636107e+00 2.927595001143446e+00 0.000000000000000e+00
1.231229657941680e+00 2.921427054575054e+00 0.000000000000000e+00
1.249588456638556e+00 2.913678084787420e+00 0.000000000000000e+00
1.268592294047669e+00 2.906923126684180e+00 0.000000000000000e+00
1.286622153777583e+00 2.898816964792522e+00 0.000000000000000e+00
1.305226655343541e+00 2.891033819460046e+00 0.000000000000000e+00
1.323521366905985e+00 2.883401686278430e+00 0.000000000000000e+00
1.341683884291515e+00 2.874875602319944e+00 0.000000000000000e+00
1.359949057533120e+00 2.866899674897922e+00 0.000000000000000e+00
1.377757092596301e+00 2.858036677332202e+00 0.000000000000000e+00
1.395929916548969e+00 2.849656291076752e+00 0.000000000000000e+00
1.414010751580882e+00 2.841128948913876e+00 0.000000000000000e+00
1.431956239921713e+00 2.832998187255224e+00 0.000000000000000e+00
1.450426991142780e+00 2.824740411669609e+00 0.000000000000000e+00
1.468202281993312e+00 2.816826040615347e+00 0.000000000000000e+00
1.486992882979219e+00 2.809013933266569e+00 0.000000000000000e+00
1.505050284661402e+00 2.801684308419323e+00 0.000000000000000e+00
1.523860456059110e+00 2.794377144695346e+00 0.000000000000000e+00
1.542620184299962e+00 2.787710945103621e+00 0.000000000000000e+00
1.560155052913103e+00 2.779129616713931e+00 0.000000000000000e+00
1.579320485616523e+00 2.772562389309187e+00 0.000000000000000e+00
1.597747997911413e+00 2.765220378854631e+00 0.000000000000000e+00
1.615962504819867e+00 2.757798650705884e+00 0.000000000000000e+00
1.635178293578046e+00 2.751260821278882e+00 0.000000000000000e+00
1.653682232204054e+00 2.744349283167793e+00 0.000000000000000e+00
1.670956101354023e+00 2.734703349600442e+00 0.000000000000000e+00
1.690684132401749e+00 2.730872004441838e+00 0.000000000000000e+00
1.707867100671565e+00 2.720987503514391e+00 0.000000000000000e+00
1.725941315229095e+00 2.712899822819200e+00 0.000000000000000e+00
1.745129021152737e+00 2.706406652767291e+00 0.000000000000000e+00
1.763093086963959e+00 2.698418665281911e+00 0.000000000000000e+00
1.782046531701143e+00 2.691377093663088e+00 0.000000000000000e+00
1.801007475051133e+00 2.686002670229299e+00 0.000000000000000e+00
1.820680526411824e+00 2.681541626414287e+00 0.000000000000000e+00
1.840557683951322e+00 2.680151578911885e+00 0.000000000000000e+00
1.859832110007973e+00 2.674359713887282e+00 0.000000000000000e+00
1.879946555943536e+00 2.675624940168026e+00 0.000000000000000e+00
1.899723247711032e+00 2.675454309923779e+00 0.000000000000000e+00
1.919941120064519e+00 2.676232265131785e+00 0.000000000000000e+00
1.940047084677015e+00 2.675538049482422e+00 0.000000000000000e+00
1.960013859372876e+00 2.677212570570785e+00 0.000000000000000e+00
1.980114106516674e+00 2.676454153068376e+00 0.000000000000000e+00
2.000181747505478e+00 2.674339146498059e+00 0.000000000000000e+00
2.019944811371183e+00 2.670288953299631e+00 0.000000000000000e+00
2.039937284239102e+00 2.669270724069651e+00 0.000000000000000e+00
2.059885744175854e+00 2.665883359047072e+00 0.000000000000000e+00
2.079159078534952e+00 2.659316838105360e+00 0.000000000000000e+00
2.099163717073838e+00 2.656349344686256e+00 0.000000000000000e+00
2.118850744513765e+00 2.653611611788349e+00 0.000000000000000e+00
2.138955350303308e+00 2.649284050273826e+00 0.000000000000000e+00
2.158319102016273e+00 2.644324996075878e+00 0.000000000000000e+00
2.178648056567645e+00 2.641026088343273e+00 0.000000000000000e+00
2.198497584207494e+00 2.640115625326395e+00 0.000000000000000e+00
2.218302068573746e+00 2.635868171180039e+00 0.000000000000000e+00
2.238041211911677e+00 2.631274485240037e+00 0.000000000000000e+00
2.258249582727851e+00 2.629496747402815e+00 0.000000000000000e+00
2.278046333855413e+00 2.627037197520559e+00 0.000000000000000e+00
2.298044302531622e+00 2.623456409614149e+00 0.000000000000000e+00
2.317721632949552e+00 2.619180561899808e+00 0.000000000000000e+00
2.337888838551227e+00 2.617139804386252e+00 0.000000000000000e+00
2.357731619051616e+00 2.615098945354875e+00 0.000000000000000e+00
2.377560933406023e+00 2.610888914536244e+00 0.000000000000000e+00
2.397535773840949e+00 2.606639538614218e+00 0.000000000000000e+00
2.417046922020079e+00 2.603422405609287e+00 0.000000000000000e+00
2.437028090772008e+00 2.599876918713822e+00 0.000000000000000e+00
2.456689184498601e+00 2.595007055443570e+00 0.000000000000000e+00
2.476547734653416e+00 2.590340941695451e+00 0.000000000000000e+00
2.496297767720506e+00 2.586144197202922e+00 0.000000000000000e+00
2.515696844063887e+00 2.582099906838459e+00 0.000000000000000e+00
2.535968398663809e+00 2.577578047840527e+00 0.000000000000000e+00
2.555465044856346e+00 2.571901541207052e+00 0.000000000000000e+00
2.575639081603322e+00 2.569521908185984e+00 0.000000000000000e+00
2.595828245897720e+00 2.567871492057093e+00 0.000000000000000e+00
2.615811241168406e+00 2.563749294419693e+00 0.000000000000000e+00
2.636427817548519e+00 2.563207421676969e+00 0.000000000000000e+00
2.656008589553033e+00 2.565227502965888e+00 0.000000000000000e+00
2.676356083704062e+00 2.568065315341585e+00 0.000000000000000e+00
2.696895575860183e+00 2.572460800841163e+00 0.000000000000000e+00
2.715301081434112e+00 2.580177266214275e+00 0.000000000000000e+00
2.735069657539176e+00 2.587193601357220e+00 0.000000000000000e+00
2.754219275152218e+00 2.594232257482216e+00 0.000000000000000e+00
2.773015922366533e+00 2.601331876045803e+00 0.000000000000000e+00
2.792045890175285e+00 2.608896144515374e+00 0.000000000000000e+00
2.811086588823211e+00 2.616739301048149e+00 0.000000000000000e+00
2.830706641530670e+00 2.621198375524263e+00 0.000000000000000e+00
2.850750006475755e+00 2.624654624502134e+00 0.000000000000000e+00
2.870117157784905e+00 2.631209805004955e+00 0.000000000000000e+00
2.889786478406274e+00 2.638474091312167e+00 0.000000000000000e+00
2.908738347025622e+00 2.645407939284777e+00 0.000000000000000e+00
2.928349219212348e+00 2.650321293075657e+00 0.000000000000000e+00
2.948173616461666e+00 2.655945428581670e+00 0.000000000000000e+00
2.966931027354125e+00 2.664934138121669e+00 0.000000000000000e+00
2.985296564138523e+00 2.673752066887151e+00 0.000000000000000e+00
3.004682951892019e+00 2.682644206571921e+00 0.000000000000000e+00
3.023240405129973e+00 2.690483549457142e+00 0.000000000000000e+00
3.041587268171902e+00 2.700411387251465e+00 0.000000000000000e+00
3.058925790050923e+00 2.712311357774429e+00 0.000000000000000e+00
3.077019223935623e+00 2.721355600300298e+00 0.000000000000000e+00
3.095809478992229e+00 2.730234870919348e+00 0.000000000000000e+00
3.114511259230574e+00 2.740456767157566e+00 0.000000000000000e+00
3.132058850820977e+00 2.749170905076594e+00 0.000000000000000e+00
3.151117133338265e+00 2.759736199943213e+00 0.000000000000000e+00
3.169763205991682e+00 2.767921771739031e+00 0.000000000000000e+00
3.188327276528836e+00 2.776323527811884e+00 0.000000000000000e+00
3.206861366937308e+00 2.786289766891389e+00 0.000000000000000e+00
3.224890019054604e+00 2.795787126839235e+00 0.000000000000000e+00
3.244114079741222e+00 2.805476054125853e+00 0.000000000000000e+00
3.262736850366309e+00 2.813734155222674e+00 0.000000000000000e+00
3.281560704490176e+00 2.823218138021963e+00 0.000000000000000e+00
3.299357113372569e+00 2.833596499676131e+00 0.000000000000000e+00
3.316851567921196e+00 2.844729254856285e+00 0.000000000000000e+00
3.334059501174191e+00 2.856511508280045e+00 0.000000000000000e+00
3.350848306641252e+00 2.869187105447062e+00 0.000000000000000e+00
3.367363369396936e+00 2.881850524966139e+00 0.000000000000000e+00
3.384505989093074e+00 2.894097358018829e+00 0.000000000000000e+00
3.401882089078358e+00 2.904882612158614e+00 0.000000000000000e+00
3.419841251202040e+00 2.916282685688454e+00 0.000000000000000e+00
3.437475990629944e+00 2.927215361976940e+00 0.000000000000000e+00
3.457497402229581e+00 2.934466994610898e+00 0.000000000000000e+00
3.477031315209700e+00 2.941135652745805e+00 0.000000000000000e+00
3.497851154137389e+00 2.946634699449990e+00 0.000000000000000e+00
3.517589466936526e+00 2.951251735322188e+00 0.000000000000000e+00
3.539087087725574e+00 2.954208471674930e+00 0.000000000000000e+00
3.560340792493365e+00 2.955027297674279e+00 0.000000000000000e+00
3.580419382690818e+00 2.958948004521420e+00 0.000000000000000e+00
3.601493205423067e+00 2.960749764878093e+00 0.000000000000000e+00
3.622838931398518e+00 2.961088542605027e+00 0.000000000000000e+00
3.644006814972859e+00 2.962322227545146e+00 0.000000000000000e+00
3.664546111931676e+00 2.963820217523123e+00 0.000000000000000e+00
3.685307816833454e+00 2.965476581219748e+00 0.000000000000000e+00
3.706860238618288e+00 2.966413465708917e+00 0.000000000000000e+00
3.727932698965847e+00 2.968453629119851e+00 0.000000000000000e+00
3.747945906754292e+00 2.970580576631052e+00 0.000000000000000e+00
3.769474429006583e+00 2.971428322588177e+00 0.000000000000000e+00
3.790552651425770e+00 2.973687890636319e+00 0.000000000000000e+00
3.811121607057835e+00 2.977467838358108e+00 0.000000000000000e+00
3.832228503851657e+00 2.978185198649438e+00 0.000000000000000e+00
3.853558084666528e+00 2.979801180567458e+00 0.000000000000000e+00
3.874239213282060e+00 2.983285652940443e+00 0.000000000000000e+00
3.895481140722846e+00 2.986696681593132e+00 0.000000000000000e+00
3.916782942845714e+00 2.988394513729001e+00 0.000000000000000e+00
3.937883092472972e+00 2.990060275615904e+00 0.000000000000000e+00
3.958655263119939e+00 2.996088091574784e+00 0.000000000000000e+00
3.980105163543968e+00 2.996489627206691e+00 0.000000000000000e+00

POINT_DATA   310
SCALARS fMag double
LOOKUP_TABLE default

1.225925e+03 
3.212937e+03 
3.711356e+03 
2.286043e+03 
2.035812e+03 
3.449569e+03 
3.972032e+03 
2.995880e+03 
2.729890e+03 
2.610416e+03 
1.994938e+03 
8.380374e+02 
7.870178e+02 
2.461834e+03 
4.019699e+03 
4.032991e+03 
3.440626e+03 
2.400441e+03 
1.331989e+03 
4.301635e+02 
1.267752e+03 
2.569396e+02 
2.964936e+03 
5.337986e+03 
7.812040e+03 
8.882985e+03 
8.708973e+03 
6.936242e+03 
2.721403e+03 
3.776121e+03 
7.448438e+03 
4.334067e+03 
1.911092e+03 
6.314315e+03 
5.425458e+03 
4.128506e+02 
3.638400e+03 
3.293452e+03 
3.114784e+02 
4.423023e+03 
5.777183e+03 
5.508174e+03 
5.203362e+03 
4.647660e+03 
2.423469e+03 
2.144244e+03 
2.075957e+03 
3.744549e+03 
4.681488e+03 
1.323184e+03 
9.004545e+02 
1.413824e+03 
8.656866e+02 
6.661191e+02 
1.722366e+03 
2.250049e+03 
1.793382e+03 
1.987000e+03 
3.471726e+03 
6.840779e+03 
5.845566e+03 
6.083803e+03 
7.338679e+03 
4.005260e+03 
2.187638e+02 
1.166470e+03 
3.464943e+03 
3.774311e+03 
1.760842e+03 
1.545829e+03 
3.271656e+03 
3.187546e+03 
1.497489e+03 
6.248175e+03 
5.341786e+03 
8.257488e+02 
1.251127e+03 
2.217285e+03 
3.571911e+03 
9.952025e+03 
4.862385e+03 
1.386779e+03 
8.551570e+02 
1.923206e+03 
3.256887e+03 
9.798320e+03 
8.916549e+03 
4.927626e+03 
1.113712e+04 
1.124336e+04 
5.301217e+03 
3.413732e+03 
3.582939e+03 
1.968528e+02 
4.868277e+03 
2.458963e+03 
1.666963e+03 
5.662282e+03 
8.003049e+03 
8.378604e+02 
3.397396e+03 
3.029071e+03 
3.871902e+03 
9.653132e+03 
1.183122e+04 
7.527121e+03 
2.121962e+03 
8.266281e+03 
6.029804e+03 
5.729884e+03 
1.801079e+04 
2.214450e+04 
1.404356e+04 
2.087547e+02 
6.207298e+03 
6.979612e+03 
1.116292e+04 
1.107389e+04 
6.924731e+03 
4.926706e+03 
1.489789e+03 
1.588399e+03 
2.012812e+03 
2.152567e+03 
2.721030e+03 
6.164763e+03 
7.912831e+03 
5.175333e+03 
6.546260e+03 
6.504554e+03 
8.836974e+03 
1.265289e+04 
1.392998e+04 
5.275979e+03 
7.780751e+03 
6.811774e+03 
2.132917e+03 
1.420001e+03 
5.969910e+03 
2.471357e+03 
7.613244e+03 
3.700329e+03 
1.044408e+04 
1.419813e+04 
3.400706e+03 
2.713918e+03 
3.296356e+03 
2.794158e+03 
4.718140e+03 
5.682302e+03 
2.094216e+03 
2.306461e+03 
6.103248e+03 
6.095803e+03 
3.158951e+03 
1.225925e+03 
3.212937e+03 
3.711356e+03 
2.286043e+03 
2.035812e+03 
3.449569e+03 
3.972032e+03 
2.995880e+03 
2.729890e+03 
2.610416e+03 
1.994938e+03 
8.380374e+02 
7.870178e+02 
2.461834e+03 
4.019699e+03 
4.032991e+03 
3.440626e+03 
2.400441e+03 
1.331989e+03 
4.301635e+02 
1.267752e+03 
2.569396e+02 
2.964936e+03 
5.337986e+03 
7.812040e+03 
8.882985e+03 
8.708973e+03 
6.936242e+03 
2.721403e+03 
3.776121e+03 
7.448438e+03 
4.334067e+03 
1.911092e+03 
6.314315e+03 
5.425458e+03 
4.128506e+02 
3.638400e+03 
3.293452e+03 
3.114784e+02 
4.423023e+03 
5.777183e+03 
5.508174e+03 
5.203362e+03 
4.647660e+03 
2.423469e+03 
2.144244e+03 
2.075957e+03 
3.744549e+03 
4.681488e+03 
1.323184e+03 
9.004545e+02 
1.413824e+03 
8.656866e+02 
6.661191e+02 
1.722366e+03 
2.250049e+03 
1.793382e+03 
1.987000e+03 
3.471726e+03 
6.840779e+03 
5.845566e+03 
6.083803e+03 
7.338679e+03 
4.005260e+03 
2.187638e+02 
1.166470e+03 
3.464943e+03 
3.774311e+03 
1.760842e+03 
1.545829e+03 
3.271656e+03 
3.187546e+03 
1.497489e+03 
6.248175e+03 
5.341786e+03 
8.257488e+02 
1.251127e+03 
2.217285e+03 
3.571911e+03 
9.952025e+03 
4.862385e+03 
1.386779e+03 
8.551570e+02 
1.923206e+03 
3.256887e+03 
9.798320e+03 
8.916549e+03 
4.927626e+03 
1.113712e+04 
1.124336e+04 
5.301217e+03 
3.413732e+03 
3.582939e+03 
1.968528e+02 
4.868277e+03 
2.458963e+03 
1.666963e+03 
5.662282e+03 
8.003049e+03 
8.378604e+02 
3.397396e+03 
3.029071e+03 
3.871902e+03 
9.653132e+03 
1.183122e+04 
7.527121e+03 
2.121962e+03 
8.266281e+03 
6.029804e+03 
5.729884e+03 
1.801079e+04 
2.214450e+04 
1.404356e+04 
2.087547e+02 
6.207298e+03 
6.979612e+03 
1.116292e+04 
1.107389e+04 
6.924731e+03 
4.926706e+03 
1.489789e+03 
1.588399e+03 
2.012812e+03 
2.152567e+03 
2.721030e+03 
6.164763e+03 
7.912831e+03 
5.175333e+03 
6.546260e+03 
6.504554e+03 
8.836974e+03 
1.265289e+04 
1.392998e+04 
5.275979e+03 
7.780751e+03 
6.811774e+03 
2.132917e+03 
1.420001e+03 
5.969910e+03 
2.471357e+03 
7.613244e+03 
3.700329e+03 
1.044408e+04 
1.419813e+04 
3.400706e+03 
2.713918e+03 
3.296356e+03 
2.794158e+03 
4.718140e+03 
5.682302e+03 
2.094216e+03 
2.306461e+03 
6.103248e+03 
6.095803e+03 
3.158951e+03 
