# vtk DataFile Version 2.0
fMag
ASCII
DATASET UNSTRUCTURED_GRID

FIELD FieldData 1
TIME 1 1 double
0.12000000
POINTS 310 float
1.013104073701475e+00 2.000900628140526e+00 0.000000000000000e+00
1.033548680791056e+00 2.004052013441407e+00 0.000000000000000e+00
1.053525142917851e+00 2.009681594492285e+00 0.000000000000000e+00
1.074098561786080e+00 2.013458164523545e+00 0.000000000000000e+00
1.094092503428509e+00 2.018618027831035e+00 0.000000000000000e+00
1.114084610939277e+00 2.024662183302969e+00 0.000000000000000e+00
1.133537045979367e+00 2.030953777971987e+00 0.000000000000000e+00
1.152936597927298e+00 2.038607865457424e+00 0.000000000000000e+00
1.172350226632464e+00 2.045564889005275e+00 0.000000000000000e+00
1.190697944387730e+00 2.055231795198635e+00 0.000000000000000e+00
1.209135929128679e+00 2.064233569136086e+00 0.000000000000000e+00
1.226844673754451e+00 2.075701157314055e+00 0.000000000000000e+00
1.244629617403048e+00 2.086244376224067e+00 0.000000000000000e+00
1.260724222387667e+00 2.098883964935294e+00 0.000000000000000e+00
1.278422165262473e+00 2.110690938359328e+00 0.000000000000000e+00
1.295000560759733e+00 2.122489559733682e+00 0.000000000000000e+00
1.312936016448988e+00 2.133648612277578e+00 0.000000000000000e+00
1.330628737901989e+00 2.144279413437105e+00 0.000000000000000e+00
1.348687666528709e+00 2.154826611250631e+00 0.000000000000000e+00
1.367643680715106e+00 2.163237658489196e+00 0.000000000000000e+00
1.387234012972582e+00 2.170243543891771e+00 0.000000000000000e+00
1.407207728370915e+00 2.176273307048081e+00 0.000000000000000e+00
1.427383710116205e+00 2.181807436892049e+00 0.000000000000000e+00
1.447170886982845e+00 2.185354300002724e+00 0.000000000000000e+00
1.468418700651049e+00 2.188697232900643e+00 0.000000000000000e+00
1.488461739762912e+00 2.192465362982744e+00 0.000000000000000e+00
1.509500144783894e+00 2.196641700725853e+00 0.000000000000000e+00
1.528993985282548e+00 2.198653304828415e+00 0.000000000000000e+00
1.550458517483005e+00 2.201409229964713e+00 0.000000000000000e+00
1.570708784210303e+00 2.205753567491009e+00 0.000000000000000e+00
1.589839945414569e+00 2.212424503999669e+00 0.000000000000000e+00
1.610491635826824e+00 2.215557621766991e+00 0.000000000000000e+00
1.630710436998249e+00 2.221362799600116e+00 0.000000000000000e+00
1.650347596182630e+00 2.227039724405037e+00 0.000000000000000e+00
1.671685532087328e+00 2.229509065172615e+00 0.000000000000000e+00
1.691959766045601e+00 2.233042230028188e+00 0.000000000000000e+00
1.711154043097127e+00 2.240471214949167e+00 0.000000000000000e+00
1.732211441881838e+00 2.238597534078763e+00 0.000000000000000e+00
1.752480043599483e+00 2.243662733415967e+00 0.000000000000000e+00
1.773009814710879e+00 2.245188345229995e+00 0.000000000000000e+00
1.794202548403411e+00 2.242806352615119e+00 0.000000000000000e+00
1.814601525440020e+00 2.244162237324039e+00 0.000000000000000e+00
1.835616193148313e+00 2.247544452691705e+00 0.000000000000000e+00
1.856148676091167e+00 2.249920063838492e+00 0.000000000000000e+00
1.877065918630965e+00 2.249817993315660e+00 0.000000000000000e+00
1.898351639183763e+00 2.248734365310323e+00 0.000000000000000e+00
1.918278499417547e+00 2.253974520970437e+00 0.000000000000000e+00
1.939759243443739e+00 2.250292044510775e+00 0.000000000000000e+00
1.960676551772154e+00 2.249702338606066e+00 0.000000000000000e+00
1.981266186731143e+00 2.252388071629531e+00 0.000000000000000e+00
2.001278262011164e+00 2.258712112415091e+00 0.000000000000000e+00
2.022462928967090e+00 2.260059376448810e+00 0.000000000000000e+00
2.043883622976079e+00 2.260047567293030e+00 0.000000000000000e+00
2.064509161209490e+00 2.259441035024263e+00 0.000000000000000e+00
2.085345104610427e+00 2.257960682369878e+00 0.000000000000000e+00
2.105841048298318e+00 2.250706638080013e+00 0.000000000000000e+00
2.126180342198182e+00 2.243898604585198e+00 0.000000000000000e+00
2.146696075546827e+00 2.238542927073556e+00 0.000000000000000e+00
2.165711439976313e+00 2.228735823528410e+00 0.000000000000000e+00
2.184925705080136e+00 2.218318063543061e+00 0.000000000000000e+00
2.204620535841372e+00 2.208984789729386e+00 0.000000000000000e+00
2.224419347600718e+00 2.201203102669499e+00 0.000000000000000e+00
2.245299067612889e+00 2.193494477301852e+00 0.000000000000000e+00
2.265117631811515e+00 2.184956819589654e+00 0.000000000000000e+00
2.286779353108480e+00 2.180067636281430e+00 0.000000000000000e+00
2.308085552781998e+00 2.176672607112129e+00 0.000000000000000e+00
2.329424760813750e+00 2.171075864033037e+00 0.000000000000000e+00
2.350697086130353e+00 2.167585472876789e+00 0.000000000000000e+00
2.373030816030617e+00 2.165684368654973e+00 0.000000000000000e+00
2.394995982974781e+00 2.164727243983804e+00 0.000000000000000e+00
2.417018797011044e+00 2.163410424368884e+00 0.000000000000000e+00
2.439034241460595e+00 2.163632502147730e+00 0.000000000000000e+00
2.461090223235181e+00 2.166424250340982e+00 0.000000000000000e+00
2.482838634705790e+00 2.169293597776748e+00 0.000000000000000e+00
2.504610574216874e+00 2.172442176174084e+00 0.000000000000000e+00
2.526263022894288e+00 2.177443582757632e+00 0.000000000000000e+00
2.547543549203998e+00 2.183948954034464e+00 0.000000000000000e+00
2.568942532627342e+00 2.190234195473526e+00 0.000000000000000e+00
2.590094357739037e+00 2.197095598630655e+00 0.000000000000000e+00
2.610295161249385e+00 2.204952000454349e+00 0.000000000000000e+00
2.631306488939841e+00 2.213354050654187e+00 0.000000000000000e+00
2.651810385782342e+00 2.222779970306513e+00 0.000000000000000e+00
2.672468283375644e+00 2.230635348602073e+00 0.000000000000000e+00
2.693046555610215e+00 2.239125661748104e+00 0.000000000000000e+00
2.712900041898280e+00 2.248811372629847e+00 0.000000000000000e+00
2.734253822174002e+00 2.257586096558125e+00 0.000000000000000e+00
2.754197311966486e+00 2.265509248132435e+00 0.000000000000000e+00
2.776052345096588e+00 2.274336443785451e+00 0.000000000000000e+00
2.795547429146128e+00 2.282667861018342e+00 0.000000000000000e+00
2.817936041828912e+00 2.290464396254464e+00 0.000000000000000e+00
2.838325049461024e+00 2.297200423279020e+00 0.000000000000000e+00
2.860358965646860e+00 2.303113885050414e+00 0.000000000000000e+00
2.882566127145058e+00 2.309253366470812e+00 0.000000000000000e+00
2.903852976502168e+00 2.314549085901440e+00 0.000000000000000e+00
2.927181787530970e+00 2.318781595966067e+00 0.000000000000000e+00
2.948609326399341e+00 2.323054909959680e+00 0.000000000000000e+00
2.971210363091391e+00 2.326951208909691e+00 0.000000000000000e+00
2.993898079351325e+00 2.329484058332071e+00 0.000000000000000e+00
3.016137640400669e+00 2.332557155454844e+00 0.000000000000000e+00
3.039145784850308e+00 2.335265762630929e+00 0.000000000000000e+00
3.061620808947849e+00 2.337598827016681e+00 0.000000000000000e+00
3.084026985908963e+00 2.340716636842946e+00 0.000000000000000e+00
3.107028460035015e+00 2.343088658117639e+00 0.000000000000000e+00
3.129042096274857e+00 2.345112298611902e+00 0.000000000000000e+00
3.152353034828354e+00 2.347303544793879e+00 0.000000000000000e+00
3.174499074717798e+00 2.349580207423295e+00 0.000000000000000e+00
3.197497521210093e+00 2.351547384781203e+00 0.000000000000000e+00
3.220159445641366e+00 2.352768445826764e+00 0.000000000000000e+00
3.242470453635375e+00 2.354803995546649e+00 0.000000000000000e+00
3.265579124394876e+00 2.355872346935588e+00 0.000000000000000e+00
3.288331752498223e+00 2.357066373235266e+00 0.000000000000000e+00
3.310687649773361e+00 2.358256996610585e+00 0.000000000000000e+00
3.334027573293195e+00 2.358545038793343e+00 0.000000000000000e+00
3.355942640721456e+00 2.359638563068941e+00 0.000000000000000e+00
3.379168851088105e+00 2.360257264150130e+00 0.000000000000000e+00
3.402052602164708e+00 2.360122809631571e+00 0.000000000000000e+00
3.424651897012120e+00 2.360641103907198e+00 0.000000000000000e+00
3.447774086504013e+00 2.361177529553995e+00 0.000000000000000e+00
3.470076907178583e+00 2.361307456568539e+00 0.000000000000000e+00
3.493706890533582e+00 2.361318184046169e+00 0.000000000000000e+00
3.516015279492097e+00 2.361796440105345e+00 0.000000000000000e+00
3.539144945513732e+00 2.362622523926990e+00 0.000000000000000e+00
3.561792854502088e+00 2.363385178667817e+00 0.000000000000000e+00
3.584748653849303e+00 2.364540594052739e+00 0.000000000000000e+00
3.607436166466462e+00 2.366105599793753e+00 0.000000000000000e+00
3.630260892994083e+00 2.367344560966739e+00 0.000000000000000e+00
3.652719258037543e+00 2.368973287320930e+00 0.000000000000000e+00
3.676025646625354e+00 2.370389023137165e+00 0.000000000000000e+00
3.697734418408595e+00 2.370936649256269e+00 0.000000000000000e+00
3.720936599196009e+00 2.372218556097784e+00 0.000000000000000e+00
3.743203146156729e+00 2.372353694203662e+00 0.000000000000000e+00
3.765787128745576e+00 2.372050514986765e+00 0.000000000000000e+00
3.787597839824083e+00 2.371005929230257e+00 0.000000000000000e+00
3.809458936707039e+00 2.369014625975975e+00 0.000000000000000e+00
3.832333506045366e+00 2.365857509293798e+00 0.000000000000000e+00
3.853181176145345e+00 2.360658525648259e+00 0.000000000000000e+00
3.874277839802135e+00 2.353916700995742e+00 0.000000000000000e+00
3.894247046766575e+00 2.345148229251500e+00 0.000000000000000e+00
3.913436101465427e+00 2.333700606178794e+00 0.000000000000000e+00
3.930307807811278e+00 2.321216881722723e+00 0.000000000000000e+00
3.946394355101329e+00 2.306085353757995e+00 0.000000000000000e+00
3.960588688878592e+00 2.289210616359715e+00 0.000000000000000e+00
3.972868025800804e+00 2.272038165058741e+00 0.000000000000000e+00
3.985562854652692e+00 2.253369742074671e+00 0.000000000000000e+00
3.995086430688081e+00 2.234099055979964e+00 0.000000000000000e+00
4.002013539717944e+00 2.214407270861329e+00 0.000000000000000e+00
4.009049927983018e+00 2.192836734352245e+00 0.000000000000000e+00
4.014367128927782e+00 2.171945222276358e+00 0.000000000000000e+00
4.015736808073830e+00 2.150861784631317e+00 0.000000000000000e+00
4.016005606600326e+00 2.128775616543691e+00 0.000000000000000e+00
4.017482941263704e+00 2.106408946197738e+00 0.000000000000000e+00
4.017465495898698e+00 2.085533667274898e+00 0.000000000000000e+00
4.013453107897077e+00 2.064276873564679e+00 0.000000000000000e+00
4.009698250457964e+00 2.041442508143088e+00 0.000000000000000e+00
4.008423181707352e+00 2.020007338537028e+00 0.000000000000000e+00
1.013104073701476e+00 2.999099371859476e+00 0.000000000000000e+00
1.033548680791055e+00 2.995947986558595e+00 0.000000000000000e+00
1.053525142917852e+00 2.990318405507717e+00 0.000000000000000e+00
1.074098561786082e+00 2.986541835476454e+00 0.000000000000000e+00
1.094092503428510e+00 2.981381972168967e+00 0.000000000000000e+00
1.114084610939285e+00 2.975337816697038e+00 0.000000000000000e+00
1.133537045979372e+00 2.969046222028024e+00 0.000000000000000e+00
1.152936597927309e+00 2.961392134542590e+00 0.000000000000000e+00
1.172350226632473e+00 2.954435110994737e+00 0.000000000000000e+00
1.190697944387741e+00 2.944768204801380e+00 0.000000000000000e+00
1.209135929128689e+00 2.935766430863925e+00 0.000000000000000e+00
1.226844673754457e+00 2.924298842685952e+00 0.000000000000000e+00
1.244629617403052e+00 2.913755623775933e+00 0.000000000000000e+00
1.260724222387668e+00 2.901116035064705e+00 0.000000000000000e+00
1.278422165262470e+00 2.889309061640665e+00 0.000000000000000e+00
1.295000560759732e+00 2.877510440266314e+00 0.000000000000000e+00
1.312936016448989e+00 2.866351387722421e+00 0.000000000000000e+00
1.330628737901989e+00 2.855720586562895e+00 0.000000000000000e+00
1.348687666528714e+00 2.845173388749374e+00 0.000000000000000e+00
1.367643680715111e+00 2.836762341510817e+00 0.000000000000000e+00
1.387234012972590e+00 2.829756456108243e+00 0.000000000000000e+00
1.407207728370919e+00 2.823726692951926e+00 0.000000000000000e+00
1.427383710116212e+00 2.818192563107961e+00 0.000000000000000e+00
1.447170886982845e+00 2.814645699997277e+00 0.000000000000000e+00
1.468418700651051e+00 2.811302767099355e+00 0.000000000000000e+00
1.488461739762916e+00 2.807534637017263e+00 0.000000000000000e+00
1.509500144783897e+00 2.803358299274157e+00 0.000000000000000e+00
1.528993985282552e+00 2.801346695171597e+00 0.000000000000000e+00
1.550458517483011e+00 2.798590770035306e+00 0.000000000000000e+00
1.570708784210311e+00 2.794246432509012e+00 0.000000000000000e+00
1.589839945414576e+00 2.787575496000358e+00 0.000000000000000e+00
1.610491635826831e+00 2.784442378233026e+00 0.000000000000000e+00
1.630710436998261e+00 2.778637200399902e+00 0.000000000000000e+00
1.650347596182638e+00 2.772960275594986e+00 0.000000000000000e+00
1.671685532087338e+00 2.770490934827409e+00 0.000000000000000e+00
1.691959766045611e+00 2.766957769971844e+00 0.000000000000000e+00
1.711154043097143e+00 2.759528785050872e+00 0.000000000000000e+00
1.732211441881849e+00 2.761402465921295e+00 0.000000000000000e+00
1.752480043599493e+00 2.756337266584086e+00 0.000000000000000e+00
1.773009814710891e+00 2.754811654770051e+00 0.000000000000000e+00
1.794202548403421e+00 2.757193647384931e+00 0.000000000000000e+00
1.814601525440030e+00 2.755837762676006e+00 0.000000000000000e+00
1.835616193148326e+00 2.752455547308338e+00 0.000000000000000e+00
1.856148676091176e+00 2.750079936161548e+00 0.000000000000000e+00
1.877065918630975e+00 2.750182006684378e+00 0.000000000000000e+00
1.898351639183772e+00 2.751265634689714e+00 0.000000000000000e+00
1.918278499417557e+00 2.746025479029599e+00 0.000000000000000e+00
1.939759243443751e+00 2.749707955489253e+00 0.000000000000000e+00
1.960676551772162e+00 2.750297661393961e+00 0.000000000000000e+00
1.981266186731152e+00 2.747611928370493e+00 0.000000000000000e+00
2.001278262011170e+00 2.741287887584929e+00 0.000000000000000e+00
2.022462928967097e+00 2.739940623551212e+00 0.000000000000000e+00
2.043883622976085e+00 2.739952432706996e+00 0.000000000000000e+00
2.064509161209496e+00 2.740558964975760e+00 0.000000000000000e+00
2.085345104610433e+00 2.742039317630157e+00 0.000000000000000e+00
2.105841048298319e+00 2.749293361920028e+00 0.000000000000000e+00
2.126180342198184e+00 2.756101395414852e+00 0.000000000000000e+00
2.146696075546830e+00 2.761457072926495e+00 0.000000000000000e+00
2.165711439976314e+00 2.771264176471647e+00 0.000000000000000e+00
2.184925705080131e+00 2.781681936457011e+00 0.000000000000000e+00
2.204620535841370e+00 2.791015210270683e+00 0.000000000000000e+00
2.224419347600713e+00 2.798796897330572e+00 0.000000000000000e+00
2.245299067612884e+00 2.806505522698225e+00 0.000000000000000e+00
2.265117631811510e+00 2.815043180410427e+00 0.000000000000000e+00
2.286779353108476e+00 2.819932363718650e+00 0.000000000000000e+00
2.308085552781994e+00 2.823327392887947e+00 0.000000000000000e+00
2.329424760813747e+00 2.828924135967045e+00 0.000000000000000e+00
2.350697086130351e+00 2.832414527123285e+00 0.000000000000000e+00
2.373030816030617e+00 2.834315631345096e+00 0.000000000000000e+00
2.394995982974781e+00 2.835272756016265e+00 0.000000000000000e+00
2.417018797011044e+00 2.836589575631188e+00 0.000000000000000e+00
2.439034241460593e+00 2.836367497852341e+00 0.000000000000000e+00
2.461090223235182e+00 2.833575749659087e+00 0.000000000000000e+00
2.482838634705787e+00 2.830706402223324e+00 0.000000000000000e+00
2.504610574216874e+00 2.827557823825979e+00 0.000000000000000e+00
2.526263022894286e+00 2.822556417242427e+00 0.000000000000000e+00
2.547543549203996e+00 2.816051045965595e+00 0.000000000000000e+00
2.568942532627339e+00 2.809765804526534e+00 0.000000000000000e+00
2.590094357739032e+00 2.802904401369395e+00 0.000000000000000e+00
2.610295161249379e+00 2.795047999545698e+00 0.000000000000000e+00
2.631306488939835e+00 2.786645949345853e+00 0.000000000000000e+00
2.651810385782332e+00 2.777220029693527e+00 0.000000000000000e+00
2.672468283375636e+00 2.769364651397965e+00 0.000000000000000e+00
2.693046555610206e+00 2.760874338251932e+00 0.000000000000000e+00
2.712900041898270e+00 2.751188627370188e+00 0.000000000000000e+00
2.734253822173995e+00 2.742413903441914e+00 0.000000000000000e+00
2.754197311966477e+00 2.734490751867606e+00 0.000000000000000e+00
2.776052345096579e+00 2.725663556214591e+00 0.000000000000000e+00
2.795547429146120e+00 2.717332138981700e+00 0.000000000000000e+00
2.817936041828904e+00 2.709535603745580e+00 0.000000000000000e+00
2.838325049461015e+00 2.702799576721027e+00 0.000000000000000e+00
2.860358965646852e+00 2.696886114949633e+00 0.000000000000000e+00
2.882566127145050e+00 2.690746633529236e+00 0.000000000000000e+00
2.903852976502160e+00 2.685450914098608e+00 0.000000000000000e+00
2.927181787530963e+00 2.681218404033985e+00 0.000000000000000e+00
2.948609326399330e+00 2.676945090040372e+00 0.000000000000000e+00
2.971210363091383e+00 2.673048791090356e+00 0.000000000000000e+00
2.993898079351311e+00 2.670515941667978e+00 0.000000000000000e+00
3.016137640400660e+00 2.667442844545205e+00 0.000000000000000e+00
3.039145784850292e+00 2.664734237369116e+00 0.000000000000000e+00
3.061620808947835e+00 2.662401172983362e+00 0.000000000000000e+00
3.084026985908947e+00 2.659283363157095e+00 0.000000000000000e+00
3.107028460034999e+00 2.656911341882401e+00 0.000000000000000e+00
3.129042096274845e+00 2.654887701388134e+00 0.000000000000000e+00
3.152353034828337e+00 2.652696455206156e+00 0.000000000000000e+00
3.174499074717791e+00 2.650419792576740e+00 0.000000000000000e+00
3.197497521210072e+00 2.648452615218833e+00 0.000000000000000e+00
3.220159445641357e+00 2.647231554173268e+00 0.000000000000000e+00
3.242470453635357e+00 2.645196004453379e+00 0.000000000000000e+00
3.265579124394863e+00 2.644127653064438e+00 0.000000000000000e+00
3.288331752498210e+00 2.642933626764759e+00 0.000000000000000e+00
3.310687649773348e+00 2.641743003389436e+00 0.000000000000000e+00
3.334027573293179e+00 2.641454961206676e+00 0.000000000000000e+00
3.355942640721445e+00 2.640361436931082e+00 0.000000000000000e+00
3.379168851088091e+00 2.639742735849886e+00 0.000000000000000e+00
3.402052602164696e+00 2.639877190368449e+00 0.000000000000000e+00
3.424651897012106e+00 2.639358896092818e+00 0.000000000000000e+00
3.447774086503999e+00 2.638822470446027e+00 0.000000000000000e+00
3.470076907178576e+00 2.638692543431482e+00 0.000000000000000e+00
3.493706890533571e+00 2.638681815953857e+00 0.000000000000000e+00
3.516015279492088e+00 2.638203559894677e+00 0.000000000000000e+00
3.539144945513720e+00 2.637377476073035e+00 0.000000000000000e+00
3.561792854502078e+00 2.636614821332211e+00 0.000000000000000e+00
3.584748653849294e+00 2.635459405947290e+00 0.000000000000000e+00
3.607436166466450e+00 2.633894400206281e+00 0.000000000000000e+00
3.630260892994080e+00 2.632655439033291e+00 0.000000000000000e+00
3.652719258037535e+00 2.631026712679100e+00 0.000000000000000e+00
3.676025646625353e+00 2.629610976862866e+00 0.000000000000000e+00
3.697734418408588e+00 2.629063350743762e+00 0.000000000000000e+00
3.720936599196011e+00 2.627781443902244e+00 0.000000000000000e+00
3.743203146156722e+00 2.627646305796366e+00 0.000000000000000e+00
3.765787128745576e+00 2.627949485013263e+00 0.000000000000000e+00
3.787597839824083e+00 2.628994070769765e+00 0.000000000000000e+00
3.809458936707039e+00 2.630985374024045e+00 0.000000000000000e+00
3.832333506045370e+00 2.634142490706218e+00 0.000000000000000e+00
3.853181176145347e+00 2.639341474351750e+00 0.000000000000000e+00
3.874277839802150e+00 2.646083299004266e+00 0.000000000000000e+00
3.894247046766581e+00 2.654851770748502e+00 0.000000000000000e+00
3.913436101465444e+00 2.666299393821203e+00 0.000000000000000e+00
3.930307807811295e+00 2.678783118277265e+00 0.000000000000000e+00
3.946394355101347e+00 2.693914646241979e+00 0.000000000000000e+00
3.960588688878626e+00 2.710789383640258e+00 0.000000000000000e+00
3.972868025800823e+00 2.727961834941223e+00 0.000000000000000e+00
3.985562854652716e+00 2.746630257925312e+00 0.000000000000000e+00
3.995086430688091e+00 2.765900944020010e+00 0.000000000000000e+00
4.002013539717971e+00 2.785592729138661e+00 0.000000000000000e+00
4.009049927983035e+00 2.807163265647730e+00 0.000000000000000e+00
4.014367128927806e+00 2.828054777723635e+00 0.000000000000000e+00
4.015736808073840e+00 2.849138215368669e+00 0.000000000000000e+00
4.016005606600335e+00 2.871224383456299e+00 0.000000000000000e+00
4.017482941263708e+00 2.893591053802254e+00 0.000000000000000e+00
4.017465495898702e+00 2.914466332725095e+00 0.000000000000000e+00
4.013453107897083e+00 2.935723126435311e+00 0.000000000000000e+00
4.009698250457973e+00 2.958557491856902e+00 0.000000000000000e+00
4.008423181707348e+00 2.979992661462965e+00 0.000000000000000e+00

POINT_DATA   310
SCALARS fMag double
LOOKUP_TABLE default

2.641930e+03 
1.805514e+03 
1.881869e+03 
2.590413e+03 
2.351288e+03 
4.826937e+03 
3.919832e+03 
2.306422e+03 
2.112595e+03 
2.142640e+03 
6.067477e+03 
4.438587e+03 
2.580347e+03 
8.338650e+03 
9.416802e+03 
7.768557e+03 
4.539993e+03 
2.674246e+03 
2.176077e+03 
1.251663e+03 
8.947275e+02 
7.448015e+02 
7.880503e+03 
1.400199e+04 
1.124066e+04 
1.048827e+04 
1.865710e+04 
2.044331e+04 
9.595185e+03 
4.886778e+03 
6.460862e+03 
2.706287e+03 
5.967590e+03 
1.079128e+04 
8.905526e+03 
2.161094e+03 
8.844994e+03 
5.995915e+03 
3.546371e+03 
8.737146e+03 
9.920878e+03 
8.184972e+03 
6.241011e+03 
3.276238e+03 
4.528921e+03 
8.478326e+03 
1.395473e+04 
9.169691e+03 
3.001381e+03 
3.375400e+03 
4.623334e+03 
2.398942e+03 
8.635102e+03 
3.475556e+03 
8.803535e+03 
3.844698e+03 
4.213642e+03 
3.002445e+03 
4.038823e+03 
1.983632e+03 
5.171393e+03 
9.956571e+03 
6.390510e+03 
8.031313e+03 
6.846691e+03 
5.018987e+03 
5.809030e+03 
8.470874e+03 
4.567173e+03 
1.465433e+03 
2.168473e+03 
3.735367e+03 
3.137229e+03 
4.943776e+02 
3.189191e+03 
2.039719e+03 
6.425818e+02 
1.198002e+03 
6.164443e+03 
9.719172e+03 
1.752989e+03 
4.489927e+03 
1.787729e+03 
2.555148e+03 
1.065146e+04 
1.635722e+04 
2.123114e+04 
2.356042e+04 
2.555013e+04 
2.286129e+04 
1.321418e+04 
2.322754e+03 
1.088592e+04 
1.809799e+04 
1.846994e+04 
1.086326e+04 
2.529635e+03 
4.294777e+03 
7.274523e+03 
5.473533e+03 
1.237048e+03 
5.310476e+03 
9.926550e+03 
1.297542e+04 
1.185805e+04 
8.124772e+03 
3.957510e+03 
3.199165e+03 
7.544333e+03 
3.470596e+03 
3.884100e+03 
9.639938e+03 
1.439361e+04 
1.295289e+04 
3.179709e+03 
2.866998e+03 
4.974827e+03 
8.590826e+03 
1.313868e+04 
1.283365e+04 
8.359974e+03 
5.033611e+03 
3.397523e+03 
2.446049e+03 
1.086631e+03 
3.387541e+03 
9.028830e+03 
1.546176e+04 
1.516303e+04 
1.132116e+04 
1.754194e+03 
6.746781e+03 
2.348272e+03 
1.231221e+04 
1.648842e+04 
5.671871e+03 
4.648245e+03 
5.494747e+03 
1.339933e+04 
1.224057e+04 
3.263066e+03 
9.190859e+03 
1.466628e+04 
1.132310e+04 
7.143787e+03 
1.807464e+04 
1.153018e+04 
5.581017e+03 
9.738311e+03 
3.741717e+03 
1.537045e+04 
7.306176e+03 
1.567915e+04 
1.633533e+04 
7.355204e+03 
2.641930e+03 
1.805514e+03 
1.881869e+03 
2.590413e+03 
2.351288e+03 
4.826937e+03 
3.919832e+03 
2.306422e+03 
2.112595e+03 
2.142640e+03 
6.067477e+03 
4.438587e+03 
2.580347e+03 
8.338650e+03 
9.416802e+03 
7.768557e+03 
4.539993e+03 
2.674246e+03 
2.176077e+03 
1.251663e+03 
8.947275e+02 
7.448015e+02 
7.880503e+03 
1.400199e+04 
1.124066e+04 
1.048827e+04 
1.865710e+04 
2.044331e+04 
9.595185e+03 
4.886778e+03 
6.460862e+03 
2.706287e+03 
5.967590e+03 
1.079128e+04 
8.905526e+03 
2.161094e+03 
8.844994e+03 
5.995915e+03 
3.546371e+03 
8.737146e+03 
9.920878e+03 
8.184972e+03 
6.241011e+03 
3.276238e+03 
4.528921e+03 
8.478326e+03 
1.395473e+04 
9.169691e+03 
3.001381e+03 
3.375400e+03 
4.623334e+03 
2.398942e+03 
8.635102e+03 
3.475556e+03 
8.803535e+03 
3.844698e+03 
4.213642e+03 
3.002445e+03 
4.038823e+03 
1.983632e+03 
5.171393e+03 
9.956571e+03 
6.390510e+03 
8.031313e+03 
6.846691e+03 
5.018987e+03 
5.809030e+03 
8.470874e+03 
4.567173e+03 
1.465433e+03 
2.168473e+03 
3.735367e+03 
3.137229e+03 
4.943776e+02 
3.189191e+03 
2.039719e+03 
6.425818e+02 
1.198002e+03 
6.164443e+03 
9.719172e+03 
1.752989e+03 
4.489927e+03 
1.787729e+03 
2.555148e+03 
1.065146e+04 
1.635722e+04 
2.123114e+04 
2.356042e+04 
2.555013e+04 
2.286129e+04 
1.321418e+04 
2.322754e+03 
1.088592e+04 
1.809799e+04 
1.846994e+04 
1.086326e+04 
2.529635e+03 
4.294777e+03 
7.274523e+03 
5.473533e+03 
1.237048e+03 
5.310476e+03 
9.926550e+03 
1.297542e+04 
1.185805e+04 
8.124772e+03 
3.957510e+03 
3.199165e+03 
7.544333e+03 
3.470596e+03 
3.884100e+03 
9.639938e+03 
1.439361e+04 
1.295289e+04 
3.179709e+03 
2.866998e+03 
4.974827e+03 
8.590826e+03 
1.313868e+04 
1.283365e+04 
8.359974e+03 
5.033611e+03 
3.397523e+03 
2.446049e+03 
1.086631e+03 
3.387541e+03 
9.028830e+03 
1.546176e+04 
1.516303e+04 
1.132116e+04 
1.754194e+03 
6.746781e+03 
2.348272e+03 
1.231221e+04 
1.648842e+04 
5.671871e+03 
4.648245e+03 
5.494747e+03 
1.339933e+04 
1.224057e+04 
3.263066e+03 
9.190859e+03 
1.466628e+04 
1.132310e+04 
7.143787e+03 
1.807464e+04 
1.153018e+04 
5.581017e+03 
9.738311e+03 
3.741717e+03 
1.537045e+04 
7.306176e+03 
1.567915e+04 
1.633533e+04 
7.355204e+03 
