# vtk DataFile Version 2.0
fMag
ASCII
DATASET UNSTRUCTURED_GRID

FIELD FieldData 1
TIME 1 1 double
0.21000000
POINTS 310 float
1.000505432128967e+00 2.000073590974028e+00 0.000000000000000e+00
1.019335915143204e+00 2.005935013952468e+00 0.000000000000000e+00
1.038176736023460e+00 2.011021943807085e+00 0.000000000000000e+00
1.057248476576963e+00 2.016377480928282e+00 0.000000000000000e+00
1.075653163961947e+00 2.023043811222387e+00 0.000000000000000e+00
1.094540826880245e+00 2.029061897461558e+00 0.000000000000000e+00
1.113272907703325e+00 2.034718151322565e+00 0.000000000000000e+00
1.131834297476136e+00 2.041810204613113e+00 0.000000000000000e+00
1.150512726974935e+00 2.047910315323354e+00 0.000000000000000e+00
1.168732341003370e+00 2.055804669412502e+00 0.000000000000000e+00
1.187509733707035e+00 2.061842118837503e+00 0.000000000000000e+00
1.205433385399407e+00 2.070267285113819e+00 0.000000000000000e+00
1.223917075704142e+00 2.077451585802363e+00 0.000000000000000e+00
1.241695204989033e+00 2.086084811340778e+00 0.000000000000000e+00
1.260184658732221e+00 2.093538214348815e+00 0.000000000000000e+00
1.277857861455588e+00 2.102122725166380e+00 0.000000000000000e+00
1.296237554100207e+00 2.110103676526861e+00 0.000000000000000e+00
1.314448383363728e+00 2.117671555359154e+00 0.000000000000000e+00
1.332641799990017e+00 2.125864849384999e+00 0.000000000000000e+00
1.351064255135136e+00 2.133284630989190e+00 0.000000000000000e+00
1.369168322570419e+00 2.141483730681246e+00 0.000000000000000e+00
1.387638574664543e+00 2.149094800709747e+00 0.000000000000000e+00
1.406003163854565e+00 2.156789085787827e+00 0.000000000000000e+00
1.424274538944770e+00 2.164149626323333e+00 0.000000000000000e+00
1.443048005924774e+00 2.171763229630443e+00 0.000000000000000e+00
1.460910264928391e+00 2.179592705741710e+00 0.000000000000000e+00
1.479496987535759e+00 2.187956966385005e+00 0.000000000000000e+00
1.497196992803162e+00 2.196353621813401e+00 0.000000000000000e+00
1.515537596158026e+00 2.204769771427353e+00 0.000000000000000e+00
1.533760955435143e+00 2.212706263934837e+00 0.000000000000000e+00
1.550623849272192e+00 2.222963413637839e+00 0.000000000000000e+00
1.568868262742454e+00 2.231779053596652e+00 0.000000000000000e+00
1.586233342710235e+00 2.241423457562364e+00 0.000000000000000e+00
1.603520299269023e+00 2.251158913690230e+00 0.000000000000000e+00
1.621772768706999e+00 2.259818731889772e+00 0.000000000000000e+00
1.639432006550260e+00 2.268635010611042e+00 0.000000000000000e+00
1.656300523338027e+00 2.279680851955037e+00 0.000000000000000e+00
1.675898894023179e+00 2.284325258633172e+00 0.000000000000000e+00
1.693447572803850e+00 2.294054967265015e+00 0.000000000000000e+00
1.712020006889764e+00 2.301226745672703e+00 0.000000000000000e+00
1.731740284450834e+00 2.306315764441600e+00 0.000000000000000e+00
1.750405526550359e+00 2.312778696538253e+00 0.000000000000000e+00
1.769965331680706e+00 2.318506891122332e+00 0.000000000000000e+00
1.789269575696637e+00 2.323408344208708e+00 0.000000000000000e+00
1.808926204808781e+00 2.328455980055127e+00 0.000000000000000e+00
1.828926640531026e+00 2.331354874287946e+00 0.000000000000000e+00
1.847232808297975e+00 2.339376399926165e+00 0.000000000000000e+00
1.867685197120826e+00 2.341541453350595e+00 0.000000000000000e+00
1.887302327128464e+00 2.345634921710745e+00 0.000000000000000e+00
1.907419662535011e+00 2.348844845923034e+00 0.000000000000000e+00
1.927276835741593e+00 2.352377299433684e+00 0.000000000000000e+00
1.947623426152832e+00 2.351770099331505e+00 0.000000000000000e+00
1.967957177112329e+00 2.351449946170046e+00 0.000000000000000e+00
1.988348611470919e+00 2.350853706281061e+00 0.000000000000000e+00
2.008653077596937e+00 2.350834799244045e+00 0.000000000000000e+00
2.028780321077078e+00 2.347365335470875e+00 0.000000000000000e+00
2.049157270732594e+00 2.345847112083508e+00 0.000000000000000e+00
2.069498349907839e+00 2.347559092651667e+00 0.000000000000000e+00
2.089903415038783e+00 2.346261572378733e+00 0.000000000000000e+00
2.109995870023817e+00 2.345684943505260e+00 0.000000000000000e+00
2.130613631281717e+00 2.347881540441343e+00 0.000000000000000e+00
2.150267423814833e+00 2.351746262519158e+00 0.000000000000000e+00
2.170719073106353e+00 2.354622885668112e+00 0.000000000000000e+00
2.190755604406886e+00 2.355479832344353e+00 0.000000000000000e+00
2.210759521148381e+00 2.360117694422313e+00 0.000000000000000e+00
2.230463523950050e+00 2.365375906479737e+00 0.000000000000000e+00
2.250678641650244e+00 2.368075971081837e+00 0.000000000000000e+00
2.270543413506742e+00 2.371541603741062e+00 0.000000000000000e+00
2.290518433918319e+00 2.376334290500344e+00 0.000000000000000e+00
2.310113551279027e+00 2.382035012987270e+00 0.000000000000000e+00
2.330222278825221e+00 2.385833091909844e+00 0.000000000000000e+00
2.350019407134271e+00 2.389781175312116e+00 0.000000000000000e+00
2.369802806967769e+00 2.395579974405759e+00 0.000000000000000e+00
2.389867351964249e+00 2.400894070613730e+00 0.000000000000000e+00
2.409554033047827e+00 2.404362052500999e+00 0.000000000000000e+00
2.429824267444201e+00 2.407572569961861e+00 0.000000000000000e+00
2.449952877318229e+00 2.411974056104944e+00 0.000000000000000e+00
2.470180782289666e+00 2.415575625822266e+00 0.000000000000000e+00
2.490564130925674e+00 2.416955945113508e+00 0.000000000000000e+00
2.510664308018288e+00 2.416478156858773e+00 0.000000000000000e+00
2.531548505190461e+00 2.415416733917907e+00 0.000000000000000e+00
2.551994833454267e+00 2.414688770124992e+00 0.000000000000000e+00
2.571743477438055e+00 2.410015359900779e+00 0.000000000000000e+00
2.591820923998041e+00 2.404217108643654e+00 0.000000000000000e+00
2.612245812424703e+00 2.401350011566825e+00 0.000000000000000e+00
2.632518552497970e+00 2.396951276815058e+00 0.000000000000000e+00
2.652439656429875e+00 2.393067631636265e+00 0.000000000000000e+00
2.672931729058284e+00 2.391426759513549e+00 0.000000000000000e+00
2.693701271308574e+00 2.389593612056653e+00 0.000000000000000e+00
2.713624150719843e+00 2.385868960495904e+00 0.000000000000000e+00
2.734793235935389e+00 2.384142281054005e+00 0.000000000000000e+00
2.755315048534330e+00 2.382754163535486e+00 0.000000000000000e+00
2.775547739117741e+00 2.380399334875836e+00 0.000000000000000e+00
2.795754213614341e+00 2.375628321200592e+00 0.000000000000000e+00
2.816026092693026e+00 2.368278845038230e+00 0.000000000000000e+00
2.835803460374284e+00 2.363161702389302e+00 0.000000000000000e+00
2.855762675182803e+00 2.359146487868249e+00 0.000000000000000e+00
2.875492192075165e+00 2.351319880620528e+00 0.000000000000000e+00
2.894716974684186e+00 2.342200555124808e+00 0.000000000000000e+00
2.913207228168376e+00 2.333400399023248e+00 0.000000000000000e+00
2.932625124765695e+00 2.326789626302083e+00 0.000000000000000e+00
2.952333006075467e+00 2.319831005979788e+00 0.000000000000000e+00
2.971225841410415e+00 2.309533018439498e+00 0.000000000000000e+00
2.989213916964492e+00 2.299857860105167e+00 0.000000000000000e+00
3.008392518834954e+00 2.290600621362987e+00 0.000000000000000e+00
3.027209860100471e+00 2.283060195620175e+00 0.000000000000000e+00
3.046124572385913e+00 2.273955756038990e+00 0.000000000000000e+00
3.064451282336733e+00 2.263156805011231e+00 0.000000000000000e+00
3.083564648314645e+00 2.255221582217207e+00 0.000000000000000e+00
3.102972438911300e+00 2.247688011176457e+00 0.000000000000000e+00
3.122294900917315e+00 2.238421280098526e+00 0.000000000000000e+00
3.140596889419576e+00 2.229664012432023e+00 0.000000000000000e+00
3.159260700017263e+00 2.218816530028161e+00 0.000000000000000e+00
3.177853674318996e+00 2.209979895348354e+00 0.000000000000000e+00
3.196694139956536e+00 2.201657603095212e+00 0.000000000000000e+00
3.216109037767610e+00 2.192326633582847e+00 0.000000000000000e+00
3.234995019689329e+00 2.184367660811154e+00 0.000000000000000e+00
3.255150333573048e+00 2.177044927540833e+00 0.000000000000000e+00
3.274320203022800e+00 2.171062605583762e+00 0.000000000000000e+00
3.294479145693981e+00 2.163839329859165e+00 0.000000000000000e+00
3.314024308485942e+00 2.156537755864980e+00 0.000000000000000e+00
3.333705058739011e+00 2.149585079352392e+00 0.000000000000000e+00
3.353468489176713e+00 2.143499391984319e+00 0.000000000000000e+00
3.373464263970006e+00 2.136889725204485e+00 0.000000000000000e+00
3.393182384469589e+00 2.130452191695158e+00 0.000000000000000e+00
3.413415496857798e+00 2.124721471246287e+00 0.000000000000000e+00
3.433360525302668e+00 2.120157347143864e+00 0.000000000000000e+00
3.453716386638771e+00 2.114118824254534e+00 0.000000000000000e+00
3.472808689398640e+00 2.105943043183633e+00 0.000000000000000e+00
3.492667131782259e+00 2.099628825501574e+00 0.000000000000000e+00
3.511823805343059e+00 2.092010538196095e+00 0.000000000000000e+00
3.531508626905888e+00 2.083885620270212e+00 0.000000000000000e+00
3.549233354916461e+00 2.074651060003241e+00 0.000000000000000e+00
3.568090695186280e+00 2.065954338167874e+00 0.000000000000000e+00
3.588078117613341e+00 2.058976643695195e+00 0.000000000000000e+00
3.606084686235526e+00 2.049420145985946e+00 0.000000000000000e+00
3.625470229830493e+00 2.041788798709743e+00 0.000000000000000e+00
3.645054639323738e+00 2.035463995856406e+00 0.000000000000000e+00
3.664538878905394e+00 2.029859533336465e+00 0.000000000000000e+00
3.684760839349000e+00 2.025992602226292e+00 0.000000000000000e+00
3.705047725003683e+00 2.022877977200325e+00 0.000000000000000e+00
3.725719349753184e+00 2.020732123963156e+00 0.000000000000000e+00
3.745950046543478e+00 2.018177973447382e+00 0.000000000000000e+00
3.765844380792095e+00 2.016433100711693e+00 0.000000000000000e+00
3.787241374253496e+00 2.016602422714093e+00 0.000000000000000e+00
3.807512558943207e+00 2.015681674017469e+00 0.000000000000000e+00
3.827259506188603e+00 2.013008446825571e+00 0.000000000000000e+00
3.847868229423347e+00 2.013443893688756e+00 0.000000000000000e+00
3.868626076649220e+00 2.013067016755018e+00 0.000000000000000e+00
3.888649896193805e+00 2.010654419902370e+00 0.000000000000000e+00
3.908890726279265e+00 2.008079483707812e+00 0.000000000000000e+00
3.929182764601392e+00 2.007576542901042e+00 0.000000000000000e+00
3.949700503058586e+00 2.007845572968462e+00 0.000000000000000e+00
3.969499526633679e+00 2.002556604925085e+00 0.000000000000000e+00
3.989643121763895e+00 2.001234551832918e+00 0.000000000000000e+00
1.000505432128966e+00 2.999926409025972e+00 0.000000000000000e+00
1.019335915143204e+00 2.994064986047532e+00 0.000000000000000e+00
1.038176736023460e+00 2.988978056192918e+00 0.000000000000000e+00
1.057248476576964e+00 2.983622519071722e+00 0.000000000000000e+00
1.075653163961945e+00 2.976956188777615e+00 0.000000000000000e+00
1.094540826880246e+00 2.970938102538445e+00 0.000000000000000e+00
1.113272907703324e+00 2.965281848677440e+00 0.000000000000000e+00
1.131834297476138e+00 2.958189795386895e+00 0.000000000000000e+00
1.150512726974939e+00 2.952089684676667e+00 0.000000000000000e+00
1.168732341003376e+00 2.944195330587520e+00 0.000000000000000e+00
1.187509733707041e+00 2.938157881162519e+00 0.000000000000000e+00
1.205433385399411e+00 2.929732714886202e+00 0.000000000000000e+00
1.223917075704149e+00 2.922548414197665e+00 0.000000000000000e+00
1.241695204989038e+00 2.913915188659250e+00 0.000000000000000e+00
1.260184658732226e+00 2.906461785651209e+00 0.000000000000000e+00
1.277857861455596e+00 2.897877274833653e+00 0.000000000000000e+00
1.296237554100218e+00 2.889896323473180e+00 0.000000000000000e+00
1.314448383363741e+00 2.882328444640891e+00 0.000000000000000e+00
1.332641799990031e+00 2.874135150615051e+00 0.000000000000000e+00
1.351064255135149e+00 2.866715369010861e+00 0.000000000000000e+00
1.369168322570437e+00 2.858516269318811e+00 0.000000000000000e+00
1.387638574664552e+00 2.850905199290302e+00 0.000000000000000e+00
1.406003163854586e+00 2.843210914212228e+00 0.000000000000000e+00
1.424274538944781e+00 2.835850373676716e+00 0.000000000000000e+00
1.443048005924787e+00 2.828236770369604e+00 0.000000000000000e+00
1.460910264928408e+00 2.820407294258346e+00 0.000000000000000e+00
1.479496987535774e+00 2.812043033615049e+00 0.000000000000000e+00
1.497196992803179e+00 2.803646378186653e+00 0.000000000000000e+00
1.515537596158043e+00 2.795230228572703e+00 0.000000000000000e+00
1.533760955435160e+00 2.787293736065215e+00 0.000000000000000e+00
1.550623849272206e+00 2.777036586362210e+00 0.000000000000000e+00
1.568868262742466e+00 2.768220946403396e+00 0.000000000000000e+00
1.586233342710246e+00 2.758576542437677e+00 0.000000000000000e+00
1.603520299269031e+00 2.748841086309810e+00 0.000000000000000e+00
1.621772768707006e+00 2.740181268110263e+00 0.000000000000000e+00
1.639432006550267e+00 2.731364989388995e+00 0.000000000000000e+00
1.656300523338033e+00 2.720319148044998e+00 0.000000000000000e+00
1.675898894023186e+00 2.715674741366865e+00 0.000000000000000e+00
1.693447572803852e+00 2.705945032735017e+00 0.000000000000000e+00
1.712020006889769e+00 2.698773254327331e+00 0.000000000000000e+00
1.731740284450840e+00 2.693684235558440e+00 0.000000000000000e+00
1.750405526550362e+00 2.687221303461782e+00 0.000000000000000e+00
1.769965331680710e+00 2.681493108877701e+00 0.000000000000000e+00
1.789269575696639e+00 2.676591655791322e+00 0.000000000000000e+00
1.808926204808782e+00 2.671544019944903e+00 0.000000000000000e+00
1.828926640531029e+00 2.668645125712094e+00 0.000000000000000e+00
1.847232808297975e+00 2.660623600073870e+00 0.000000000000000e+00
1.867685197120825e+00 2.658458546649437e+00 0.000000000000000e+00
1.887302327128464e+00 2.654365078289292e+00 0.000000000000000e+00
1.907419662535011e+00 2.651155154077005e+00 0.000000000000000e+00
1.927276835741591e+00 2.647622700566346e+00 0.000000000000000e+00
1.947623426152830e+00 2.648229900668526e+00 0.000000000000000e+00
1.967957177112326e+00 2.648550053829985e+00 0.000000000000000e+00
1.988348611470917e+00 2.649146293718965e+00 0.000000000000000e+00
2.008653077596933e+00 2.649165200755986e+00 0.000000000000000e+00
2.028780321077076e+00 2.652634664529149e+00 0.000000000000000e+00
2.049157270732592e+00 2.654152887916514e+00 0.000000000000000e+00
2.069498349907836e+00 2.652440907348359e+00 0.000000000000000e+00
2.089903415038779e+00 2.653738427621282e+00 0.000000000000000e+00
2.109995870023816e+00 2.654315056494760e+00 0.000000000000000e+00
2.130613631281711e+00 2.652118459558666e+00 0.000000000000000e+00
2.150267423814833e+00 2.648253737480855e+00 0.000000000000000e+00
2.170719073106349e+00 2.645377114331904e+00 0.000000000000000e+00
2.190755604406884e+00 2.644520167655650e+00 0.000000000000000e+00
2.210759521148373e+00 2.639882305577680e+00 0.000000000000000e+00
2.230463523950048e+00 2.634624093520259e+00 0.000000000000000e+00
2.250678641650240e+00 2.631924028918164e+00 0.000000000000000e+00
2.270543413506740e+00 2.628458396258935e+00 0.000000000000000e+00
2.290518433918314e+00 2.623665709499649e+00 0.000000000000000e+00
2.310113551279021e+00 2.617964987012720e+00 0.000000000000000e+00
2.330222278825217e+00 2.614166908090151e+00 0.000000000000000e+00
2.350019407134263e+00 2.610218824687882e+00 0.000000000000000e+00
2.369802806967768e+00 2.604420025594231e+00 0.000000000000000e+00
2.389867351964240e+00 2.599105929386265e+00 0.000000000000000e+00
2.409554033047824e+00 2.595637947498982e+00 0.000000000000000e+00
2.429824267444191e+00 2.592427430038118e+00 0.000000000000000e+00
2.449952877318223e+00 2.588025943895043e+00 0.000000000000000e+00
2.470180782289658e+00 2.584424374177723e+00 0.000000000000000e+00
2.490564130925667e+00 2.583044054886483e+00 0.000000000000000e+00
2.510664308018280e+00 2.583521843141220e+00 0.000000000000000e+00
2.531548505190453e+00 2.584583266082091e+00 0.000000000000000e+00
2.551994833454260e+00 2.585311229875012e+00 0.000000000000000e+00
2.571743477438042e+00 2.589984640099237e+00 0.000000000000000e+00
2.591820923998031e+00 2.595782891356360e+00 0.000000000000000e+00
2.612245812424693e+00 2.598649988433189e+00 0.000000000000000e+00
2.632518552497961e+00 2.603048723184949e+00 0.000000000000000e+00
2.652439656429864e+00 2.606932368363743e+00 0.000000000000000e+00
2.672931729058274e+00 2.608573240486463e+00 0.000000000000000e+00
2.693701271308568e+00 2.610406387943363e+00 0.000000000000000e+00
2.713624150719830e+00 2.614131039504106e+00 0.000000000000000e+00
2.734793235935384e+00 2.615857718946013e+00 0.000000000000000e+00
2.755315048534323e+00 2.617245836464520e+00 0.000000000000000e+00
2.775547739117728e+00 2.619600665124171e+00 0.000000000000000e+00
2.795754213614328e+00 2.624371678799439e+00 0.000000000000000e+00
2.816026092693014e+00 2.631721154961796e+00 0.000000000000000e+00
2.835803460374272e+00 2.636838297610719e+00 0.000000000000000e+00
2.855762675182788e+00 2.640853512131780e+00 0.000000000000000e+00
2.875492192075139e+00 2.648680119379518e+00 0.000000000000000e+00
2.894716974684170e+00 2.657799444875244e+00 0.000000000000000e+00
2.913207228168357e+00 2.666599600976781e+00 0.000000000000000e+00
2.932625124765676e+00 2.673210373697938e+00 0.000000000000000e+00
2.952333006075446e+00 2.680168994020252e+00 0.000000000000000e+00
2.971225841410392e+00 2.690466981560553e+00 0.000000000000000e+00
2.989213916964471e+00 2.700142139894868e+00 0.000000000000000e+00
3.008392518834935e+00 2.709399378637040e+00 0.000000000000000e+00
3.027209860100453e+00 2.716939804379856e+00 0.000000000000000e+00
3.046124572385890e+00 2.726044243961054e+00 0.000000000000000e+00
3.064451282336709e+00 2.736843194988811e+00 0.000000000000000e+00
3.083564648314623e+00 2.744778417782821e+00 0.000000000000000e+00
3.102972438911281e+00 2.752311988823577e+00 0.000000000000000e+00
3.122294900917288e+00 2.761578719901514e+00 0.000000000000000e+00
3.140596889419557e+00 2.770335987568018e+00 0.000000000000000e+00
3.159260700017243e+00 2.781183469971872e+00 0.000000000000000e+00
3.177853674318978e+00 2.790020104651675e+00 0.000000000000000e+00
3.196694139956517e+00 2.798342396904815e+00 0.000000000000000e+00
3.216109037767590e+00 2.807673366417192e+00 0.000000000000000e+00
3.234995019689309e+00 2.815632339188867e+00 0.000000000000000e+00
3.255150333573031e+00 2.822955072459184e+00 0.000000000000000e+00
3.274320203022788e+00 2.828937394416255e+00 0.000000000000000e+00
3.294479145693963e+00 2.836160670140868e+00 0.000000000000000e+00
3.314024308485922e+00 2.843462244135043e+00 0.000000000000000e+00
3.333705058738994e+00 2.850414920647638e+00 0.000000000000000e+00
3.353468489176692e+00 2.856500608015700e+00 0.000000000000000e+00
3.373464263969991e+00 2.863110274795539e+00 0.000000000000000e+00
3.393182384469569e+00 2.869547808304865e+00 0.000000000000000e+00
3.413415496857786e+00 2.875278528753726e+00 0.000000000000000e+00
3.433360525302652e+00 2.879842652856146e+00 0.000000000000000e+00
3.453716386638757e+00 2.885881175745479e+00 0.000000000000000e+00
3.472808689398625e+00 2.894056956816377e+00 0.000000000000000e+00
3.492667131782244e+00 2.900371174498430e+00 0.000000000000000e+00
3.511823805343049e+00 2.907989461803915e+00 0.000000000000000e+00
3.531508626905872e+00 2.916114379729796e+00 0.000000000000000e+00
3.549233354916449e+00 2.925348939996770e+00 0.000000000000000e+00
3.568090695186271e+00 2.934045661832128e+00 0.000000000000000e+00
3.588078117613330e+00 2.941023356304814e+00 0.000000000000000e+00
3.606084686235514e+00 2.950579854014064e+00 0.000000000000000e+00
3.625470229830485e+00 2.958211201290266e+00 0.000000000000000e+00
3.645054639323727e+00 2.964536004143604e+00 0.000000000000000e+00
3.664538878905383e+00 2.970140466663548e+00 0.000000000000000e+00
3.684760839348994e+00 2.974007397773720e+00 0.000000000000000e+00
3.705047725003668e+00 2.977122022799689e+00 0.000000000000000e+00
3.725719349753179e+00 2.979267876036860e+00 0.000000000000000e+00
3.745950046543465e+00 2.981822026552630e+00 0.000000000000000e+00
3.765844380792093e+00 2.983566899288314e+00 0.000000000000000e+00
3.787241374253485e+00 2.983397577285916e+00 0.000000000000000e+00
3.807512558943205e+00 2.984318325982536e+00 0.000000000000000e+00
3.827259506188594e+00 2.986991553174441e+00 0.000000000000000e+00
3.847868229423343e+00 2.986556106311257e+00 0.000000000000000e+00
3.868626076649212e+00 2.986932983244995e+00 0.000000000000000e+00
3.888649896193800e+00 2.989345580097640e+00 0.000000000000000e+00
3.908890726279258e+00 2.991920516292194e+00 0.000000000000000e+00
3.929182764601390e+00 2.992423457098971e+00 0.000000000000000e+00
3.949700503058581e+00 2.992154427031552e+00 0.000000000000000e+00
3.969499526633677e+00 2.997443395074924e+00 0.000000000000000e+00
3.989643121763893e+00 2.998765448167084e+00 0.000000000000000e+00

POINT_DATA   310
SCALARS fMag double
LOOKUP_TABLE default

1.255742e+03 
2.055719e+03 
3.026802e+03 
2.312638e+03 
2.450083e+03 
2.588247e+03 
3.038437e+03 
2.225598e+03 
2.113451e+03 
1.357617e+03 
8.756603e+02 
2.604070e+02 
7.469812e+02 
1.775810e+03 
2.911932e+03 
3.943217e+03 
3.130755e+03 
2.343363e+03 
9.780518e+02 
1.600596e+02 
1.056310e+03 
5.681562e+02 
2.081904e+03 
5.606098e+03 
7.529199e+03 
8.772258e+03 
7.976615e+03 
5.952931e+03 
2.972163e+03 
1.697581e+03 
5.463912e+03 
4.106338e+03 
4.360704e+02 
3.777555e+03 
4.671803e+03 
4.425601e+03 
2.361550e+03 
1.716040e+03 
1.751328e+03 
4.722702e+03 
6.201962e+03 
6.267647e+03 
4.616622e+03 
3.854971e+03 
1.366331e+03 
2.398308e+03 
5.833912e+03 
4.967079e+03 
3.392755e+03 
1.880760e+03 
2.292333e+03 
1.427549e+02 
6.950703e+02 
9.799237e+02 
1.641921e+03 
1.177812e+03 
1.631910e+03 
1.369650e+03 
3.359343e+03 
6.517578e+03 
7.120510e+03 
6.238227e+03 
5.953267e+03 
4.942893e+03 
1.473691e+03 
1.249326e+03 
2.547211e+03 
3.837332e+03 
1.390238e+03 
1.113670e+03 
3.043708e+03 
4.195896e+03 
1.474100e+03 
7.445851e+03 
5.345095e+03 
9.414724e+02 
5.623246e+02 
1.545035e+03 
3.395667e+03 
8.062950e+03 
4.412431e+03 
2.613310e+03 
6.293743e+03 
2.969783e+03 
1.726390e+03 
5.162198e+03 
2.413240e+03 
2.952463e+03 
6.026595e+03 
1.001474e+04 
6.739544e+03 
2.305006e+03 
4.286636e+03 
8.361741e+03 
1.099370e+04 
7.894833e+02 
8.770793e+03 
1.510049e+03 
8.165484e+03 
1.193588e+03 
4.192880e+03 
6.820784e+03 
1.057296e+04 
7.826279e+03 
1.052364e+04 
7.370976e+03 
3.558418e+03 
6.137270e+03 
1.324775e+03 
6.295333e+03 
1.091477e+04 
1.365663e+04 
1.104886e+04 
4.247104e+02 
9.620527e+03 
1.041756e+04 
9.428262e+03 
1.382415e+04 
1.344204e+04 
5.292161e+03 
4.760377e+02 
1.952716e+03 
3.786812e+03 
3.092307e+03 
3.141242e+03 
5.809229e+03 
7.437060e+03 
5.431224e+03 
1.717923e+03 
2.329860e+03 
6.810781e+03 
1.359073e+04 
7.998971e+03 
4.742049e+03 
8.223842e+03 
5.306692e+03 
2.763468e+03 
3.158393e+03 
2.881993e+03 
5.897598e+02 
2.799530e+03 
4.375028e+03 
4.748433e+03 
1.414359e+04 
1.101763e+04 
3.886921e+03 
6.600726e+03 
1.947740e+03 
6.131961e+03 
1.742199e+03 
1.434222e+03 
2.612239e+03 
2.880759e+03 
3.559577e+03 
3.588165e+03 
1.255742e+03 
2.055719e+03 
3.026802e+03 
2.312638e+03 
2.450083e+03 
2.588247e+03 
3.038437e+03 
2.225598e+03 
2.113451e+03 
1.357617e+03 
8.756603e+02 
2.604070e+02 
7.469812e+02 
1.775810e+03 
2.911932e+03 
3.943217e+03 
3.130755e+03 
2.343363e+03 
9.780518e+02 
1.600596e+02 
1.056310e+03 
5.681562e+02 
2.081904e+03 
5.606098e+03 
7.529199e+03 
8.772258e+03 
7.976615e+03 
5.952931e+03 
2.972163e+03 
1.697581e+03 
5.463912e+03 
4.106338e+03 
4.360704e+02 
3.777555e+03 
4.671803e+03 
4.425601e+03 
2.361550e+03 
1.716040e+03 
1.751328e+03 
4.722702e+03 
6.201962e+03 
6.267647e+03 
4.616622e+03 
3.854971e+03 
1.366331e+03 
2.398308e+03 
5.833912e+03 
4.967079e+03 
3.392755e+03 
1.880760e+03 
2.292333e+03 
1.427549e+02 
6.950703e+02 
9.799237e+02 
1.641921e+03 
1.177812e+03 
1.631910e+03 
1.369650e+03 
3.359343e+03 
6.517578e+03 
7.120510e+03 
6.238227e+03 
5.953267e+03 
4.942893e+03 
1.473691e+03 
1.249326e+03 
2.547211e+03 
3.837332e+03 
1.390238e+03 
1.113670e+03 
3.043708e+03 
4.195896e+03 
1.474100e+03 
7.445851e+03 
5.345095e+03 
9.414724e+02 
5.623246e+02 
1.545035e+03 
3.395667e+03 
8.062950e+03 
4.412431e+03 
2.613310e+03 
6.293743e+03 
2.969783e+03 
1.726390e+03 
5.162198e+03 
2.413240e+03 
2.952463e+03 
6.026595e+03 
1.001474e+04 
6.739544e+03 
2.305006e+03 
4.286636e+03 
8.361741e+03 
1.099370e+04 
7.894833e+02 
8.770793e+03 
1.510049e+03 
8.165484e+03 
1.193588e+03 
4.192880e+03 
6.820784e+03 
1.057296e+04 
7.826279e+03 
1.052364e+04 
7.370976e+03 
3.558418e+03 
6.137270e+03 
1.324775e+03 
6.295333e+03 
1.091477e+04 
1.365663e+04 
1.104886e+04 
4.247104e+02 
9.620527e+03 
1.041756e+04 
9.428262e+03 
1.382415e+04 
1.344204e+04 
5.292161e+03 
4.760377e+02 
1.952716e+03 
3.786812e+03 
3.092307e+03 
3.141242e+03 
5.809229e+03 
7.437060e+03 
5.431224e+03 
1.717923e+03 
2.329860e+03 
6.810781e+03 
1.359073e+04 
7.998971e+03 
4.742049e+03 
8.223842e+03 
5.306692e+03 
2.763468e+03 
3.158393e+03 
2.881993e+03 
5.897598e+02 
2.799530e+03 
4.375028e+03 
4.748433e+03 
1.414359e+04 
1.101763e+04 
3.886921e+03 
6.600726e+03 
1.947740e+03 
6.131961e+03 
1.742199e+03 
1.434222e+03 
2.612239e+03 
2.880759e+03 
3.559577e+03 
3.588165e+03 
