# vtk DataFile Version 2.0
fNorm
ASCII
DATASET UNSTRUCTURED_GRID

FIELD FieldData 1
TIME 1 1 double
0.10000000
POINTS 310 float
9.977153062438345e-01 2.001341930888341e+00 0.000000000000000e+00
1.015593828741517e+00 2.008803548683784e+00 0.000000000000000e+00
1.032042202894460e+00 2.018886228892519e+00 0.000000000000000e+00
1.048978811989885e+00 2.028714414175450e+00 0.000000000000000e+00
1.062558810546909e+00 2.042746667336386e+00 0.000000000000000e+00
1.074166429201774e+00 2.058774236414654e+00 0.000000000000000e+00
1.085606198818242e+00 2.073362813199070e+00 0.000000000000000e+00
1.099601392174007e+00 2.086482244352877e+00 0.000000000000000e+00
1.116287336736731e+00 2.096542923017789e+00 0.000000000000000e+00
1.134997294166607e+00 2.104993070564745e+00 0.000000000000000e+00
1.153839938525350e+00 2.107025124704211e+00 0.000000000000000e+00
1.173808896695960e+00 2.108422194030110e+00 0.000000000000000e+00
1.192882909847428e+00 2.111025175115420e+00 0.000000000000000e+00
1.211231477516699e+00 2.118666165118362e+00 0.000000000000000e+00
1.228636400390354e+00 2.128211404114533e+00 0.000000000000000e+00
1.243678837159128e+00 2.139905815138583e+00 0.000000000000000e+00
1.260617866663597e+00 2.150094560378907e+00 0.000000000000000e+00
1.278231127991299e+00 2.160019687243703e+00 0.000000000000000e+00
1.295247937781984e+00 2.170653207625852e+00 0.000000000000000e+00
1.312456780843235e+00 2.179416470281467e+00 0.000000000000000e+00
1.330887025601131e+00 2.185811723026062e+00 0.000000000000000e+00
1.349803912875190e+00 2.190688466370804e+00 0.000000000000000e+00
1.368704519456819e+00 2.196737634224963e+00 0.000000000000000e+00
1.387346969179527e+00 2.202499405121685e+00 0.000000000000000e+00
1.407218442039338e+00 2.206927402988133e+00 0.000000000000000e+00
1.425764656142190e+00 2.210538172641307e+00 0.000000000000000e+00
1.445793644717482e+00 2.213970830797260e+00 0.000000000000000e+00
1.464796036239236e+00 2.214567238959844e+00 0.000000000000000e+00
1.485749855276026e+00 2.215160168890082e+00 0.000000000000000e+00
1.504910444341687e+00 2.217025390395300e+00 0.000000000000000e+00
1.524488699560363e+00 2.219122829130027e+00 0.000000000000000e+00
1.544246712379971e+00 2.215103182104334e+00 0.000000000000000e+00
1.564199194512509e+00 2.215791863776281e+00 0.000000000000000e+00
1.583652176323890e+00 2.218592087585822e+00 0.000000000000000e+00
1.604391321078491e+00 2.220347966798443e+00 0.000000000000000e+00
1.623505507395502e+00 2.223393427336878e+00 0.000000000000000e+00
1.643210518537226e+00 2.227832351474236e+00 0.000000000000000e+00
1.662733986751692e+00 2.222483069835589e+00 0.000000000000000e+00
1.682585873590680e+00 2.226593633399993e+00 0.000000000000000e+00
1.702587323468870e+00 2.228951937057690e+00 0.000000000000000e+00
1.723181953175587e+00 2.230150610603546e+00 0.000000000000000e+00
1.742319909634126e+00 2.235191734724320e+00 0.000000000000000e+00
1.762054765150924e+00 2.241019428621155e+00 0.000000000000000e+00
1.781793573122832e+00 2.245460323676439e+00 0.000000000000000e+00
1.801838273937536e+00 2.247433338496971e+00 0.000000000000000e+00
1.821910618482636e+00 2.251528941434366e+00 0.000000000000000e+00
1.839168876938536e+00 2.263082820209769e+00 0.000000000000000e+00
1.859570784991279e+00 2.262316561236515e+00 0.000000000000000e+00
1.879503516599350e+00 2.266427640830669e+00 0.000000000000000e+00
1.898920156869610e+00 2.271985059107928e+00 0.000000000000000e+00
1.918247219117492e+00 2.278877267936279e+00 0.000000000000000e+00
1.938624281568932e+00 2.281838968385854e+00 0.000000000000000e+00
1.958823808216522e+00 2.284010596874640e+00 0.000000000000000e+00
1.978946300153388e+00 2.288261329197801e+00 0.000000000000000e+00
1.998947835363980e+00 2.292857928654376e+00 0.000000000000000e+00
2.019556321481498e+00 2.291261035552862e+00 0.000000000000000e+00
2.040287906770477e+00 2.291194121977010e+00 0.000000000000000e+00
2.060702864088030e+00 2.293189257403439e+00 0.000000000000000e+00
2.081114158010649e+00 2.289442177285008e+00 0.000000000000000e+00
2.101043553161879e+00 2.283913533686229e+00 0.000000000000000e+00
2.121597187349374e+00 2.278800647774429e+00 0.000000000000000e+00
2.141356359317756e+00 2.274719019936744e+00 0.000000000000000e+00
2.161494788275276e+00 2.268927556575573e+00 0.000000000000000e+00
2.180636344112202e+00 2.260137013130014e+00 0.000000000000000e+00
2.200507075248444e+00 2.254058147013843e+00 0.000000000000000e+00
2.220375600654053e+00 2.248599732583384e+00 0.000000000000000e+00
2.240381392853556e+00 2.240885157271703e+00 0.000000000000000e+00
2.260138220407355e+00 2.235161518061920e+00 0.000000000000000e+00
2.280617537690436e+00 2.230059637704485e+00 0.000000000000000e+00
2.300707474380067e+00 2.225446936104669e+00 0.000000000000000e+00
2.321188916404611e+00 2.220176961844979e+00 0.000000000000000e+00
2.341772000203445e+00 2.215773558495842e+00 0.000000000000000e+00
2.362570256271922e+00 2.212572317097926e+00 0.000000000000000e+00
2.383017117967865e+00 2.208228649134829e+00 0.000000000000000e+00
2.403535413412878e+00 2.203088098946933e+00 0.000000000000000e+00
2.424457528636550e+00 2.199531963120099e+00 0.000000000000000e+00
2.445020545289131e+00 2.197015528735676e+00 0.000000000000000e+00
2.465719821448636e+00 2.193103314017291e+00 0.000000000000000e+00
2.486901595947908e+00 2.189333409616885e+00 0.000000000000000e+00
2.507711507455753e+00 2.187385574680892e+00 0.000000000000000e+00
2.529359059332101e+00 2.185743188758552e+00 0.000000000000000e+00
2.549171387362247e+00 2.184949517237947e+00 0.000000000000000e+00
2.570479289811085e+00 2.182660862406868e+00 0.000000000000000e+00
2.592174845070558e+00 2.181228301121722e+00 0.000000000000000e+00
2.612751746469740e+00 2.181683855538952e+00 0.000000000000000e+00
2.634750360463669e+00 2.180771749423057e+00 0.000000000000000e+00
2.654569149130551e+00 2.179083326686765e+00 0.000000000000000e+00
2.676328483364241e+00 2.177021875894679e+00 0.000000000000000e+00
2.696306264532987e+00 2.176780470423595e+00 0.000000000000000e+00
2.718764400815694e+00 2.177209594905224e+00 0.000000000000000e+00
2.738730086789318e+00 2.179088198093238e+00 0.000000000000000e+00
2.759814811239676e+00 2.180768382895843e+00 0.000000000000000e+00
2.780795373472078e+00 2.182985972697271e+00 0.000000000000000e+00
2.800940564326972e+00 2.184819078727701e+00 0.000000000000000e+00
2.823005599338074e+00 2.186109358641456e+00 0.000000000000000e+00
2.843283580731560e+00 2.188963743784341e+00 0.000000000000000e+00
2.864305841126952e+00 2.193419648633118e+00 0.000000000000000e+00
2.884615226290407e+00 2.197914378338975e+00 0.000000000000000e+00
2.904420762622689e+00 2.202828265641109e+00 0.000000000000000e+00
2.925890299259448e+00 2.206926640118911e+00 0.000000000000000e+00
2.946956230847001e+00 2.210625209184633e+00 0.000000000000000e+00
2.967018113253573e+00 2.216517804640013e+00 0.000000000000000e+00
2.987089205949547e+00 2.223283307430313e+00 0.000000000000000e+00
3.006578218330748e+00 2.230070619124457e+00 0.000000000000000e+00
3.026852687727701e+00 2.237502775917420e+00 0.000000000000000e+00
3.045209887469563e+00 2.244438726392813e+00 0.000000000000000e+00
3.065218860853368e+00 2.251574795596696e+00 0.000000000000000e+00
3.086052758988135e+00 2.258325756704797e+00 0.000000000000000e+00
3.105482824892964e+00 2.265220242327860e+00 0.000000000000000e+00
3.126455325475872e+00 2.271192169835235e+00 0.000000000000000e+00
3.147049779828481e+00 2.276188498227933e+00 0.000000000000000e+00
3.167058534435304e+00 2.279844684097613e+00 0.000000000000000e+00
3.188946373086355e+00 2.282313728686629e+00 0.000000000000000e+00
3.209507391915840e+00 2.284139775716444e+00 0.000000000000000e+00
3.230904299266910e+00 2.284607097087077e+00 0.000000000000000e+00
3.252231224493612e+00 2.283759509852522e+00 0.000000000000000e+00
3.273188387129550e+00 2.282694367331836e+00 0.000000000000000e+00
3.294325161962737e+00 2.280980670140222e+00 0.000000000000000e+00
3.314529047579146e+00 2.277735606239021e+00 0.000000000000000e+00
3.335748768780931e+00 2.272623980696177e+00 0.000000000000000e+00
3.355882100699970e+00 2.266568127708927e+00 0.000000000000000e+00
3.376091868293019e+00 2.259114276786967e+00 0.000000000000000e+00
3.395139881818559e+00 2.250460235146606e+00 0.000000000000000e+00
3.414456538908359e+00 2.240418529033445e+00 0.000000000000000e+00
3.433026415527470e+00 2.229731911889218e+00 0.000000000000000e+00
3.450569149094652e+00 2.218097251987249e+00 0.000000000000000e+00
3.468165713471550e+00 2.206000563993636e+00 0.000000000000000e+00
3.485827713962532e+00 2.193067978512303e+00 0.000000000000000e+00
3.501564313240634e+00 2.180068546528792e+00 0.000000000000000e+00
3.518700707940863e+00 2.166627605091471e+00 0.000000000000000e+00
3.534811307870354e+00 2.153110932509297e+00 0.000000000000000e+00
3.551324893468817e+00 2.139578933579505e+00 0.000000000000000e+00
3.567652948950059e+00 2.126293687261241e+00 0.000000000000000e+00
3.584007771457394e+00 2.112903479944933e+00 0.000000000000000e+00
3.600866687448707e+00 2.099635752627171e+00 0.000000000000000e+00
3.617373302720586e+00 2.086826837548430e+00 0.000000000000000e+00
3.635250806915673e+00 2.074626769838288e+00 0.000000000000000e+00
3.653023198037570e+00 2.063295821655951e+00 0.000000000000000e+00
3.670910973922338e+00 2.052165033636931e+00 0.000000000000000e+00
3.688614239357942e+00 2.041674035870355e+00 0.000000000000000e+00
3.707815298391901e+00 2.031248747334558e+00 0.000000000000000e+00
3.726161061960677e+00 2.021854097757988e+00 0.000000000000000e+00
3.744853991543008e+00 2.013121356424204e+00 0.000000000000000e+00
3.764956547704070e+00 2.005233725081874e+00 0.000000000000000e+00
3.784497432970277e+00 1.998051090237303e+00 0.000000000000000e+00
3.803792755084293e+00 1.991127852251585e+00 0.000000000000000e+00
3.824723078247434e+00 1.985768870609250e+00 0.000000000000000e+00
3.845074751087667e+00 1.982092000587998e+00 0.000000000000000e+00
3.865483296198990e+00 1.979489343703210e+00 0.000000000000000e+00
3.886369484314082e+00 1.978659331726664e+00 0.000000000000000e+00
3.907814072944069e+00 1.980281390695095e+00 0.000000000000000e+00
3.928300168688357e+00 1.982525211006139e+00 0.000000000000000e+00
3.948456470984907e+00 1.984016292104483e+00 0.000000000000000e+00
3.968954861443770e+00 1.990977532466519e+00 0.000000000000000e+00
3.989274263962014e+00 1.995620377909032e+00 0.000000000000000e+00
9.977153062438324e-01 2.998658069111644e+00 0.000000000000000e+00
1.015593828741535e+00 2.991196451316235e+00 0.000000000000000e+00
1.032042202894486e+00 2.981113771107518e+00 0.000000000000000e+00
1.048978811989915e+00 2.971285585824596e+00 0.000000000000000e+00
1.062558810546946e+00 2.957253332663657e+00 0.000000000000000e+00
1.074166429201819e+00 2.941225763585388e+00 0.000000000000000e+00
1.085606198818289e+00 2.926637186800983e+00 0.000000000000000e+00
1.099601392174055e+00 2.913517755647181e+00 0.000000000000000e+00
1.116287336736770e+00 2.903457076982256e+00 0.000000000000000e+00
1.134997294166642e+00 2.895006929435277e+00 0.000000000000000e+00
1.153839938525375e+00 2.892974875295791e+00 0.000000000000000e+00
1.173808896695981e+00 2.891577805969874e+00 0.000000000000000e+00
1.192882909847448e+00 2.888974824884559e+00 0.000000000000000e+00
1.211231477516720e+00 2.881333834881615e+00 0.000000000000000e+00
1.228636400390366e+00 2.871788595885427e+00 0.000000000000000e+00
1.243678837159129e+00 2.860094184861367e+00 0.000000000000000e+00
1.260617866663592e+00 2.849905439621034e+00 0.000000000000000e+00
1.278231127991291e+00 2.839980312756230e+00 0.000000000000000e+00
1.295247937781989e+00 2.829346792374094e+00 0.000000000000000e+00
1.312456780843254e+00 2.820583529718519e+00 0.000000000000000e+00
1.330887025601164e+00 2.814188276973956e+00 0.000000000000000e+00
1.349803912875226e+00 2.809311533629219e+00 0.000000000000000e+00
1.368704519456851e+00 2.803262365775041e+00 0.000000000000000e+00
1.387346969179545e+00 2.797500594878286e+00 0.000000000000000e+00
1.407218442039355e+00 2.793072597011829e+00 0.000000000000000e+00
1.425764656142218e+00 2.789461827358685e+00 0.000000000000000e+00
1.445793644717517e+00 2.786029169202766e+00 0.000000000000000e+00
1.464796036239270e+00 2.785432761040205e+00 0.000000000000000e+00
1.485749855276059e+00 2.784839831109976e+00 0.000000000000000e+00
1.504910444341725e+00 2.782974609604747e+00 0.000000000000000e+00
1.524488699560398e+00 2.780877170870000e+00 0.000000000000000e+00
1.544246712380006e+00 2.784896817895667e+00 0.000000000000000e+00
1.564199194512552e+00 2.784208136223718e+00 0.000000000000000e+00
1.583652176323929e+00 2.781407912414180e+00 0.000000000000000e+00
1.604391321078529e+00 2.779652033201561e+00 0.000000000000000e+00
1.623505507395538e+00 2.776606572663139e+00 0.000000000000000e+00
1.643210518537269e+00 2.772167648525800e+00 0.000000000000000e+00
1.662733986751726e+00 2.777516930164483e+00 0.000000000000000e+00
1.682585873590711e+00 2.773406366600085e+00 0.000000000000000e+00
1.702587323468904e+00 2.771048062942387e+00 0.000000000000000e+00
1.723181953175615e+00 2.769849389396541e+00 0.000000000000000e+00
1.742319909634155e+00 2.764808265275768e+00 0.000000000000000e+00
1.762054765150949e+00 2.758980571378929e+00 0.000000000000000e+00
1.781793573122850e+00 2.754539676323632e+00 0.000000000000000e+00
1.801838273937554e+00 2.752566661503090e+00 0.000000000000000e+00
1.821910618482650e+00 2.748471058565694e+00 0.000000000000000e+00
1.839168876938552e+00 2.736917179790292e+00 0.000000000000000e+00
1.859570784991294e+00 2.737683438763539e+00 0.000000000000000e+00
1.879503516599358e+00 2.733572359169389e+00 0.000000000000000e+00
1.898920156869621e+00 2.728014940892132e+00 0.000000000000000e+00
1.918247219117501e+00 2.721122732063777e+00 0.000000000000000e+00
1.938624281568939e+00 2.718161031614204e+00 0.000000000000000e+00
1.958823808216527e+00 2.715989403125425e+00 0.000000000000000e+00
1.978946300153389e+00 2.711738670802257e+00 0.000000000000000e+00
1.998947835363982e+00 2.707142071345686e+00 0.000000000000000e+00
2.019556321481499e+00 2.708738964447199e+00 0.000000000000000e+00
2.040287906770477e+00 2.708805878023055e+00 0.000000000000000e+00
2.060702864088029e+00 2.706810742596619e+00 0.000000000000000e+00
2.081114158010646e+00 2.710557822715049e+00 0.000000000000000e+00
2.101043553161875e+00 2.716086466313834e+00 0.000000000000000e+00
2.121597187349370e+00 2.721199352225626e+00 0.000000000000000e+00
2.141356359317752e+00 2.725280980063313e+00 0.000000000000000e+00
2.161494788275272e+00 2.731072443424482e+00 0.000000000000000e+00
2.180636344112198e+00 2.739862986870041e+00 0.000000000000000e+00
2.200507075248439e+00 2.745941852986206e+00 0.000000000000000e+00
2.220375600654052e+00 2.751400267416658e+00 0.000000000000000e+00
2.240381392853554e+00 2.759114842728344e+00 0.000000000000000e+00
2.260138220407354e+00 2.764838481938124e+00 0.000000000000000e+00
2.280617537690434e+00 2.769940362295556e+00 0.000000000000000e+00
2.300707474380063e+00 2.774553063895372e+00 0.000000000000000e+00
2.321188916404611e+00 2.779823038155060e+00 0.000000000000000e+00
2.341772000203445e+00 2.784226441504197e+00 0.000000000000000e+00
2.362570256271925e+00 2.787427682902113e+00 0.000000000000000e+00
2.383017117967864e+00 2.791771350865215e+00 0.000000000000000e+00
2.403535413412883e+00 2.796911901053109e+00 0.000000000000000e+00
2.424457528636550e+00 2.800468036879936e+00 0.000000000000000e+00
2.445020545289134e+00 2.802984471264358e+00 0.000000000000000e+00
2.465719821448642e+00 2.806896685982745e+00 0.000000000000000e+00
2.486901595947915e+00 2.810666590383147e+00 0.000000000000000e+00
2.507711507455761e+00 2.812614425319139e+00 0.000000000000000e+00
2.529359059332108e+00 2.814256811241476e+00 0.000000000000000e+00
2.549171387362257e+00 2.815050482762081e+00 0.000000000000000e+00
2.570479289811097e+00 2.817339137593164e+00 0.000000000000000e+00
2.592174845070569e+00 2.818771698878307e+00 0.000000000000000e+00
2.612751746469751e+00 2.818316144461074e+00 0.000000000000000e+00
2.634750360463684e+00 2.819228250576971e+00 0.000000000000000e+00
2.654569149130560e+00 2.820916673313261e+00 0.000000000000000e+00
2.676328483364252e+00 2.822978124105347e+00 0.000000000000000e+00
2.696306264533001e+00 2.823219529576433e+00 0.000000000000000e+00
2.718764400815708e+00 2.822790405094803e+00 0.000000000000000e+00
2.738730086789331e+00 2.820911801906792e+00 0.000000000000000e+00
2.759814811239693e+00 2.819231617104188e+00 0.000000000000000e+00
2.780795373472093e+00 2.817014027302760e+00 0.000000000000000e+00
2.800940564326986e+00 2.815180921272327e+00 0.000000000000000e+00
2.823005599338090e+00 2.813890641358576e+00 0.000000000000000e+00
2.843283580731573e+00 2.811036256215686e+00 0.000000000000000e+00
2.864305841126967e+00 2.806580351366905e+00 0.000000000000000e+00
2.884615226290419e+00 2.802085621661052e+00 0.000000000000000e+00
2.904420762622707e+00 2.797171734358920e+00 0.000000000000000e+00
2.925890299259461e+00 2.793073359881117e+00 0.000000000000000e+00
2.946956230847019e+00 2.789374790815398e+00 0.000000000000000e+00
2.967018113253590e+00 2.783482195360018e+00 0.000000000000000e+00
2.987089205949562e+00 2.776716692569719e+00 0.000000000000000e+00
3.006578218330767e+00 2.769929380875569e+00 0.000000000000000e+00
3.026852687727715e+00 2.762497224082609e+00 0.000000000000000e+00
3.045209887469587e+00 2.755561273607214e+00 0.000000000000000e+00
3.065218860853385e+00 2.748425204403332e+00 0.000000000000000e+00
3.086052758988163e+00 2.741674243295225e+00 0.000000000000000e+00
3.105482824892980e+00 2.734779757672163e+00 0.000000000000000e+00
3.126455325475891e+00 2.728807830164785e+00 0.000000000000000e+00
3.147049779828500e+00 2.723811501772083e+00 0.000000000000000e+00
3.167058534435320e+00 2.720155315902402e+00 0.000000000000000e+00
3.188946373086366e+00 2.717686271313384e+00 0.000000000000000e+00
3.209507391915862e+00 2.715860224283577e+00 0.000000000000000e+00
3.230904299266930e+00 2.715392902912940e+00 0.000000000000000e+00
3.252231224493627e+00 2.716240490147495e+00 0.000000000000000e+00
3.273188387129567e+00 2.717305632668179e+00 0.000000000000000e+00
3.294325161962754e+00 2.719019329859797e+00 0.000000000000000e+00
3.314529047579166e+00 2.722264393760996e+00 0.000000000000000e+00
3.335748768780948e+00 2.727376019303841e+00 0.000000000000000e+00
3.355882100699991e+00 2.733431872291091e+00 0.000000000000000e+00
3.376091868293036e+00 2.740885723213055e+00 0.000000000000000e+00
3.395139881818574e+00 2.749539764853419e+00 0.000000000000000e+00
3.414456538908378e+00 2.759581470966581e+00 0.000000000000000e+00
3.433026415527480e+00 2.770268088110807e+00 0.000000000000000e+00
3.450569149094670e+00 2.781902748012777e+00 0.000000000000000e+00
3.468165713471560e+00 2.793999436006388e+00 0.000000000000000e+00
3.485827713962543e+00 2.806932021487726e+00 0.000000000000000e+00
3.501564313240639e+00 2.819931453471235e+00 0.000000000000000e+00
3.518700707940874e+00 2.833372394908562e+00 0.000000000000000e+00
3.534811307870359e+00 2.846889067490732e+00 0.000000000000000e+00
3.551324893468827e+00 2.860421066420530e+00 0.000000000000000e+00
3.567652948950069e+00 2.873706312738792e+00 0.000000000000000e+00
3.584007771457404e+00 2.887096520055100e+00 0.000000000000000e+00
3.600866687448717e+00 2.900364247372862e+00 0.000000000000000e+00
3.617373302720592e+00 2.913173162451603e+00 0.000000000000000e+00
3.635250806915687e+00 2.925373230161749e+00 0.000000000000000e+00
3.653023198037573e+00 2.936704178344085e+00 0.000000000000000e+00
3.670910973922348e+00 2.947834966363108e+00 0.000000000000000e+00
3.688614239357948e+00 2.958325964129680e+00 0.000000000000000e+00
3.707815298391906e+00 2.968751252665478e+00 0.000000000000000e+00
3.726161061960684e+00 2.978145902242046e+00 0.000000000000000e+00
3.744853991543012e+00 2.986878643575829e+00 0.000000000000000e+00
3.764956547704080e+00 2.994766274918163e+00 0.000000000000000e+00
3.784497432970274e+00 3.001948909762733e+00 0.000000000000000e+00
3.803792755084306e+00 3.008872147748446e+00 0.000000000000000e+00
3.824723078247433e+00 3.014231129390780e+00 0.000000000000000e+00
3.845074751087676e+00 3.017907999412027e+00 0.000000000000000e+00
3.865483296198993e+00 3.020510656296814e+00 0.000000000000000e+00
3.886369484314089e+00 3.021340668273358e+00 0.000000000000000e+00
3.907814072944075e+00 3.019718609304924e+00 0.000000000000000e+00
3.928300168688363e+00 3.017474788993874e+00 0.000000000000000e+00
3.948456470984913e+00 3.015983707895526e+00 0.000000000000000e+00
3.968954861443775e+00 3.009022467533488e+00 0.000000000000000e+00
3.989274263962017e+00 3.004379622090971e+00 0.000000000000000e+00

POINT_DATA   310
SCALARS fNorm double
LOOKUP_TABLE default

2.162373e+03 
2.614989e+02 
1.355477e+02 
7.236390e+02 
5.991434e+02 
3.273677e+02 
1.030356e+03 
7.722926e+01 
1.073028e+03 
9.160982e+02 
5.880590e+02 
6.299953e+02 
5.940955e+02 
8.705953e+02 
1.687924e+02 
3.938794e+02 
1.762800e+02 
1.124956e+02 
2.987820e+02 
8.166523e+01 
6.146140e+01 
1.114978e+02 
7.453579e+01 
3.457694e+02 
2.073465e+02 
9.951449e+01 
2.898652e+02 
1.038975e+02 
2.206798e+02 
8.363303e+01 
1.201786e+03 
1.152441e+03 
4.256544e+02 
4.365931e+02 
5.774224e+02 
9.159988e+01 
3.127597e+03 
3.115237e+03 
4.158844e+02 
5.174294e+02 
1.437889e+03 
1.018750e+02 
3.724666e+03 
3.161641e+03 
5.102681e+03 
8.070428e+03 
4.308578e+03 
5.065616e+03 
3.082426e+03 
6.284347e+02 
2.281153e+03 
5.099082e+02 
1.086016e+03 
8.829370e+01 
3.507401e+03 
8.519366e+02 
9.976096e+02 
3.318061e+03 
1.363390e+03 
3.845523e+02 
2.806938e+02 
9.721415e+02 
2.519458e+03 
1.855325e+03 
3.545460e+02 
1.699196e+03 
1.487914e+03 
5.238211e+02 
3.988038e+02 
3.504247e+02 
7.914967e+02 
1.007287e+03 
8.160502e+02 
5.591344e+02 
1.339436e+03 
6.834590e+02 
1.012292e+03 
1.410840e+02 
1.600424e+03 
3.856915e+02 
5.756942e+02 
7.089297e+02 
1.002717e+03 
1.562880e+03 
1.323444e+03 
6.940359e+02 
3.926646e+02 
1.511965e+03 
3.348380e+02 
1.763632e+03 
1.760179e+02 
4.580620e+02 
7.646447e+01 
4.742966e+02 
1.574565e+03 
1.056796e+03 
1.096357e+02 
2.422991e+02 
1.107196e+03 
5.778690e+01 
2.295548e+03 
9.726203e+02 
7.317479e+01 
2.632264e+02 
7.408047e+01 
3.851561e+02 
7.208551e+02 
6.244604e+02 
1.242577e+03 
8.673183e+02 
9.137200e+02 
1.200304e+03 
6.279613e+02 
1.202868e+03 
1.349322e+03 
2.522723e+02 
6.459107e+02 
1.243769e+03 
1.756382e+03 
1.182440e+03 
1.400031e+03 
1.325363e+03 
1.173537e+03 
9.354597e+02 
1.085598e+03 
3.157004e+02 
6.546433e+02 
1.015855e+03 
3.896407e+02 
6.478769e+02 
2.221148e+02 
8.373824e+01 
3.760332e+00 
4.909571e+02 
1.765035e+02 
1.351127e+03 
5.864117e+02 
2.026215e+02 
2.371521e+02 
8.023015e+02 
3.216570e+02 
4.908079e+02 
1.187394e+03 
4.204284e+02 
1.913147e+02 
1.804214e+03 
1.304961e+03 
7.599915e+02 
1.368466e+03 
2.344164e+03 
5.491205e+02 
2.443643e+02 
3.825197e+03 
1.829150e+03 
4.689735e+02 
2.162373e+03 
2.614989e+02 
1.355477e+02 
7.236390e+02 
5.991434e+02 
3.273677e+02 
1.030356e+03 
7.722926e+01 
1.073028e+03 
9.160982e+02 
5.880590e+02 
6.299953e+02 
5.940955e+02 
8.705953e+02 
1.687924e+02 
3.938794e+02 
1.762800e+02 
1.124956e+02 
2.987820e+02 
8.166523e+01 
6.146140e+01 
1.114978e+02 
7.453579e+01 
3.457694e+02 
2.073465e+02 
9.951449e+01 
2.898652e+02 
1.038975e+02 
2.206798e+02 
8.363303e+01 
1.201786e+03 
1.152441e+03 
4.256544e+02 
4.365931e+02 
5.774224e+02 
9.159988e+01 
3.127597e+03 
3.115237e+03 
4.158844e+02 
5.174294e+02 
1.437889e+03 
1.018750e+02 
3.724666e+03 
3.161641e+03 
5.102681e+03 
8.070428e+03 
4.308578e+03 
5.065616e+03 
3.082426e+03 
6.284347e+02 
2.281153e+03 
5.099082e+02 
1.086016e+03 
8.829370e+01 
3.507401e+03 
8.519366e+02 
9.976096e+02 
3.318061e+03 
1.363390e+03 
3.845523e+02 
2.806938e+02 
9.721415e+02 
2.519458e+03 
1.855325e+03 
3.545460e+02 
1.699196e+03 
1.487914e+03 
5.238211e+02 
3.988038e+02 
3.504247e+02 
7.914967e+02 
1.007287e+03 
8.160502e+02 
5.591344e+02 
1.339436e+03 
6.834590e+02 
1.012292e+03 
1.410840e+02 
1.600424e+03 
3.856915e+02 
5.756942e+02 
7.089297e+02 
1.002717e+03 
1.562880e+03 
1.323444e+03 
6.940359e+02 
3.926646e+02 
1.511965e+03 
3.348380e+02 
1.763632e+03 
1.760179e+02 
4.580620e+02 
7.646447e+01 
4.742966e+02 
1.574565e+03 
1.056796e+03 
1.096357e+02 
2.422991e+02 
1.107196e+03 
5.778690e+01 
2.295548e+03 
9.726203e+02 
7.317479e+01 
2.632264e+02 
7.408047e+01 
3.851561e+02 
7.208551e+02 
6.244604e+02 
1.242577e+03 
8.673183e+02 
9.137200e+02 
1.200304e+03 
6.279613e+02 
1.202868e+03 
1.349322e+03 
2.522723e+02 
6.459107e+02 
1.243769e+03 
1.756382e+03 
1.182440e+03 
1.400031e+03 
1.325363e+03 
1.173537e+03 
9.354597e+02 
1.085598e+03 
3.157004e+02 
6.546433e+02 
1.015855e+03 
3.896407e+02 
6.478769e+02 
2.221148e+02 
8.373824e+01 
3.760332e+00 
4.909571e+02 
1.765035e+02 
1.351127e+03 
5.864117e+02 
2.026215e+02 
2.371521e+02 
8.023015e+02 
3.216570e+02 
4.908079e+02 
1.187394e+03 
4.204284e+02 
1.913147e+02 
1.804214e+03 
1.304961e+03 
7.599915e+02 
1.368466e+03 
2.344164e+03 
5.491205e+02 
2.443643e+02 
3.825197e+03 
1.829150e+03 
4.689735e+02 
