# vtk DataFile Version 2.0
fNorm
ASCII
DATASET UNSTRUCTURED_GRID

FIELD FieldData 1
TIME 1 1 double
0.10500000
POINTS 310 float
1.008481232831701e+00 2.009779553825359e+00 0.000000000000000e+00
1.024624362839185e+00 2.023336752117974e+00 0.000000000000000e+00
1.039678633550991e+00 2.038305682384645e+00 0.000000000000000e+00
1.056418731232224e+00 2.050137915003591e+00 0.000000000000000e+00
1.072956882189387e+00 2.061886919984157e+00 0.000000000000000e+00
1.091282842035013e+00 2.073028174996645e+00 0.000000000000000e+00
1.110120002911609e+00 2.082046235116515e+00 0.000000000000000e+00
1.128002309410904e+00 2.091252203257497e+00 0.000000000000000e+00
1.145587579259097e+00 2.101767308386070e+00 0.000000000000000e+00
1.162669316489062e+00 2.115211828139608e+00 0.000000000000000e+00
1.179816378213041e+00 2.125343173431935e+00 0.000000000000000e+00
1.198167470977890e+00 2.136700013786699e+00 0.000000000000000e+00
1.215832433698111e+00 2.146132879343558e+00 0.000000000000000e+00
1.233550595664081e+00 2.156719565986816e+00 0.000000000000000e+00
1.253324379259054e+00 2.164637829731038e+00 0.000000000000000e+00
1.272512708282361e+00 2.171341266164315e+00 0.000000000000000e+00
1.293030767945877e+00 2.175067775375476e+00 0.000000000000000e+00
1.313330300728594e+00 2.179524222702218e+00 0.000000000000000e+00
1.333168353674423e+00 2.185201118977955e+00 0.000000000000000e+00
1.353344368201643e+00 2.189148281376103e+00 0.000000000000000e+00
1.374443323845286e+00 2.191913574089434e+00 0.000000000000000e+00
1.395364933362805e+00 2.193941341563642e+00 0.000000000000000e+00
1.416026639040677e+00 2.197028734821381e+00 0.000000000000000e+00
1.436450803262304e+00 2.199982361776205e+00 0.000000000000000e+00
1.458024930940294e+00 2.201814526692680e+00 0.000000000000000e+00
1.478012855579333e+00 2.204031782416452e+00 0.000000000000000e+00
1.499434433220421e+00 2.207076018389020e+00 0.000000000000000e+00
1.519400565021296e+00 2.207779413788907e+00 0.000000000000000e+00
1.541061154095638e+00 2.209172421439880e+00 0.000000000000000e+00
1.561070552055378e+00 2.213373218804601e+00 0.000000000000000e+00
1.581264769978473e+00 2.219445428327973e+00 0.000000000000000e+00
1.602370282916367e+00 2.220395360031350e+00 0.000000000000000e+00
1.623210324022458e+00 2.224434617888785e+00 0.000000000000000e+00
1.642973397726540e+00 2.228611159567171e+00 0.000000000000000e+00
1.664107754007860e+00 2.231593067125594e+00 0.000000000000000e+00
1.683899979419349e+00 2.237443901877281e+00 0.000000000000000e+00
1.702949295848306e+00 2.247014316935137e+00 0.000000000000000e+00
1.723993319192788e+00 2.249478987076284e+00 0.000000000000000e+00
1.742322033475933e+00 2.259549065245087e+00 0.000000000000000e+00
1.761775279098809e+00 2.266279936020488e+00 0.000000000000000e+00
1.782810764919444e+00 2.270087931814233e+00 0.000000000000000e+00
1.802453570763986e+00 2.275884790520123e+00 0.000000000000000e+00
1.822806675334899e+00 2.281450993547982e+00 0.000000000000000e+00
1.843335295204821e+00 2.284895202538381e+00 0.000000000000000e+00
1.864656365931923e+00 2.285135175989987e+00 0.000000000000000e+00
1.885763609593999e+00 2.286143105489678e+00 0.000000000000000e+00
1.904440957744957e+00 2.293272612564927e+00 0.000000000000000e+00
1.925383956481790e+00 2.286965482189931e+00 0.000000000000000e+00
1.945652365058985e+00 2.281496494064478e+00 0.000000000000000e+00
1.965315720831955e+00 2.274008974422941e+00 0.000000000000000e+00
1.985189154336312e+00 2.266008459997270e+00 0.000000000000000e+00
2.003545071036879e+00 2.255044639487120e+00 0.000000000000000e+00
2.021560981172737e+00 2.245325561788552e+00 0.000000000000000e+00
2.042085851496804e+00 2.238501120439222e+00 0.000000000000000e+00
2.063278242518380e+00 2.233315536742397e+00 0.000000000000000e+00
2.081375082057795e+00 2.224306807178206e+00 0.000000000000000e+00
2.101440703329683e+00 2.218491981051482e+00 0.000000000000000e+00
2.123379710125616e+00 2.217544926110122e+00 0.000000000000000e+00
2.143969644829121e+00 2.214585306975858e+00 0.000000000000000e+00
2.164446978788037e+00 2.212060679718930e+00 0.000000000000000e+00
2.186125611535628e+00 2.210927089985415e+00 0.000000000000000e+00
2.207376785242334e+00 2.211035222166724e+00 0.000000000000000e+00
2.228869160094860e+00 2.210446463548295e+00 0.000000000000000e+00
2.249276665803839e+00 2.207366122589435e+00 0.000000000000000e+00
2.270600518888840e+00 2.206744820818906e+00 0.000000000000000e+00
2.291301002387103e+00 2.206228944998452e+00 0.000000000000000e+00
2.312166248362686e+00 2.203105919982731e+00 0.000000000000000e+00
2.332840864981968e+00 2.201315323671898e+00 0.000000000000000e+00
2.354080648663606e+00 2.199649219058826e+00 0.000000000000000e+00
2.374443704642280e+00 2.197740583645413e+00 0.000000000000000e+00
2.394972091975698e+00 2.195027523227139e+00 0.000000000000000e+00
2.415685381958804e+00 2.193436992596800e+00 0.000000000000000e+00
2.436538991829136e+00 2.193240611160809e+00 0.000000000000000e+00
2.457093519063418e+00 2.191630242747078e+00 0.000000000000000e+00
2.477545872067839e+00 2.188929357187159e+00 0.000000000000000e+00
2.498153964028820e+00 2.187819623955189e+00 0.000000000000000e+00
2.518563862865868e+00 2.187686700523774e+00 0.000000000000000e+00
2.539180534474409e+00 2.185783531594215e+00 0.000000000000000e+00
2.559685133780444e+00 2.183351438261140e+00 0.000000000000000e+00
2.579515716915965e+00 2.182556324333219e+00 0.000000000000000e+00
2.600456834492662e+00 2.182756031266682e+00 0.000000000000000e+00
2.619787322536455e+00 2.184384624863170e+00 0.000000000000000e+00
2.640363582153103e+00 2.184693234260735e+00 0.000000000000000e+00
2.661351566936312e+00 2.185155893749431e+00 0.000000000000000e+00
2.681061252813691e+00 2.187334615593901e+00 0.000000000000000e+00
2.702126089627442e+00 2.189536156285325e+00 0.000000000000000e+00
2.721404701581929e+00 2.192286436782568e+00 0.000000000000000e+00
2.742541841289872e+00 2.195745516269992e+00 0.000000000000000e+00
2.761349037339674e+00 2.199643796112445e+00 0.000000000000000e+00
2.782781193340731e+00 2.203057331126498e+00 0.000000000000000e+00
2.801802698030473e+00 2.206753703512312e+00 0.000000000000000e+00
2.822236311821167e+00 2.210994977845275e+00 0.000000000000000e+00
2.842165335450399e+00 2.217410502029047e+00 0.000000000000000e+00
2.860779544531320e+00 2.224087569991940e+00 0.000000000000000e+00
2.881317564800318e+00 2.229993291150433e+00 0.000000000000000e+00
2.900461665074916e+00 2.235309078102029e+00 0.000000000000000e+00
2.920923035040089e+00 2.240278519079330e+00 0.000000000000000e+00
2.941171744460130e+00 2.244856679058683e+00 0.000000000000000e+00
2.960054404478604e+00 2.250623867177892e+00 0.000000000000000e+00
2.979831899482762e+00 2.256505090729078e+00 0.000000000000000e+00
2.999694800334179e+00 2.261800728909990e+00 0.000000000000000e+00
3.019012004903650e+00 2.268048919731215e+00 0.000000000000000e+00
3.038803403659913e+00 2.273833224399008e+00 0.000000000000000e+00
3.058648623969305e+00 2.278441357509492e+00 0.000000000000000e+00
3.079842396544346e+00 2.282486328886894e+00 0.000000000000000e+00
3.099251943386860e+00 2.285889044599933e+00 0.000000000000000e+00
3.119682421657546e+00 2.288976167145059e+00 0.000000000000000e+00
3.140382350981364e+00 2.291853964796615e+00 0.000000000000000e+00
3.159635376399243e+00 2.295687426027802e+00 0.000000000000000e+00
3.180072670363980e+00 2.298916365432984e+00 0.000000000000000e+00
3.200275997082929e+00 2.302332497632230e+00 0.000000000000000e+00
3.219913629568040e+00 2.305457351045171e+00 0.000000000000000e+00
3.240951270756431e+00 2.308316420447911e+00 0.000000000000000e+00
3.260328061824397e+00 2.311454714040990e+00 0.000000000000000e+00
3.280454690847813e+00 2.313550508368867e+00 0.000000000000000e+00
3.300597419249624e+00 2.314184243097515e+00 0.000000000000000e+00
3.320997144339338e+00 2.314493645689967e+00 0.000000000000000e+00
3.341863138291797e+00 2.314330545428390e+00 0.000000000000000e+00
3.361655640849515e+00 2.312954620638909e+00 0.000000000000000e+00
3.382448861597964e+00 2.310522891968684e+00 0.000000000000000e+00
3.402066633557168e+00 2.307885497703035e+00 0.000000000000000e+00
3.422139792383188e+00 2.304508137018563e+00 0.000000000000000e+00
3.441621322357753e+00 2.300321797969594e+00 0.000000000000000e+00
3.461613196094610e+00 2.295484597990072e+00 0.000000000000000e+00
3.481171551368471e+00 2.290250524496821e+00 0.000000000000000e+00
3.500212319911503e+00 2.283920346536327e+00 0.000000000000000e+00
3.518952114683696e+00 2.277064999276662e+00 0.000000000000000e+00
3.537735446200671e+00 2.268833101707601e+00 0.000000000000000e+00
3.554550785806998e+00 2.259612183786240e+00 0.000000000000000e+00
3.572577656583353e+00 2.249663876094287e+00 0.000000000000000e+00
3.589034043187133e+00 2.238488917499495e+00 0.000000000000000e+00
3.605369324039368e+00 2.226319569593775e+00 0.000000000000000e+00
3.621112233100332e+00 2.213715364324512e+00 0.000000000000000e+00
3.636323551069655e+00 2.200692229004080e+00 0.000000000000000e+00
3.651399555392060e+00 2.186915097755657e+00 0.000000000000000e+00
3.665095009636642e+00 2.172935420755422e+00 0.000000000000000e+00
3.679550975279249e+00 2.158686878217432e+00 0.000000000000000e+00
3.693902284059981e+00 2.144837775962417e+00 0.000000000000000e+00
3.708340930266942e+00 2.130786315805785e+00 0.000000000000000e+00
3.722704181131705e+00 2.117504434758560e+00 0.000000000000000e+00
3.738636077627971e+00 2.104008672173934e+00 0.000000000000000e+00
3.754076267341663e+00 2.091573278180154e+00 0.000000000000000e+00
3.769826132910738e+00 2.079688274656132e+00 0.000000000000000e+00
3.787387513242911e+00 2.068990170463224e+00 0.000000000000000e+00
3.804994084935974e+00 2.059740829806720e+00 0.000000000000000e+00
3.822348148089932e+00 2.051628973725045e+00 0.000000000000000e+00
3.841804986902823e+00 2.045431121218589e+00 0.000000000000000e+00
3.861177544608826e+00 2.040618846344189e+00 0.000000000000000e+00
3.880705868175601e+00 2.036017954148508e+00 0.000000000000000e+00
3.900268988358034e+00 2.031665237917052e+00 0.000000000000000e+00
3.920296596043569e+00 2.027831367207495e+00 0.000000000000000e+00
3.938853145034463e+00 2.022082284204636e+00 0.000000000000000e+00
3.955957510649295e+00 2.013536434214205e+00 0.000000000000000e+00
3.976750144038816e+00 2.009289894051635e+00 0.000000000000000e+00
3.995163382277482e+00 2.003568362332810e+00 0.000000000000000e+00
1.008481232831705e+00 2.990220446174645e+00 0.000000000000000e+00
1.024624362839193e+00 2.976663247882025e+00 0.000000000000000e+00
1.039678633550994e+00 2.961694317615350e+00 0.000000000000000e+00
1.056418731232221e+00 2.949862084996404e+00 0.000000000000000e+00
1.072956882189386e+00 2.938113080015845e+00 0.000000000000000e+00
1.091282842035024e+00 2.926971825003367e+00 0.000000000000000e+00
1.110120002911618e+00 2.917953764883508e+00 0.000000000000000e+00
1.128002309410920e+00 2.908747796742524e+00 0.000000000000000e+00
1.145587579259109e+00 2.898232691613944e+00 0.000000000000000e+00
1.162669316489078e+00 2.884788171860410e+00 0.000000000000000e+00
1.179816378213060e+00 2.874656826568091e+00 0.000000000000000e+00
1.198167470977911e+00 2.863299986213329e+00 0.000000000000000e+00
1.215832433698130e+00 2.853867120656465e+00 0.000000000000000e+00
1.233550595664099e+00 2.843280434013200e+00 0.000000000000000e+00
1.253324379259068e+00 2.835362170268966e+00 0.000000000000000e+00
1.272512708282377e+00 2.828658733835696e+00 0.000000000000000e+00
1.293030767945890e+00 2.824932224624533e+00 0.000000000000000e+00
1.313330300728604e+00 2.820475777297772e+00 0.000000000000000e+00
1.333168353674434e+00 2.814798881022013e+00 0.000000000000000e+00
1.353344368201644e+00 2.810851718623850e+00 0.000000000000000e+00
1.374443323845284e+00 2.808086425910515e+00 0.000000000000000e+00
1.395364933362804e+00 2.806058658436318e+00 0.000000000000000e+00
1.416026639040684e+00 2.802971265178604e+00 0.000000000000000e+00
1.436450803262307e+00 2.800017638223793e+00 0.000000000000000e+00
1.458024930940297e+00 2.798185473307325e+00 0.000000000000000e+00
1.478012855579337e+00 2.795968217583552e+00 0.000000000000000e+00
1.499434433220422e+00 2.792923981610967e+00 0.000000000000000e+00
1.519400565021295e+00 2.792220586211069e+00 0.000000000000000e+00
1.541061154095638e+00 2.790827578560107e+00 0.000000000000000e+00
1.561070552055387e+00 2.786626781195406e+00 0.000000000000000e+00
1.581264769978486e+00 2.780554571672064e+00 0.000000000000000e+00
1.602370282916377e+00 2.779604639968703e+00 0.000000000000000e+00
1.623210324022477e+00 2.775565382111284e+00 0.000000000000000e+00
1.642973397726558e+00 2.771388840432909e+00 0.000000000000000e+00
1.664107754007877e+00 2.768406932874480e+00 0.000000000000000e+00
1.683899979419359e+00 2.762556098122782e+00 0.000000000000000e+00
1.702949295848316e+00 2.752985683064916e+00 0.000000000000000e+00
1.723993319192798e+00 2.750521012923777e+00 0.000000000000000e+00
1.742322033475936e+00 2.740450934754967e+00 0.000000000000000e+00
1.761775279098812e+00 2.733720063979559e+00 0.000000000000000e+00
1.782810764919449e+00 2.729912068185824e+00 0.000000000000000e+00
1.802453570763993e+00 2.724115209479939e+00 0.000000000000000e+00
1.822806675334910e+00 2.718549006452090e+00 0.000000000000000e+00
1.843335295204831e+00 2.715104797461697e+00 0.000000000000000e+00
1.864656365931936e+00 2.714864824010102e+00 0.000000000000000e+00
1.885763609594009e+00 2.713856894510422e+00 0.000000000000000e+00
1.904440957744971e+00 2.706727387435178e+00 0.000000000000000e+00
1.925383956481808e+00 2.713034517810164e+00 0.000000000000000e+00
1.945652365059002e+00 2.718503505935614e+00 0.000000000000000e+00
1.965315720831978e+00 2.725991025577147e+00 0.000000000000000e+00
1.985189154336340e+00 2.733991540002804e+00 0.000000000000000e+00
2.003545071036909e+00 2.744955360512948e+00 0.000000000000000e+00
2.021560981172766e+00 2.754674438211518e+00 0.000000000000000e+00
2.042085851496838e+00 2.761498879560837e+00 0.000000000000000e+00
2.063278242518416e+00 2.766684463257659e+00 0.000000000000000e+00
2.081375082057836e+00 2.775693192821844e+00 0.000000000000000e+00
2.101440703329721e+00 2.781508018948569e+00 0.000000000000000e+00
2.123379710125657e+00 2.782455073889928e+00 0.000000000000000e+00
2.143969644829162e+00 2.785414693024194e+00 0.000000000000000e+00
2.164446978788077e+00 2.787939320281129e+00 0.000000000000000e+00
2.186125611535672e+00 2.789072910014638e+00 0.000000000000000e+00
2.207376785242378e+00 2.788964777833329e+00 0.000000000000000e+00
2.228869160094904e+00 2.789553536451758e+00 0.000000000000000e+00
2.249276665803881e+00 2.792633877410619e+00 0.000000000000000e+00
2.270600518888881e+00 2.793255179181146e+00 0.000000000000000e+00
2.291301002387147e+00 2.793771055001594e+00 0.000000000000000e+00
2.312166248362729e+00 2.796894080017321e+00 0.000000000000000e+00
2.332840864982011e+00 2.798684676328151e+00 0.000000000000000e+00
2.354080648663651e+00 2.800350780941221e+00 0.000000000000000e+00
2.374443704642325e+00 2.802259416354634e+00 0.000000000000000e+00
2.394972091975744e+00 2.804972476772905e+00 0.000000000000000e+00
2.415685381958848e+00 2.806563007403239e+00 0.000000000000000e+00
2.436538991829181e+00 2.806759388839228e+00 0.000000000000000e+00
2.457093519063458e+00 2.808369757252964e+00 0.000000000000000e+00
2.477545872067884e+00 2.811070642812879e+00 0.000000000000000e+00
2.498153964028860e+00 2.812180376044843e+00 0.000000000000000e+00
2.518563862865909e+00 2.812313299476258e+00 0.000000000000000e+00
2.539180534474450e+00 2.814216468405821e+00 0.000000000000000e+00
2.559685133780482e+00 2.816648561738894e+00 0.000000000000000e+00
2.579515716916002e+00 2.817443675666817e+00 0.000000000000000e+00
2.600456834492697e+00 2.817243968733351e+00 0.000000000000000e+00
2.619787322536490e+00 2.815615375136865e+00 0.000000000000000e+00
2.640363582153137e+00 2.815306765739301e+00 0.000000000000000e+00
2.661351566936340e+00 2.814844106250606e+00 0.000000000000000e+00
2.681061252813716e+00 2.812665384406131e+00 0.000000000000000e+00
2.702126089627470e+00 2.810463843714707e+00 0.000000000000000e+00
2.721404701581951e+00 2.807713563217458e+00 0.000000000000000e+00
2.742541841289894e+00 2.804254483730032e+00 0.000000000000000e+00
2.761349037339696e+00 2.800356203887580e+00 0.000000000000000e+00
2.782781193340750e+00 2.796942668873529e+00 0.000000000000000e+00
2.801802698030490e+00 2.793246296487719e+00 0.000000000000000e+00
2.822236311821185e+00 2.789005022154757e+00 0.000000000000000e+00
2.842165335450415e+00 2.782589497970983e+00 0.000000000000000e+00
2.860779544531332e+00 2.775912430008088e+00 0.000000000000000e+00
2.881317564800331e+00 2.770006708849596e+00 0.000000000000000e+00
2.900461665074923e+00 2.764690921897996e+00 0.000000000000000e+00
2.920923035040097e+00 2.759721480920694e+00 0.000000000000000e+00
2.941171744460137e+00 2.755143320941349e+00 0.000000000000000e+00
2.960054404478616e+00 2.749376132822143e+00 0.000000000000000e+00
2.979831899482769e+00 2.743494909270958e+00 0.000000000000000e+00
2.999694800334189e+00 2.738199271090046e+00 0.000000000000000e+00
3.019012004903657e+00 2.731951080268819e+00 0.000000000000000e+00
3.038803403659919e+00 2.726166775601026e+00 0.000000000000000e+00
3.058648623969312e+00 2.721558642490535e+00 0.000000000000000e+00
3.079842396544346e+00 2.717513671113137e+00 0.000000000000000e+00
3.099251943386867e+00 2.714110955400098e+00 0.000000000000000e+00
3.119682421657542e+00 2.711023832854972e+00 0.000000000000000e+00
3.140382350981370e+00 2.708146035203413e+00 0.000000000000000e+00
3.159635376399236e+00 2.704312573972224e+00 0.000000000000000e+00
3.180072670363979e+00 2.701083634567043e+00 0.000000000000000e+00
3.200275997082930e+00 2.697667502367799e+00 0.000000000000000e+00
3.219913629568045e+00 2.694542648954860e+00 0.000000000000000e+00
3.240951270756430e+00 2.691683579552119e+00 0.000000000000000e+00
3.260328061824402e+00 2.688545285959045e+00 0.000000000000000e+00
3.280454690847816e+00 2.686449491631161e+00 0.000000000000000e+00
3.300597419249627e+00 2.685815756902513e+00 0.000000000000000e+00
3.320997144339344e+00 2.685506354310057e+00 0.000000000000000e+00
3.341863138291806e+00 2.685669454571637e+00 0.000000000000000e+00
3.361655640849523e+00 2.687045379361113e+00 0.000000000000000e+00
3.382448861597966e+00 2.689477108031336e+00 0.000000000000000e+00
3.402066633557176e+00 2.692114502296982e+00 0.000000000000000e+00
3.422139792383195e+00 2.695491862981456e+00 0.000000000000000e+00
3.441621322357759e+00 2.699678202030425e+00 0.000000000000000e+00
3.461613196094622e+00 2.704515402009945e+00 0.000000000000000e+00
3.481171551368477e+00 2.709749475503196e+00 0.000000000000000e+00
3.500212319911517e+00 2.716079653463686e+00 0.000000000000000e+00
3.518952114683706e+00 2.722935000723349e+00 0.000000000000000e+00
3.537735446200685e+00 2.731166898292416e+00 0.000000000000000e+00
3.554550785807005e+00 2.740387816213775e+00 0.000000000000000e+00
3.572577656583365e+00 2.750336123905734e+00 0.000000000000000e+00
3.589034043187136e+00 2.761511082500525e+00 0.000000000000000e+00
3.605369324039375e+00 2.773680430406249e+00 0.000000000000000e+00
3.621112233100337e+00 2.786284635675508e+00 0.000000000000000e+00
3.636323551069658e+00 2.799307770995942e+00 0.000000000000000e+00
3.651399555392062e+00 2.813084902244366e+00 0.000000000000000e+00
3.665095009636638e+00 2.827064579244602e+00 0.000000000000000e+00
3.679550975279248e+00 2.841313121782599e+00 0.000000000000000e+00
3.693902284059967e+00 2.855162224037612e+00 0.000000000000000e+00
3.708340930266934e+00 2.869213684194248e+00 0.000000000000000e+00
3.722704181131697e+00 2.882495565241469e+00 0.000000000000000e+00
3.738636077627959e+00 2.895991327826099e+00 0.000000000000000e+00
3.754076267341654e+00 2.908426721819882e+00 0.000000000000000e+00
3.769826132910720e+00 2.920311725343907e+00 0.000000000000000e+00
3.787387513242901e+00 2.931009829536822e+00 0.000000000000000e+00
3.804994084935953e+00 2.940259170193324e+00 0.000000000000000e+00
3.822348148089935e+00 2.948371026274995e+00 0.000000000000000e+00
3.841804986902813e+00 2.954568878781449e+00 0.000000000000000e+00
3.861177544608829e+00 2.959381153655844e+00 0.000000000000000e+00
3.880705868175597e+00 2.963982045851520e+00 0.000000000000000e+00
3.900268988358034e+00 2.968334762082971e+00 0.000000000000000e+00
3.920296596043569e+00 2.972168632792521e+00 0.000000000000000e+00
3.938853145034462e+00 2.977917715795375e+00 0.000000000000000e+00
3.955957510649292e+00 2.986463565785805e+00 0.000000000000000e+00
3.976750144038815e+00 2.990710105948371e+00 0.000000000000000e+00
3.995163382277481e+00 2.996431637667191e+00 0.000000000000000e+00

POINT_DATA   310
SCALARS fNorm double
LOOKUP_TABLE default

2.089581e+02 
1.589458e+03 
2.418845e+03 
3.389074e+02 
1.398249e+03 
1.843603e+03 
5.637628e+02 
6.657407e+02 
2.176079e+03 
1.616467e+03 
4.507975e+02 
1.018373e+03 
3.248134e+02 
2.596057e+03 
8.995480e+02 
1.873639e+03 
7.087912e+02 
9.859225e+02 
1.032325e+03 
1.009363e+03 
8.292191e+02 
6.254807e+02 
1.295665e+02 
1.105575e+03 
4.148445e+02 
2.048380e+02 
1.126256e+03 
2.492413e+02 
2.528374e+03 
1.041576e+03 
3.966486e+03 
2.101157e+03 
3.848120e+02 
1.099795e+03 
2.719094e+03 
2.763762e+03 
5.575467e+03 
5.836075e+03 
2.348942e+03 
2.397822e+03 
1.387460e+03 
2.067509e+02 
1.840656e+03 
1.731008e+03 
1.869491e+03 
4.525218e+03 
7.752592e+03 
2.436564e+03 
4.181306e+02 
2.323240e+02 
3.342853e+03 
6.054754e+02 
3.222880e+03 
1.794250e+03 
3.553304e+03 
2.260705e+03 
5.018690e+03 
1.922878e+03 
1.984001e+02 
1.161421e+03 
1.289879e+03 
6.657019e+02 
1.946515e+03 
1.814497e+03 
7.896141e+01 
1.814461e+03 
8.084384e+02 
5.207260e+01 
1.150356e+02 
4.161932e+02 
7.568233e+02 
9.526824e+02 
8.304117e+02 
5.839251e+02 
9.272537e+02 
5.226236e+02 
9.985184e+02 
3.608325e+02 
7.247058e+02 
4.762180e+02 
7.168978e+02 
5.146772e+02 
1.104537e+02 
1.005856e+03 
4.702419e+01 
3.412630e+02 
1.495332e+02 
4.785290e+02 
7.407556e+02 
6.579851e+02 
1.016134e+02 
1.682976e+03 
3.778367e+02 
8.426911e+02 
8.211203e+01 
3.858113e+02 
1.273116e+02 
6.155596e+02 
2.802057e+01 
3.223985e+02 
4.830534e+02 
3.351563e+02 
7.516183e+02 
6.560953e+02 
3.131497e+02 
1.593531e+02 
1.399216e+02 
3.841111e+02 
1.506645e+02 
7.611806e+01 
1.335950e+02 
2.313106e+02 
1.867366e+02 
3.892982e+02 
6.784822e+02 
2.456731e+02 
4.143894e+02 
5.804634e+02 
6.228608e+02 
1.371673e+02 
2.949461e+02 
3.417858e+02 
3.290749e+02 
2.917710e+02 
4.831732e+02 
2.673340e+02 
6.880871e+02 
1.932874e+02 
3.187594e+02 
6.892520e+02 
4.318804e+02 
3.216945e+02 
2.704060e+02 
3.415104e+02 
3.352186e+02 
5.565480e+01 
9.920332e+01 
9.961041e+00 
1.348110e+02 
4.537424e+02 
2.301336e+02 
2.027980e+02 
9.203633e+02 
6.056103e+02 
1.734922e+02 
5.857987e+02 
5.648819e+02 
1.517753e+02 
1.254484e+02 
2.907474e+02 
7.953612e+02 
1.580640e+02 
2.766610e+03 
1.601468e+03 
1.625635e+03 
2.089581e+02 
1.589458e+03 
2.418845e+03 
3.389074e+02 
1.398249e+03 
1.843603e+03 
5.637628e+02 
6.657407e+02 
2.176079e+03 
1.616467e+03 
4.507975e+02 
1.018373e+03 
3.248134e+02 
2.596057e+03 
8.995480e+02 
1.873639e+03 
7.087912e+02 
9.859225e+02 
1.032325e+03 
1.009363e+03 
8.292191e+02 
6.254807e+02 
1.295665e+02 
1.105575e+03 
4.148445e+02 
2.048380e+02 
1.126256e+03 
2.492413e+02 
2.528374e+03 
1.041576e+03 
3.966486e+03 
2.101157e+03 
3.848120e+02 
1.099795e+03 
2.719094e+03 
2.763762e+03 
5.575467e+03 
5.836075e+03 
2.348942e+03 
2.397822e+03 
1.387460e+03 
2.067509e+02 
1.840656e+03 
1.731008e+03 
1.869491e+03 
4.525218e+03 
7.752592e+03 
2.436564e+03 
4.181306e+02 
2.323240e+02 
3.342853e+03 
6.054754e+02 
3.222880e+03 
1.794250e+03 
3.553304e+03 
2.260705e+03 
5.018690e+03 
1.922878e+03 
1.984001e+02 
1.161421e+03 
1.289879e+03 
6.657019e+02 
1.946515e+03 
1.814497e+03 
7.896141e+01 
1.814461e+03 
8.084384e+02 
5.207260e+01 
1.150356e+02 
4.161932e+02 
7.568233e+02 
9.526824e+02 
8.304117e+02 
5.839251e+02 
9.272537e+02 
5.226236e+02 
9.985184e+02 
3.608325e+02 
7.247058e+02 
4.762180e+02 
7.168978e+02 
5.146772e+02 
1.104537e+02 
1.005856e+03 
4.702419e+01 
3.412630e+02 
1.495332e+02 
4.785290e+02 
7.407556e+02 
6.579851e+02 
1.016134e+02 
1.682976e+03 
3.778367e+02 
8.426911e+02 
8.211203e+01 
3.858113e+02 
1.273116e+02 
6.155596e+02 
2.802057e+01 
3.223985e+02 
4.830534e+02 
3.351563e+02 
7.516183e+02 
6.560953e+02 
3.131497e+02 
1.593531e+02 
1.399216e+02 
3.841111e+02 
1.506645e+02 
7.611806e+01 
1.335950e+02 
2.313106e+02 
1.867366e+02 
3.892982e+02 
6.784822e+02 
2.456731e+02 
4.143894e+02 
5.804634e+02 
6.228608e+02 
1.371673e+02 
2.949461e+02 
3.417858e+02 
3.290749e+02 
2.917710e+02 
4.831732e+02 
2.673340e+02 
6.880871e+02 
1.932874e+02 
3.187594e+02 
6.892520e+02 
4.318804e+02 
3.216945e+02 
2.704060e+02 
3.415104e+02 
3.352186e+02 
5.565480e+01 
9.920332e+01 
9.961041e+00 
1.348110e+02 
4.537424e+02 
2.301336e+02 
2.027980e+02 
9.203633e+02 
6.056103e+02 
1.734922e+02 
5.857987e+02 
5.648819e+02 
1.517753e+02 
1.254484e+02 
2.907474e+02 
7.953612e+02 
1.580640e+02 
2.766610e+03 
1.601468e+03 
1.625635e+03 
