# vtk DataFile Version 2.0
fNorm
ASCII
DATASET UNSTRUCTURED_GRID

FIELD FieldData 1
TIME 1 1 double
0.19000000
POINTS 310 float
1.014634228759586e+00 2.006825523801655e+00 0.000000000000000e+00
1.033865128222507e+00 2.015784060102351e+00 0.000000000000000e+00
1.053044299063319e+00 2.024032166265928e+00 0.000000000000000e+00
1.072544880576769e+00 2.032706808776359e+00 0.000000000000000e+00
1.091424585694573e+00 2.042117604741083e+00 0.000000000000000e+00
1.110952461871394e+00 2.050365091325609e+00 0.000000000000000e+00
1.130352568970278e+00 2.057980459232700e+00 0.000000000000000e+00
1.149679066048064e+00 2.066818015329363e+00 0.000000000000000e+00
1.169367370212257e+00 2.074424354941841e+00 0.000000000000000e+00
1.188550532630612e+00 2.083163785592263e+00 0.000000000000000e+00
1.208610096778677e+00 2.089536092334110e+00 0.000000000000000e+00
1.228037068633130e+00 2.097626978110344e+00 0.000000000000000e+00
1.248062008709057e+00 2.104137734853406e+00 0.000000000000000e+00
1.267553980355201e+00 2.111859088198443e+00 0.000000000000000e+00
1.287905876028200e+00 2.117990904439434e+00 0.000000000000000e+00
1.307407668812341e+00 2.124819175396802e+00 0.000000000000000e+00
1.327724415963943e+00 2.131056587226647e+00 0.000000000000000e+00
1.347671221891388e+00 2.136993524570845e+00 0.000000000000000e+00
1.367729839367394e+00 2.143346396988457e+00 0.000000000000000e+00
1.387975830238422e+00 2.148648944961295e+00 0.000000000000000e+00
1.408020278209196e+00 2.154453777797507e+00 0.000000000000000e+00
1.428307315040841e+00 2.159758934514150e+00 0.000000000000000e+00
1.448578558569647e+00 2.165126709531605e+00 0.000000000000000e+00
1.468706402595235e+00 2.169860100335516e+00 0.000000000000000e+00
1.489406192040094e+00 2.174638230275963e+00 0.000000000000000e+00
1.509188869082072e+00 2.179314579314228e+00 0.000000000000000e+00
1.530057555539253e+00 2.183855271481868e+00 0.000000000000000e+00
1.550002245608782e+00 2.188070516592181e+00 0.000000000000000e+00
1.570670080124890e+00 2.192464330790360e+00 0.000000000000000e+00
1.591031280568540e+00 2.196192402364322e+00 0.000000000000000e+00
1.610912827562627e+00 2.201708247499685e+00 0.000000000000000e+00
1.631902474249965e+00 2.204921457922376e+00 0.000000000000000e+00
1.652172911255773e+00 2.209399341029133e+00 0.000000000000000e+00
1.671889391223020e+00 2.214115346270876e+00 0.000000000000000e+00
1.692730899888938e+00 2.217723049302831e+00 0.000000000000000e+00
1.713041481467630e+00 2.221685438782770e+00 0.000000000000000e+00
1.732558582935760e+00 2.228448939215467e+00 0.000000000000000e+00
1.753533177371383e+00 2.229334607146957e+00 0.000000000000000e+00
1.773021087095113e+00 2.236364297734804e+00 0.000000000000000e+00
1.792839970062732e+00 2.241648490305049e+00 0.000000000000000e+00
1.813601288598819e+00 2.244991019152045e+00 0.000000000000000e+00
1.833219855765490e+00 2.250489242175701e+00 0.000000000000000e+00
1.853418365499058e+00 2.256133286303068e+00 0.000000000000000e+00
1.873146028240722e+00 2.261382782845127e+00 0.000000000000000e+00
1.893244830373388e+00 2.266920607948995e+00 0.000000000000000e+00
1.913537138014740e+00 2.270367754728480e+00 0.000000000000000e+00
1.932377885821100e+00 2.278893401981004e+00 0.000000000000000e+00
1.952998977145487e+00 2.281856535593175e+00 0.000000000000000e+00
1.972693995046024e+00 2.287173287428151e+00 0.000000000000000e+00
1.992821772004966e+00 2.292373230743547e+00 0.000000000000000e+00
2.012461377277103e+00 2.298708305694097e+00 0.000000000000000e+00
2.032651894759582e+00 2.302243465910114e+00 0.000000000000000e+00
2.052704114396531e+00 2.307229409133194e+00 0.000000000000000e+00
2.072544918667620e+00 2.312865647225745e+00 0.000000000000000e+00
2.091966580156195e+00 2.319775782264292e+00 0.000000000000000e+00
2.112183455064720e+00 2.322805522295736e+00 0.000000000000000e+00
2.132159583844737e+00 2.327751677997219e+00 0.000000000000000e+00
2.151247701694769e+00 2.335843506428828e+00 0.000000000000000e+00
2.171300027021310e+00 2.340359564569642e+00 0.000000000000000e+00
2.191053672673002e+00 2.344706163968040e+00 0.000000000000000e+00
2.210970592402770e+00 2.350951545382412e+00 0.000000000000000e+00
2.229910203669784e+00 2.358035358056347e+00 0.000000000000000e+00
2.250022497392278e+00 2.363808460830906e+00 0.000000000000000e+00
2.269800792413200e+00 2.366968905164949e+00 0.000000000000000e+00
2.289626841342030e+00 2.373239074741583e+00 0.000000000000000e+00
2.309135472304273e+00 2.379931825336459e+00 0.000000000000000e+00
2.329068144104966e+00 2.383782954427520e+00 0.000000000000000e+00
2.348830450995294e+00 2.388272467945824e+00 0.000000000000000e+00
2.369113383265684e+00 2.393835371315103e+00 0.000000000000000e+00
2.388327376527153e+00 2.399856202986765e+00 0.000000000000000e+00
2.408659967622078e+00 2.403758975702711e+00 0.000000000000000e+00
2.428892220131190e+00 2.407275274542013e+00 0.000000000000000e+00
2.448531394497252e+00 2.412140469584535e+00 0.000000000000000e+00
2.468773307998560e+00 2.416353348416307e+00 0.000000000000000e+00
2.489084716960048e+00 2.419478724672425e+00 0.000000000000000e+00
2.509486017395424e+00 2.422871898919757e+00 0.000000000000000e+00
2.529073535495215e+00 2.426632606265892e+00 0.000000000000000e+00
2.549715829240090e+00 2.429326416396753e+00 0.000000000000000e+00
2.570333401847253e+00 2.431674846208957e+00 0.000000000000000e+00
2.590088686712428e+00 2.434017114638523e+00 0.000000000000000e+00
2.611051738925798e+00 2.435966035494216e+00 0.000000000000000e+00
2.631036500196307e+00 2.438736401979314e+00 0.000000000000000e+00
2.651869430413417e+00 2.438508822746396e+00 0.000000000000000e+00
2.672247857028361e+00 2.437945214972898e+00 0.000000000000000e+00
2.692284275502200e+00 2.440335540514551e+00 0.000000000000000e+00
2.713561769440609e+00 2.440482350151542e+00 0.000000000000000e+00
2.733340599036809e+00 2.438994812415708e+00 0.000000000000000e+00
2.753981383400584e+00 2.438055364488351e+00 0.000000000000000e+00
2.775027402259693e+00 2.438235069574634e+00 0.000000000000000e+00
2.794660926596665e+00 2.435830103639580e+00 0.000000000000000e+00
2.815429894936308e+00 2.434618971391189e+00 0.000000000000000e+00
2.835751928388075e+00 2.432854299979616e+00 0.000000000000000e+00
2.855972148392364e+00 2.430895900896036e+00 0.000000000000000e+00
2.876618315166092e+00 2.428408320790247e+00 0.000000000000000e+00
2.896347357800956e+00 2.424774688487305e+00 0.000000000000000e+00
2.916516729826254e+00 2.422115734006373e+00 0.000000000000000e+00
2.937129071257311e+00 2.418382397486556e+00 0.000000000000000e+00
2.955622759388843e+00 2.412998416291283e+00 0.000000000000000e+00
2.976038055885483e+00 2.407745678402949e+00 0.000000000000000e+00
2.994947280013602e+00 2.402069650468135e+00 0.000000000000000e+00
3.014235965958299e+00 2.396028892717224e+00 0.000000000000000e+00
3.033401668783719e+00 2.387984565113281e+00 0.000000000000000e+00
3.049968974890774e+00 2.376981779496720e+00 0.000000000000000e+00
3.067800582272393e+00 2.365956712670105e+00 0.000000000000000e+00
3.084759410740573e+00 2.354549288868314e+00 0.000000000000000e+00
3.100777669402769e+00 2.343652380585347e+00 0.000000000000000e+00
3.117316636216156e+00 2.331098865588926e+00 0.000000000000000e+00
3.132100525121878e+00 2.316415562980633e+00 0.000000000000000e+00
3.147654480476455e+00 2.303422892204579e+00 0.000000000000000e+00
3.162804376453248e+00 2.290412429720107e+00 0.000000000000000e+00
3.178016747236678e+00 2.276698297227080e+00 0.000000000000000e+00
3.193348258332142e+00 2.263663713341091e+00 0.000000000000000e+00
3.208009077662268e+00 2.249007240411777e+00 0.000000000000000e+00
3.223265943234371e+00 2.235864010813216e+00 0.000000000000000e+00
3.238702777723676e+00 2.222965722074831e+00 0.000000000000000e+00
3.254237196383428e+00 2.209481410591430e+00 0.000000000000000e+00
3.270289293671846e+00 2.197124472988677e+00 0.000000000000000e+00
3.286985783241724e+00 2.184953470407049e+00 0.000000000000000e+00
3.303366430575841e+00 2.174350781248443e+00 0.000000000000000e+00
3.320286934169504e+00 2.162361789643167e+00 0.000000000000000e+00
3.336884586790087e+00 2.150353544396198e+00 0.000000000000000e+00
3.354156496179318e+00 2.139935475803924e+00 0.000000000000000e+00
3.371815637787395e+00 2.130201437784307e+00 0.000000000000000e+00
3.389383644149850e+00 2.120590574665838e+00 0.000000000000000e+00
3.407207437280654e+00 2.110153516256705e+00 0.000000000000000e+00
3.425408121247283e+00 2.100784248066655e+00 0.000000000000000e+00
3.443622368866345e+00 2.092912779460452e+00 0.000000000000000e+00
3.462273022820065e+00 2.083971234333313e+00 0.000000000000000e+00
3.480488350614103e+00 2.074799260149620e+00 0.000000000000000e+00
3.499741672301990e+00 2.069008178058020e+00 0.000000000000000e+00
3.518299389164409e+00 2.061775293135429e+00 0.000000000000000e+00
3.537949527890484e+00 2.053882196229641e+00 0.000000000000000e+00
3.555877783765671e+00 2.046161711846613e+00 0.000000000000000e+00
3.575504675883117e+00 2.039453680311602e+00 0.000000000000000e+00
3.595186084129603e+00 2.036122418056382e+00 0.000000000000000e+00
3.614501160931380e+00 2.029700106335341e+00 0.000000000000000e+00
3.634354496435144e+00 2.024787114066728e+00 0.000000000000000e+00
3.653971693968090e+00 2.021556951698301e+00 0.000000000000000e+00
3.674202223839203e+00 2.017836105799255e+00 0.000000000000000e+00
3.694016228659045e+00 2.014556833415573e+00 0.000000000000000e+00
3.714082890770047e+00 2.011610032032538e+00 0.000000000000000e+00
3.734148517326636e+00 2.010009047357763e+00 0.000000000000000e+00
3.754340921348513e+00 2.007748702316993e+00 0.000000000000000e+00
3.774172587686121e+00 2.005477254194123e+00 0.000000000000000e+00
3.794667071294186e+00 2.004854549117172e+00 0.000000000000000e+00
3.814441411370680e+00 2.003562666654582e+00 0.000000000000000e+00
3.834478181954629e+00 2.001174458859315e+00 0.000000000000000e+00
3.854802969409092e+00 2.002325558073993e+00 0.000000000000000e+00
3.875107581885383e+00 2.002185556851792e+00 0.000000000000000e+00
3.894410425487475e+00 1.999346115479950e+00 0.000000000000000e+00
3.914620907716740e+00 1.997684127766529e+00 0.000000000000000e+00
3.935114265129399e+00 1.999704948212764e+00 0.000000000000000e+00
3.954778468390683e+00 2.000974621077777e+00 0.000000000000000e+00
3.974719294969577e+00 1.996902531250117e+00 0.000000000000000e+00
3.994468325729634e+00 2.000890306820414e+00 0.000000000000000e+00
1.014634228759588e+00 2.993174476198343e+00 0.000000000000000e+00
1.033865128222510e+00 2.984215939897644e+00 0.000000000000000e+00
1.053044299063320e+00 2.975967833734068e+00 0.000000000000000e+00
1.072544880576771e+00 2.967293191223634e+00 0.000000000000000e+00
1.091424585694573e+00 2.957882395258910e+00 0.000000000000000e+00
1.110952461871398e+00 2.949634908674387e+00 0.000000000000000e+00
1.130352568970277e+00 2.942019540767294e+00 0.000000000000000e+00
1.149679066048067e+00 2.933181984670631e+00 0.000000000000000e+00
1.169367370212260e+00 2.925575645058161e+00 0.000000000000000e+00
1.188550532630617e+00 2.916836214407740e+00 0.000000000000000e+00
1.208610096778683e+00 2.910463907665895e+00 0.000000000000000e+00
1.228037068633136e+00 2.902373021889663e+00 0.000000000000000e+00
1.248062008709069e+00 2.895862265146607e+00 0.000000000000000e+00
1.267553980355212e+00 2.888140911801577e+00 0.000000000000000e+00
1.287905876028212e+00 2.882009095560580e+00 0.000000000000000e+00
1.307407668812354e+00 2.875180824603222e+00 0.000000000000000e+00
1.327724415963960e+00 2.868943412773381e+00 0.000000000000000e+00
1.347671221891406e+00 2.863006475429187e+00 0.000000000000000e+00
1.367729839367413e+00 2.856653603011578e+00 0.000000000000000e+00
1.387975830238440e+00 2.851351055038742e+00 0.000000000000000e+00
1.408020278209222e+00 2.845546222202537e+00 0.000000000000000e+00
1.428307315040857e+00 2.840241065485889e+00 0.000000000000000e+00
1.448578558569674e+00 2.834873290468446e+00 0.000000000000000e+00
1.468706402595257e+00 2.830139899664533e+00 0.000000000000000e+00
1.489406192040117e+00 2.825361769724085e+00 0.000000000000000e+00
1.509188869082099e+00 2.820685420685825e+00 0.000000000000000e+00
1.530057555539278e+00 2.816144728518184e+00 0.000000000000000e+00
1.550002245608809e+00 2.811929483407871e+00 0.000000000000000e+00
1.570670080124916e+00 2.807535669209692e+00 0.000000000000000e+00
1.591031280568566e+00 2.803807597635727e+00 0.000000000000000e+00
1.610912827562654e+00 2.798291752500365e+00 0.000000000000000e+00
1.631902474249990e+00 2.795078542077670e+00 0.000000000000000e+00
1.652172911255799e+00 2.790600658970915e+00 0.000000000000000e+00
1.671889391223045e+00 2.785884653729171e+00 0.000000000000000e+00
1.692730899888964e+00 2.782276950697214e+00 0.000000000000000e+00
1.713041481467655e+00 2.778314561217275e+00 0.000000000000000e+00
1.732558582935784e+00 2.771551060784577e+00 0.000000000000000e+00
1.753533177371408e+00 2.770665392853091e+00 0.000000000000000e+00
1.773021087095135e+00 2.763635702265239e+00 0.000000000000000e+00
1.792839970062757e+00 2.758351509694998e+00 0.000000000000000e+00
1.813601288598844e+00 2.755008980848006e+00 0.000000000000000e+00
1.833219855765513e+00 2.749510757824348e+00 0.000000000000000e+00
1.853418365499081e+00 2.743866713696984e+00 0.000000000000000e+00
1.873146028240745e+00 2.738617217154925e+00 0.000000000000000e+00
1.893244830373410e+00 2.733079392051056e+00 0.000000000000000e+00
1.913537138014764e+00 2.729632245271578e+00 0.000000000000000e+00
1.932377885821121e+00 2.721106598019048e+00 0.000000000000000e+00
1.952998977145507e+00 2.718143464406872e+00 0.000000000000000e+00
1.972693995046046e+00 2.712826712571903e+00 0.000000000000000e+00
1.992821772004987e+00 2.707626769256509e+00 0.000000000000000e+00
2.012461377277123e+00 2.701291694305953e+00 0.000000000000000e+00
2.032651894759602e+00 2.697756534089936e+00 0.000000000000000e+00
2.052704114396550e+00 2.692770590866856e+00 0.000000000000000e+00
2.072544918667639e+00 2.687134352774302e+00 0.000000000000000e+00
2.091966580156215e+00 2.680224217735761e+00 0.000000000000000e+00
2.112183455064739e+00 2.677194477704312e+00 0.000000000000000e+00
2.132159583844756e+00 2.672248322002825e+00 0.000000000000000e+00
2.151247701694788e+00 2.664156493571220e+00 0.000000000000000e+00
2.171300027021324e+00 2.659640435430394e+00 0.000000000000000e+00
2.191053672673021e+00 2.655293836032001e+00 0.000000000000000e+00
2.210970592402783e+00 2.649048454617617e+00 0.000000000000000e+00
2.229910203669801e+00 2.641964641943682e+00 0.000000000000000e+00
2.250022497392294e+00 2.636191539169129e+00 0.000000000000000e+00
2.269800792413216e+00 2.633031094835075e+00 0.000000000000000e+00
2.289626841342042e+00 2.626760925258431e+00 0.000000000000000e+00
2.309135472304286e+00 2.620068174663558e+00 0.000000000000000e+00
2.329068144104977e+00 2.616217045572502e+00 0.000000000000000e+00
2.348830450995306e+00 2.611727532054192e+00 0.000000000000000e+00
2.369113383265696e+00 2.606164628684911e+00 0.000000000000000e+00
2.388327376527160e+00 2.600143797013245e+00 0.000000000000000e+00
2.408659967622091e+00 2.596241024297298e+00 0.000000000000000e+00
2.428892220131200e+00 2.592724725457996e+00 0.000000000000000e+00
2.448531394497262e+00 2.587859530415466e+00 0.000000000000000e+00
2.468773307998569e+00 2.583646651583704e+00 0.000000000000000e+00
2.489084716960062e+00 2.580521275327580e+00 0.000000000000000e+00
2.509486017395430e+00 2.577128101080246e+00 0.000000000000000e+00
2.529073535495229e+00 2.573367393734115e+00 0.000000000000000e+00
2.549715829240100e+00 2.570673583603258e+00 0.000000000000000e+00
2.570333401847266e+00 2.568325153791055e+00 0.000000000000000e+00
2.590088686712442e+00 2.565982885361490e+00 0.000000000000000e+00
2.611051738925808e+00 2.564033964505798e+00 0.000000000000000e+00
2.631036500196320e+00 2.561263598020703e+00 0.000000000000000e+00
2.651869430413429e+00 2.561491177253633e+00 0.000000000000000e+00
2.672247857028375e+00 2.562054785027125e+00 0.000000000000000e+00
2.692284275502212e+00 2.559664459485472e+00 0.000000000000000e+00
2.713561769440623e+00 2.559517649848482e+00 0.000000000000000e+00
2.733340599036821e+00 2.561005187584326e+00 0.000000000000000e+00
2.753981383400597e+00 2.561944635511682e+00 0.000000000000000e+00
2.775027402259704e+00 2.561764930425395e+00 0.000000000000000e+00
2.794660926596682e+00 2.564169896360438e+00 0.000000000000000e+00
2.815429894936318e+00 2.565381028608835e+00 0.000000000000000e+00
2.835751928388091e+00 2.567145700020400e+00 0.000000000000000e+00
2.855972148392384e+00 2.569104099103972e+00 0.000000000000000e+00
2.876618315166103e+00 2.571591679209766e+00 0.000000000000000e+00
2.896347357800976e+00 2.575225311512704e+00 0.000000000000000e+00
2.916516729826269e+00 2.577884265993629e+00 0.000000000000000e+00
2.937129071257330e+00 2.581617602513448e+00 0.000000000000000e+00
2.955622759388852e+00 2.587001583708730e+00 0.000000000000000e+00
2.976038055885494e+00 2.592254321597073e+00 0.000000000000000e+00
2.994947280013610e+00 2.597930349531883e+00 0.000000000000000e+00
3.014235965958310e+00 2.603971107282791e+00 0.000000000000000e+00
3.033401668783727e+00 2.612015434886739e+00 0.000000000000000e+00
3.049968974890781e+00 2.623018220503301e+00 0.000000000000000e+00
3.067800582272401e+00 2.634043287329914e+00 0.000000000000000e+00
3.084759410740578e+00 2.645450711131707e+00 0.000000000000000e+00
3.100777669402778e+00 2.656347619414674e+00 0.000000000000000e+00
3.117316636216159e+00 2.668901134411102e+00 0.000000000000000e+00
3.132100525121879e+00 2.683584437019399e+00 0.000000000000000e+00
3.147654480476451e+00 2.696577107795444e+00 0.000000000000000e+00
3.162804376453241e+00 2.709587570279925e+00 0.000000000000000e+00
3.178016747236662e+00 2.723301702772967e+00 0.000000000000000e+00
3.193348258332118e+00 2.736336286658966e+00 0.000000000000000e+00
3.208009077662242e+00 2.750992759588283e+00 0.000000000000000e+00
3.223265943234344e+00 2.764135989186829e+00 0.000000000000000e+00
3.238702777723655e+00 2.777034277925211e+00 0.000000000000000e+00
3.254237196383400e+00 2.790518589408625e+00 0.000000000000000e+00
3.270289293671826e+00 2.802875527011373e+00 0.000000000000000e+00
3.286985783241701e+00 2.815046529592995e+00 0.000000000000000e+00
3.303366430575824e+00 2.825649218751604e+00 0.000000000000000e+00
3.320286934169480e+00 2.837638210356882e+00 0.000000000000000e+00
3.336884586790070e+00 2.849646455603841e+00 0.000000000000000e+00
3.354156496179303e+00 2.860064524196114e+00 0.000000000000000e+00
3.371815637787379e+00 2.869798562215726e+00 0.000000000000000e+00
3.389383644149839e+00 2.879409425334202e+00 0.000000000000000e+00
3.407207437280635e+00 2.889846483743334e+00 0.000000000000000e+00
3.425408121247269e+00 2.899215751933385e+00 0.000000000000000e+00
3.443622368866323e+00 2.907087220539593e+00 0.000000000000000e+00
3.462273022820042e+00 2.916028765666742e+00 0.000000000000000e+00
3.480488350614084e+00 2.925200739850427e+00 0.000000000000000e+00
3.499741672301970e+00 2.930991821942015e+00 0.000000000000000e+00
3.518299389164395e+00 2.938224706864604e+00 0.000000000000000e+00
3.537949527890467e+00 2.946117803770389e+00 0.000000000000000e+00
3.555877783765659e+00 2.953838288153419e+00 0.000000000000000e+00
3.575504675883104e+00 2.960546319688420e+00 0.000000000000000e+00
3.595186084129591e+00 2.963877581943648e+00 0.000000000000000e+00
3.614501160931364e+00 2.970299893664694e+00 0.000000000000000e+00
3.634354496435132e+00 2.975212885933308e+00 0.000000000000000e+00
3.653971693968074e+00 2.978443048301729e+00 0.000000000000000e+00
3.674202223839193e+00 2.982163894200776e+00 0.000000000000000e+00
3.694016228659034e+00 2.985443166584448e+00 0.000000000000000e+00
3.714082890770031e+00 2.988389967967489e+00 0.000000000000000e+00
3.734148517326628e+00 2.989990952642270e+00 0.000000000000000e+00
3.754340921348498e+00 2.992251297683040e+00 0.000000000000000e+00
3.774172587686116e+00 2.994522745805902e+00 0.000000000000000e+00
3.794667071294174e+00 2.995145450882848e+00 0.000000000000000e+00
3.814441411370675e+00 2.996437333345426e+00 0.000000000000000e+00
3.834478181954617e+00 2.998825541140702e+00 0.000000000000000e+00
3.854802969409086e+00 2.997674441926030e+00 0.000000000000000e+00
3.875107581885374e+00 2.997814443148233e+00 0.000000000000000e+00
3.894410425487472e+00 3.000653884520065e+00 0.000000000000000e+00
3.914620907716734e+00 3.002315872233480e+00 0.000000000000000e+00
3.935114265129396e+00 3.000295051787254e+00 0.000000000000000e+00
3.954778468390676e+00 2.999025378922231e+00 0.000000000000000e+00
3.974719294969575e+00 3.003097468749881e+00 0.000000000000000e+00
3.994468325729632e+00 2.999109693179586e+00 0.000000000000000e+00

POINT_DATA   310
SCALARS fNorm double
LOOKUP_TABLE default

4.295187e+01 
5.177366e+02 
2.283374e+02 
7.714652e+02 
1.092942e+03 
4.408460e+02 
8.407621e+02 
1.018880e+03 
8.515114e+02 
1.929450e+03 
1.275436e+03 
1.241093e+03 
9.034371e+02 
1.397295e+03 
6.248250e+02 
6.131247e+02 
1.281704e+02 
2.271863e+02 
7.600003e+02 
3.438429e+02 
3.622222e+02 
3.071702e+01 
3.886396e+02 
7.919788e+01 
6.007617e+01 
2.487372e+02 
1.032574e+02 
7.993699e+00 
3.803254e+02 
1.016984e+03 
1.735684e+03 
9.772338e+02 
2.060353e+02 
8.361324e+02 
3.832360e+02 
1.605693e+03 
3.853900e+03 
4.166224e+03 
8.879514e+02 
1.369990e+03 
1.432462e+03 
6.945750e+01 
1.295284e+02 
6.294922e+01 
1.136203e+03 
2.908917e+03 
3.542830e+03 
1.254946e+03 
1.915135e+01 
6.646829e+02 
1.553160e+03 
7.484278e+02 
4.812630e+02 
6.861806e+02 
2.074736e+03 
1.031285e+03 
1.951191e+03 
2.153683e+03 
1.191863e+02 
1.044122e+03 
6.290586e+02 
9.307585e+02 
1.265622e+03 
1.438523e+03 
3.158003e+02 
1.468425e+03 
2.156593e+02 
5.627872e+02 
3.843707e+02 
1.171730e+03 
2.249676e+02 
6.816211e+02 
3.806018e+02 
6.499357e+02 
1.443267e+02 
1.736351e+02 
6.046814e+02 
2.716306e+02 
2.766320e+01 
2.476652e+02 
4.488798e+02 
1.639875e+03 
2.070883e+02 
1.196785e+03 
1.431923e+03 
9.921712e+02 
2.289934e+02 
7.188196e+02 
1.216311e+03 
4.398824e+02 
3.028443e+02 
1.194794e+02 
3.055434e+02 
6.286362e+02 
3.597451e+02 
6.068415e+02 
7.719427e+02 
2.646113e+02 
4.258839e+02 
7.352773e+01 
1.053110e+03 
1.790366e+03 
3.823214e+02 
4.828692e+02 
9.997805e+01 
2.728364e+02 
1.869480e+03 
9.161662e+02 
6.008688e+01 
1.731948e+02 
1.712759e+02 
7.765150e+02 
6.961327e+02 
1.305353e+02 
1.670565e+02 
6.001475e+02 
3.115991e+02 
4.151949e+02 
3.465145e+02 
7.695939e+01 
8.064312e+02 
3.468143e+02 
4.499704e+01 
2.347188e+02 
6.537886e+02 
5.350551e+02 
3.417479e+02 
1.103217e+02 
1.389688e+03 
3.643367e+02 
2.377439e+02 
9.860894e+01 
6.001390e+02 
1.491448e+03 
9.702972e+02 
7.246566e+02 
6.368429e+02 
9.333192e+01 
1.697535e+02 
1.944558e+02 
5.177519e+02 
2.124261e+02 
2.044130e+01 
6.720985e+02 
2.561419e+02 
2.210027e+02 
1.435309e+03 
5.637559e+02 
7.008748e+02 
3.238467e+02 
1.857697e+03 
2.755675e+02 
1.349660e+03 
3.133437e+03 
1.877234e+03 
4.295187e+01 
5.177366e+02 
2.283374e+02 
7.714652e+02 
1.092942e+03 
4.408460e+02 
8.407621e+02 
1.018880e+03 
8.515114e+02 
1.929450e+03 
1.275436e+03 
1.241093e+03 
9.034371e+02 
1.397295e+03 
6.248250e+02 
6.131247e+02 
1.281704e+02 
2.271863e+02 
7.600003e+02 
3.438429e+02 
3.622222e+02 
3.071702e+01 
3.886396e+02 
7.919788e+01 
6.007617e+01 
2.487372e+02 
1.032574e+02 
7.993699e+00 
3.803254e+02 
1.016984e+03 
1.735684e+03 
9.772338e+02 
2.060353e+02 
8.361324e+02 
3.832360e+02 
1.605693e+03 
3.853900e+03 
4.166224e+03 
8.879514e+02 
1.369990e+03 
1.432462e+03 
6.945750e+01 
1.295284e+02 
6.294922e+01 
1.136203e+03 
2.908917e+03 
3.542830e+03 
1.254946e+03 
1.915135e+01 
6.646829e+02 
1.553160e+03 
7.484278e+02 
4.812630e+02 
6.861806e+02 
2.074736e+03 
1.031285e+03 
1.951191e+03 
2.153683e+03 
1.191863e+02 
1.044122e+03 
6.290586e+02 
9.307585e+02 
1.265622e+03 
1.438523e+03 
3.158003e+02 
1.468425e+03 
2.156593e+02 
5.627872e+02 
3.843707e+02 
1.171730e+03 
2.249676e+02 
6.816211e+02 
3.806018e+02 
6.499357e+02 
1.443267e+02 
1.736351e+02 
6.046814e+02 
2.716306e+02 
2.766320e+01 
2.476652e+02 
4.488798e+02 
1.639875e+03 
2.070883e+02 
1.196785e+03 
1.431923e+03 
9.921712e+02 
2.289934e+02 
7.188196e+02 
1.216311e+03 
4.398824e+02 
3.028443e+02 
1.194794e+02 
3.055434e+02 
6.286362e+02 
3.597451e+02 
6.068415e+02 
7.719427e+02 
2.646113e+02 
4.258839e+02 
7.352773e+01 
1.053110e+03 
1.790366e+03 
3.823214e+02 
4.828692e+02 
9.997805e+01 
2.728364e+02 
1.869480e+03 
9.161662e+02 
6.008688e+01 
1.731948e+02 
1.712759e+02 
7.765150e+02 
6.961327e+02 
1.305353e+02 
1.670565e+02 
6.001475e+02 
3.115991e+02 
4.151949e+02 
3.465145e+02 
7.695939e+01 
8.064312e+02 
3.468143e+02 
4.499704e+01 
2.347188e+02 
6.537886e+02 
5.350551e+02 
3.417479e+02 
1.103217e+02 
1.389688e+03 
3.643367e+02 
2.377439e+02 
9.860894e+01 
6.001390e+02 
1.491448e+03 
9.702972e+02 
7.246566e+02 
6.368429e+02 
9.333192e+01 
1.697535e+02 
1.944558e+02 
5.177519e+02 
2.124261e+02 
2.044130e+01 
6.720985e+02 
2.561419e+02 
2.210027e+02 
1.435309e+03 
5.637559e+02 
7.008748e+02 
3.238467e+02 
1.857697e+03 
2.755675e+02 
1.349660e+03 
3.133437e+03 
1.877234e+03 
