# vtk DataFile Version 2.0
fNorm
ASCII
DATASET UNSTRUCTURED_GRID

FIELD FieldData 1
TIME 1 1 double
0.06000000
POINTS 310 float
1.007495908050915e+00 2.006731975455410e+00 0.000000000000000e+00
1.025653738821066e+00 2.015753265041414e+00 0.000000000000000e+00
1.042944108203388e+00 2.028033714202911e+00 0.000000000000000e+00
1.061860780332553e+00 2.035697160084616e+00 0.000000000000000e+00
1.080804544369953e+00 2.044236952862357e+00 0.000000000000000e+00
1.100305552459369e+00 2.052151615825903e+00 0.000000000000000e+00
1.118799583843168e+00 2.059562088380566e+00 0.000000000000000e+00
1.139263846808745e+00 2.065418848293624e+00 0.000000000000000e+00
1.158386934522480e+00 2.070012545827769e+00 0.000000000000000e+00
1.179274330157124e+00 2.075673868674080e+00 0.000000000000000e+00
1.199369665055840e+00 2.079819042765292e+00 0.000000000000000e+00
1.219583846138776e+00 2.084338181722597e+00 0.000000000000000e+00
1.239307489250915e+00 2.088603745107106e+00 0.000000000000000e+00
1.259056330908490e+00 2.093915009611481e+00 0.000000000000000e+00
1.279901147629361e+00 2.098103751907068e+00 0.000000000000000e+00
1.299075633291338e+00 2.104361307000263e+00 0.000000000000000e+00
1.318791843573986e+00 2.111222446104718e+00 0.000000000000000e+00
1.338280258528736e+00 2.117969913294908e+00 0.000000000000000e+00
1.357230718507935e+00 2.125987921016923e+00 0.000000000000000e+00
1.375999971728875e+00 2.134945694132525e+00 0.000000000000000e+00
1.394489528838483e+00 2.143499578334182e+00 0.000000000000000e+00
1.413131736484403e+00 2.152743115924753e+00 0.000000000000000e+00
1.431104600544523e+00 2.162820891967014e+00 0.000000000000000e+00
1.449204622385347e+00 2.172483677723521e+00 0.000000000000000e+00
1.469528994733466e+00 2.181223579769977e+00 0.000000000000000e+00
1.487313865240384e+00 2.190010609190971e+00 0.000000000000000e+00
1.505964444403835e+00 2.200483385933048e+00 0.000000000000000e+00
1.524795541557730e+00 2.207844365736849e+00 0.000000000000000e+00
1.544788955264142e+00 2.216384378492495e+00 0.000000000000000e+00
1.562569169923597e+00 2.225844944695862e+00 0.000000000000000e+00
1.582503716871451e+00 2.235274849113567e+00 0.000000000000000e+00
1.602915018916112e+00 2.239383112644654e+00 0.000000000000000e+00
1.622604049109624e+00 2.247965680326033e+00 0.000000000000000e+00
1.641569417715464e+00 2.254520526658585e+00 0.000000000000000e+00
1.664167878239106e+00 2.257810887835447e+00 0.000000000000000e+00
1.684166018992445e+00 2.262606406079726e+00 0.000000000000000e+00
1.704823197698630e+00 2.268880519832360e+00 0.000000000000000e+00
1.725875360780580e+00 2.265007166907371e+00 0.000000000000000e+00
1.747768302684164e+00 2.269487865552023e+00 0.000000000000000e+00
1.768633538384059e+00 2.271170878375253e+00 0.000000000000000e+00
1.791126194416021e+00 2.269312359722313e+00 0.000000000000000e+00
1.811848442510928e+00 2.271401606001364e+00 0.000000000000000e+00
1.834269168380237e+00 2.272869118045510e+00 0.000000000000000e+00
1.855519824188140e+00 2.272859991584638e+00 0.000000000000000e+00
1.876662658464039e+00 2.271370608920446e+00 0.000000000000000e+00
1.899318522879957e+00 2.270692558777619e+00 0.000000000000000e+00
1.920249261884480e+00 2.276324713537029e+00 0.000000000000000e+00
1.941448948615909e+00 2.271138922659256e+00 0.000000000000000e+00
1.963582548179681e+00 2.271887422016581e+00 0.000000000000000e+00
1.985015755705186e+00 2.273578248120585e+00 0.000000000000000e+00
2.007191024872551e+00 2.276243999498069e+00 0.000000000000000e+00
2.028993754250576e+00 2.275559799095669e+00 0.000000000000000e+00
2.051039666380685e+00 2.274605445710033e+00 0.000000000000000e+00
2.073478417157044e+00 2.276623032039206e+00 0.000000000000000e+00
2.095002802788394e+00 2.279908857994635e+00 0.000000000000000e+00
2.116855730474760e+00 2.277115893325161e+00 0.000000000000000e+00
2.138989228239856e+00 2.277436839698736e+00 0.000000000000000e+00
2.160405555589604e+00 2.282206917014244e+00 0.000000000000000e+00
2.182377117717243e+00 2.282165792088480e+00 0.000000000000000e+00
2.203598349348696e+00 2.281869462077744e+00 0.000000000000000e+00
2.225565237641898e+00 2.284385501329296e+00 0.000000000000000e+00
2.246957799135685e+00 2.287909404876566e+00 0.000000000000000e+00
2.268778736343291e+00 2.289826847985198e+00 0.000000000000000e+00
2.289886963527572e+00 2.289513324939993e+00 0.000000000000000e+00
2.311732178831410e+00 2.292812462068378e+00 0.000000000000000e+00
2.332629624938173e+00 2.296169572059392e+00 0.000000000000000e+00
2.354753334931419e+00 2.296202634010120e+00 0.000000000000000e+00
2.376246770531135e+00 2.296845478762497e+00 0.000000000000000e+00
2.398025810927712e+00 2.297846466533294e+00 0.000000000000000e+00
2.419368951323217e+00 2.299658603246275e+00 0.000000000000000e+00
2.441260622325641e+00 2.299513027871236e+00 0.000000000000000e+00
2.462701768544999e+00 2.297495536738584e+00 0.000000000000000e+00
2.484369805896734e+00 2.296416337110352e+00 0.000000000000000e+00
2.506152476894812e+00 2.294914642840792e+00 0.000000000000000e+00
2.527338355742355e+00 2.292408247148890e+00 0.000000000000000e+00
2.548906211059256e+00 2.289124675034415e+00 0.000000000000000e+00
2.570536701157365e+00 2.285862767267417e+00 0.000000000000000e+00
2.591686241936377e+00 2.280965162118584e+00 0.000000000000000e+00
2.612485620736781e+00 2.274793008175597e+00 0.000000000000000e+00
2.632991002796437e+00 2.267365842486875e+00 0.000000000000000e+00
2.653209664713458e+00 2.258815289096931e+00 0.000000000000000e+00
2.672655190664304e+00 2.248871296440032e+00 0.000000000000000e+00
2.691384965950270e+00 2.236892223966920e+00 0.000000000000000e+00
2.709818059670628e+00 2.224220013253676e+00 0.000000000000000e+00
2.727400805890036e+00 2.210458912809201e+00 0.000000000000000e+00
2.745190028195619e+00 2.196078594167979e+00 0.000000000000000e+00
2.762769168781079e+00 2.182657870775123e+00 0.000000000000000e+00
2.780563430454858e+00 2.168326111593547e+00 0.000000000000000e+00
2.797586126888686e+00 2.154334340189681e+00 0.000000000000000e+00
2.814931361612697e+00 2.139477416081414e+00 0.000000000000000e+00
2.832402167810627e+00 2.125085402202126e+00 0.000000000000000e+00
2.849416904913649e+00 2.111139241570405e+00 0.000000000000000e+00
2.867584980318985e+00 2.096067577719182e+00 0.000000000000000e+00
2.884315929640309e+00 2.082679586345406e+00 0.000000000000000e+00
2.902608447172529e+00 2.068027357359717e+00 0.000000000000000e+00
2.920503436158358e+00 2.054856962738641e+00 0.000000000000000e+00
2.938627438163773e+00 2.041235723461157e+00 0.000000000000000e+00
2.956993780512004e+00 2.027173097230087e+00 0.000000000000000e+00
2.974751616505558e+00 2.014182735066514e+00 0.000000000000000e+00
2.993395440517251e+00 1.999993969898028e+00 0.000000000000000e+00
3.010927247587246e+00 1.986401275732761e+00 0.000000000000000e+00
3.029163134874819e+00 1.972333540624521e+00 0.000000000000000e+00
3.046652573534766e+00 1.957970693432683e+00 0.000000000000000e+00
3.064220885703722e+00 1.943769506105496e+00 0.000000000000000e+00
3.081619349738583e+00 1.929336459551109e+00 0.000000000000000e+00
3.099013841279861e+00 1.915074759856351e+00 0.000000000000000e+00
3.116692812861157e+00 1.900432403547962e+00 0.000000000000000e+00
3.134023994777933e+00 1.886388537804421e+00 0.000000000000000e+00
3.152063269507608e+00 1.871914583076969e+00 0.000000000000000e+00
3.169545081656668e+00 1.858063803226898e+00 0.000000000000000e+00
3.187947896806788e+00 1.843940107509974e+00 0.000000000000000e+00
3.205849931403442e+00 1.830944978826999e+00 0.000000000000000e+00
3.224199063728996e+00 1.817071005329658e+00 0.000000000000000e+00
3.241980890291622e+00 1.803527718556299e+00 0.000000000000000e+00
3.260336931963583e+00 1.790201431315243e+00 0.000000000000000e+00
3.278871691765906e+00 1.777305632435099e+00 0.000000000000000e+00
3.296868959167895e+00 1.764244897685365e+00 0.000000000000000e+00
3.316090703344493e+00 1.750971721369491e+00 0.000000000000000e+00
3.334693922144125e+00 1.739268093468601e+00 0.000000000000000e+00
3.354564221277709e+00 1.727788236971833e+00 0.000000000000000e+00
3.374043839516115e+00 1.716920944162586e+00 0.000000000000000e+00
3.394671133948275e+00 1.706819595618098e+00 0.000000000000000e+00
3.415135568777150e+00 1.697815439602251e+00 0.000000000000000e+00
3.436004402471830e+00 1.689622469861838e+00 0.000000000000000e+00
3.457518925653360e+00 1.682059392509293e+00 0.000000000000000e+00
3.478958265671429e+00 1.675267877880204e+00 0.000000000000000e+00
3.500767539883216e+00 1.669867571969927e+00 0.000000000000000e+00
3.523249394222811e+00 1.665466195564357e+00 0.000000000000000e+00
3.545269895052530e+00 1.661165884477958e+00 0.000000000000000e+00
3.567757549121477e+00 1.658517175001958e+00 0.000000000000000e+00
3.590059413385795e+00 1.657025094751695e+00 0.000000000000000e+00
3.612815685391981e+00 1.656938047507793e+00 0.000000000000000e+00
3.635033378339631e+00 1.658523207118037e+00 0.000000000000000e+00
3.657292417904369e+00 1.661326169942818e+00 0.000000000000000e+00
3.679527989948246e+00 1.665565697358641e+00 0.000000000000000e+00
3.701134354326311e+00 1.671038093315899e+00 0.000000000000000e+00
3.722306798198637e+00 1.678242929381892e+00 0.000000000000000e+00
3.743511810902991e+00 1.686592419453621e+00 0.000000000000000e+00
3.763727837152155e+00 1.696019393913666e+00 0.000000000000000e+00
3.783224500107780e+00 1.707080287407241e+00 0.000000000000000e+00
3.801876810142116e+00 1.719748869533992e+00 0.000000000000000e+00
3.819767599913047e+00 1.733269149330289e+00 0.000000000000000e+00
3.837118580640896e+00 1.747581502307085e+00 0.000000000000000e+00
3.853437078263406e+00 1.762651663409036e+00 0.000000000000000e+00
3.869075026193366e+00 1.778939594101820e+00 0.000000000000000e+00
3.883881715867190e+00 1.795765043577903e+00 0.000000000000000e+00
3.898687349349167e+00 1.813341942159217e+00 0.000000000000000e+00
3.912727011437282e+00 1.830752679683034e+00 0.000000000000000e+00
3.926395179327780e+00 1.849115115845415e+00 0.000000000000000e+00
3.939015879504561e+00 1.867937754158299e+00 0.000000000000000e+00
3.951504238471121e+00 1.887430252252194e+00 0.000000000000000e+00
3.963059644085535e+00 1.906376605461609e+00 0.000000000000000e+00
3.972998514913085e+00 1.926474842972525e+00 0.000000000000000e+00
3.981209637859901e+00 1.948508700266244e+00 0.000000000000000e+00
3.991586423936310e+00 1.968477372097038e+00 0.000000000000000e+00
1.007495908050916e+00 2.993268024544592e+00 0.000000000000000e+00
1.025653738821070e+00 2.984246734958594e+00 0.000000000000000e+00
1.042944108203390e+00 2.971966285797098e+00 0.000000000000000e+00
1.061860780332557e+00 2.964302839915397e+00 0.000000000000000e+00
1.080804544369957e+00 2.955763047137653e+00 0.000000000000000e+00
1.100305552459372e+00 2.947848384174109e+00 0.000000000000000e+00
1.118799583843172e+00 2.940437911619444e+00 0.000000000000000e+00
1.139263846808748e+00 2.934581151706388e+00 0.000000000000000e+00
1.158386934522484e+00 2.929987454172237e+00 0.000000000000000e+00
1.179274330157127e+00 2.924326131325925e+00 0.000000000000000e+00
1.199369665055844e+00 2.920180957234716e+00 0.000000000000000e+00
1.219583846138781e+00 2.915661818277412e+00 0.000000000000000e+00
1.239307489250918e+00 2.911396254892907e+00 0.000000000000000e+00
1.259056330908498e+00 2.906084990388543e+00 0.000000000000000e+00
1.279901147629368e+00 2.901896248092961e+00 0.000000000000000e+00
1.299075633291349e+00 2.895638692999772e+00 0.000000000000000e+00
1.318791843574000e+00 2.888777553895328e+00 0.000000000000000e+00
1.338280258528748e+00 2.882030086705140e+00 0.000000000000000e+00
1.357230718507951e+00 2.874012078983125e+00 0.000000000000000e+00
1.375999971728888e+00 2.865054305867524e+00 0.000000000000000e+00
1.394489528838498e+00 2.856500421665866e+00 0.000000000000000e+00
1.413131736484414e+00 2.847256884075290e+00 0.000000000000000e+00
1.431104600544536e+00 2.837179108033028e+00 0.000000000000000e+00
1.449204622385360e+00 2.827516322276522e+00 0.000000000000000e+00
1.469528994733478e+00 2.818776420230066e+00 0.000000000000000e+00
1.487313865240399e+00 2.809989390809073e+00 0.000000000000000e+00
1.505964444403851e+00 2.799516614066996e+00 0.000000000000000e+00
1.524795541557748e+00 2.792155634263198e+00 0.000000000000000e+00
1.544788955264158e+00 2.783615621507552e+00 0.000000000000000e+00
1.562569169923612e+00 2.774155055304179e+00 0.000000000000000e+00
1.582503716871467e+00 2.764725150886476e+00 0.000000000000000e+00
1.602915018916126e+00 2.760616887355392e+00 0.000000000000000e+00
1.622604049109637e+00 2.752034319674008e+00 0.000000000000000e+00
1.641569417715477e+00 2.745479473341465e+00 0.000000000000000e+00
1.664167878239120e+00 2.742189112164599e+00 0.000000000000000e+00
1.684166018992456e+00 2.737393593920316e+00 0.000000000000000e+00
1.704823197698643e+00 2.731119480167679e+00 0.000000000000000e+00
1.725875360780593e+00 2.734992833092674e+00 0.000000000000000e+00
1.747768302684172e+00 2.730512134448014e+00 0.000000000000000e+00
1.768633538384071e+00 2.728829121624782e+00 0.000000000000000e+00
1.791126194416032e+00 2.730687640277723e+00 0.000000000000000e+00
1.811848442510938e+00 2.728598393998675e+00 0.000000000000000e+00
1.834269168380248e+00 2.727130881954526e+00 0.000000000000000e+00
1.855519824188149e+00 2.727140008415399e+00 0.000000000000000e+00
1.876662658464051e+00 2.728629391079591e+00 0.000000000000000e+00
1.899318522879966e+00 2.729307441222417e+00 0.000000000000000e+00
1.920249261884492e+00 2.723675286463013e+00 0.000000000000000e+00
1.941448948615924e+00 2.728861077340777e+00 0.000000000000000e+00
1.963582548179693e+00 2.728112577983455e+00 0.000000000000000e+00
1.985015755705203e+00 2.726421751879456e+00 0.000000000000000e+00
2.007191024872565e+00 2.723756000501973e+00 0.000000000000000e+00
2.028993754250590e+00 2.724440200904371e+00 0.000000000000000e+00
2.051039666380701e+00 2.725394554290011e+00 0.000000000000000e+00
2.073478417157060e+00 2.723376967960833e+00 0.000000000000000e+00
2.095002802788410e+00 2.720091142005401e+00 0.000000000000000e+00
2.116855730474776e+00 2.722884106674873e+00 0.000000000000000e+00
2.138989228239868e+00 2.722563160301304e+00 0.000000000000000e+00
2.160405555589617e+00 2.717793082985790e+00 0.000000000000000e+00
2.182377117717256e+00 2.717834207911554e+00 0.000000000000000e+00
2.203598349348709e+00 2.718130537922296e+00 0.000000000000000e+00
2.225565237641911e+00 2.715614498670737e+00 0.000000000000000e+00
2.246957799135698e+00 2.712090595123471e+00 0.000000000000000e+00
2.268778736343303e+00 2.710173152014838e+00 0.000000000000000e+00
2.289886963527587e+00 2.710486675060048e+00 0.000000000000000e+00
2.311732178831424e+00 2.707187537931665e+00 0.000000000000000e+00
2.332629624938188e+00 2.703830427940646e+00 0.000000000000000e+00
2.354753334931434e+00 2.703797365989922e+00 0.000000000000000e+00
2.376246770531149e+00 2.703154521237547e+00 0.000000000000000e+00
2.398025810927729e+00 2.702153533466749e+00 0.000000000000000e+00
2.419368951323233e+00 2.700341396753768e+00 0.000000000000000e+00
2.441260622325658e+00 2.700486972128805e+00 0.000000000000000e+00
2.462701768545015e+00 2.702504463261454e+00 0.000000000000000e+00
2.484369805896753e+00 2.703583662889683e+00 0.000000000000000e+00
2.506152476894828e+00 2.705085357159235e+00 0.000000000000000e+00
2.527338355742376e+00 2.707591752851134e+00 0.000000000000000e+00
2.548906211059276e+00 2.710875324965604e+00 0.000000000000000e+00
2.570536701157385e+00 2.714137232732597e+00 0.000000000000000e+00
2.591686241936398e+00 2.719034837881430e+00 0.000000000000000e+00
2.612485620736801e+00 2.725206991824415e+00 0.000000000000000e+00
2.632991002796457e+00 2.732634157513137e+00 0.000000000000000e+00
2.653209664713476e+00 2.741184710903082e+00 0.000000000000000e+00
2.672655190664323e+00 2.751128703559979e+00 0.000000000000000e+00
2.691384965950288e+00 2.763107776033090e+00 0.000000000000000e+00
2.709818059670648e+00 2.775779986746332e+00 0.000000000000000e+00
2.727400805890056e+00 2.789541087190806e+00 0.000000000000000e+00
2.745190028195639e+00 2.803921405832030e+00 0.000000000000000e+00
2.762769168781101e+00 2.817342129224879e+00 0.000000000000000e+00
2.780563430454883e+00 2.831673888406455e+00 0.000000000000000e+00
2.797586126888711e+00 2.845665659810319e+00 0.000000000000000e+00
2.814931361612725e+00 2.860522583918584e+00 0.000000000000000e+00
2.832402167810656e+00 2.874914597797872e+00 0.000000000000000e+00
2.849416904913673e+00 2.888860758429590e+00 0.000000000000000e+00
2.867584980319014e+00 2.903932422280815e+00 0.000000000000000e+00
2.884315929640335e+00 2.917320413654581e+00 0.000000000000000e+00
2.902608447172562e+00 2.931972642640271e+00 0.000000000000000e+00
2.920503436158389e+00 2.945143037261343e+00 0.000000000000000e+00
2.938627438163808e+00 2.958764276538825e+00 0.000000000000000e+00
2.956993780512037e+00 2.972826902769894e+00 0.000000000000000e+00
2.974751616505590e+00 2.985817264933468e+00 0.000000000000000e+00
2.993395440517286e+00 3.000006030101955e+00 0.000000000000000e+00
3.010927247587278e+00 3.013598724267220e+00 0.000000000000000e+00
3.029163134874854e+00 3.027666459375464e+00 0.000000000000000e+00
3.046652573534796e+00 3.042029306567299e+00 0.000000000000000e+00
3.064220885703756e+00 3.056230493894490e+00 0.000000000000000e+00
3.081619349738614e+00 3.070663540448875e+00 0.000000000000000e+00
3.099013841279892e+00 3.084925240143632e+00 0.000000000000000e+00
3.116692812861191e+00 3.099567596452024e+00 0.000000000000000e+00
3.134023994777959e+00 3.113611462195569e+00 0.000000000000000e+00
3.152063269507636e+00 3.128085416923025e+00 0.000000000000000e+00
3.169545081656688e+00 3.141936196773093e+00 0.000000000000000e+00
3.187947896806813e+00 3.156059892490021e+00 0.000000000000000e+00
3.205849931403465e+00 3.169055021172996e+00 0.000000000000000e+00
3.224199063729023e+00 3.182928994670339e+00 0.000000000000000e+00
3.241980890291644e+00 3.196472281443695e+00 0.000000000000000e+00
3.260336931963607e+00 3.209798568684755e+00 0.000000000000000e+00
3.278871691765925e+00 3.222694367564899e+00 0.000000000000000e+00
3.296868959167921e+00 3.235755102314638e+00 0.000000000000000e+00
3.316090703344509e+00 3.249028278630507e+00 0.000000000000000e+00
3.334693922144158e+00 3.260731906531402e+00 0.000000000000000e+00
3.354564221277722e+00 3.272211763028165e+00 0.000000000000000e+00
3.374043839516137e+00 3.283079055837420e+00 0.000000000000000e+00
3.394671133948297e+00 3.293180404381910e+00 0.000000000000000e+00
3.415135568777163e+00 3.302184560397759e+00 0.000000000000000e+00
3.436004402471852e+00 3.310377530138171e+00 0.000000000000000e+00
3.457518925653374e+00 3.317940607490714e+00 0.000000000000000e+00
3.478958265671448e+00 3.324732122119804e+00 0.000000000000000e+00
3.500767539883231e+00 3.330132428030080e+00 0.000000000000000e+00
3.523249394222829e+00 3.334533804435647e+00 0.000000000000000e+00
3.545269895052547e+00 3.338834115522047e+00 0.000000000000000e+00
3.567757549121495e+00 3.341482824998047e+00 0.000000000000000e+00
3.590059413385811e+00 3.342974905248308e+00 0.000000000000000e+00
3.612815685391997e+00 3.343061952492210e+00 0.000000000000000e+00
3.635033378339648e+00 3.341476792881970e+00 0.000000000000000e+00
3.657292417904385e+00 3.338673830057186e+00 0.000000000000000e+00
3.679527989948262e+00 3.334434302641361e+00 0.000000000000000e+00
3.701134354326327e+00 3.328961906684100e+00 0.000000000000000e+00
3.722306798198652e+00 3.321757070618110e+00 0.000000000000000e+00
3.743511810903006e+00 3.313407580546385e+00 0.000000000000000e+00
3.763727837152171e+00 3.303980606086337e+00 0.000000000000000e+00
3.783224500107796e+00 3.292919712592761e+00 0.000000000000000e+00
3.801876810142132e+00 3.280251130466010e+00 0.000000000000000e+00
3.819767599913061e+00 3.266730850669714e+00 0.000000000000000e+00
3.837118580640913e+00 3.252418497692919e+00 0.000000000000000e+00
3.853437078263418e+00 3.237348336590968e+00 0.000000000000000e+00
3.869075026193384e+00 3.221060405898182e+00 0.000000000000000e+00
3.883881715867204e+00 3.204234956422102e+00 0.000000000000000e+00
3.898687349349184e+00 3.186658057840785e+00 0.000000000000000e+00
3.912727011437297e+00 3.169247320316965e+00 0.000000000000000e+00
3.926395179327794e+00 3.150884884154585e+00 0.000000000000000e+00
3.939015879504577e+00 3.132062245841700e+00 0.000000000000000e+00
3.951504238471133e+00 3.112569747747804e+00 0.000000000000000e+00
3.963059644085547e+00 3.093623394538387e+00 0.000000000000000e+00
3.972998514913094e+00 3.073525157027470e+00 0.000000000000000e+00
3.981209637859906e+00 3.051491299733751e+00 0.000000000000000e+00
3.991586423936317e+00 3.031522627902958e+00 0.000000000000000e+00

POINT_DATA   310
SCALARS fNorm double
LOOKUP_TABLE default

3.415449e+03 
1.944285e+03 
3.158757e+03 
2.569191e+02 
5.643717e+02 
1.143134e+02 
1.127423e+03 
5.531211e+02 
3.180783e+02 
1.041710e+03 
1.508310e+02 
8.844059e+01 
3.580048e+02 
9.193069e+02 
1.590207e+03 
3.158184e+02 
7.652112e+01 
8.036812e+02 
6.110607e+02 
7.626949e+01 
3.305324e+02 
5.313737e+02 
2.804796e+02 
1.465317e+03 
6.835660e+02 
4.482840e+02 
1.863557e+03 
1.946550e+02 
1.544429e+03 
1.080684e+03 
4.734701e+03 
3.512797e+03 
9.670006e+02 
4.075935e+03 
2.187744e+03 
5.942898e+02 
9.430336e+03 
8.694411e+03 
2.289436e+03 
3.756868e+03 
4.218643e+03 
6.779412e+02 
1.676078e+03 
1.221368e+03 
1.355572e+03 
7.848408e+03 
1.132242e+04 
6.879020e+03 
1.191642e+03 
9.381996e+02 
3.952257e+03 
2.075299e+02 
3.998869e+03 
1.547399e+03 
6.734701e+03 
3.729763e+03 
5.257091e+03 
5.648930e+03 
3.848834e+02 
3.170966e+03 
1.317242e+03 
1.944085e+03 
2.397358e+03 
3.575896e+03 
1.329942e+02 
3.592569e+03 
5.256358e+02 
3.273128e+02 
8.130589e+02 
2.126709e+03 
2.033642e+03 
8.984304e+02 
3.353756e+02 
9.871994e+02 
7.713912e+02 
1.097416e+02 
7.990359e+02 
3.662873e+02 
3.172346e+02 
2.032791e+02 
4.718250e+02 
7.348894e+02 
1.499859e+03 
1.589400e+03 
4.521906e+02 
6.356694e+02 
8.010265e+02 
4.968284e+02 
7.233452e+02 
5.429401e+02 
9.030549e+01 
3.075320e+02 
6.470282e+02 
1.425653e+02 
1.565755e+03 
2.567885e+02 
2.057403e+02 
8.174080e+02 
5.409583e+02 
4.095316e+02 
6.968935e+01 
1.162952e+03 
1.291105e+02 
4.555403e+02 
1.488424e+02 
1.348185e+02 
5.045531e+02 
2.969470e+02 
3.233564e+02 
6.589199e+02 
8.539629e+02 
4.512210e+02 
1.336605e+02 
7.430341e+02 
5.635333e+02 
6.675948e+02 
8.796160e+02 
1.521357e+03 
1.522330e+03 
6.399463e+02 
1.909142e+03 
1.260525e+03 
1.247574e+03 
1.138633e+03 
8.673573e+02 
1.879164e+03 
1.586781e+03 
4.313446e+01 
2.373431e+03 
1.751654e+03 
2.159706e+03 
2.544020e+03 
1.748362e+03 
2.072961e+03 
1.982539e+03 
2.469817e+03 
1.670453e+03 
2.077514e+03 
2.484719e+03 
2.542525e+03 
1.523362e+03 
1.251738e+03 
1.722250e+03 
1.909040e+03 
1.455847e+03 
6.531287e+02 
7.944117e+02 
1.312185e+03 
1.832025e+03 
8.562058e+02 
1.126085e+03 
2.958176e+03 
3.889568e+03 
4.181647e+03 
2.665272e+03 
3.415449e+03 
1.944285e+03 
3.158757e+03 
2.569191e+02 
5.643717e+02 
1.143134e+02 
1.127423e+03 
5.531211e+02 
3.180783e+02 
1.041710e+03 
1.508310e+02 
8.844059e+01 
3.580048e+02 
9.193069e+02 
1.590207e+03 
3.158184e+02 
7.652112e+01 
8.036812e+02 
6.110607e+02 
7.626949e+01 
3.305324e+02 
5.313737e+02 
2.804796e+02 
1.465317e+03 
6.835660e+02 
4.482840e+02 
1.863557e+03 
1.946550e+02 
1.544429e+03 
1.080684e+03 
4.734701e+03 
3.512797e+03 
9.670006e+02 
4.075935e+03 
2.187744e+03 
5.942898e+02 
9.430336e+03 
8.694411e+03 
2.289436e+03 
3.756868e+03 
4.218643e+03 
6.779412e+02 
1.676078e+03 
1.221368e+03 
1.355572e+03 
7.848408e+03 
1.132242e+04 
6.879020e+03 
1.191642e+03 
9.381996e+02 
3.952257e+03 
2.075299e+02 
3.998869e+03 
1.547399e+03 
6.734701e+03 
3.729763e+03 
5.257091e+03 
5.648930e+03 
3.848834e+02 
3.170966e+03 
1.317242e+03 
1.944085e+03 
2.397358e+03 
3.575896e+03 
1.329942e+02 
3.592569e+03 
5.256358e+02 
3.273128e+02 
8.130589e+02 
2.126709e+03 
2.033642e+03 
8.984304e+02 
3.353756e+02 
9.871994e+02 
7.713912e+02 
1.097416e+02 
7.990359e+02 
3.662873e+02 
3.172346e+02 
2.032791e+02 
4.718250e+02 
7.348894e+02 
1.499859e+03 
1.589400e+03 
4.521906e+02 
6.356694e+02 
8.010265e+02 
4.968284e+02 
7.233452e+02 
5.429401e+02 
9.030549e+01 
3.075320e+02 
6.470282e+02 
1.425653e+02 
1.565755e+03 
2.567885e+02 
2.057403e+02 
8.174080e+02 
5.409583e+02 
4.095316e+02 
6.968935e+01 
1.162952e+03 
1.291105e+02 
4.555403e+02 
1.488424e+02 
1.348185e+02 
5.045531e+02 
2.969470e+02 
3.233564e+02 
6.589199e+02 
8.539629e+02 
4.512210e+02 
1.336605e+02 
7.430341e+02 
5.635333e+02 
6.675948e+02 
8.796160e+02 
1.521357e+03 
1.522330e+03 
6.399463e+02 
1.909142e+03 
1.260525e+03 
1.247574e+03 
1.138633e+03 
8.673573e+02 
1.879164e+03 
1.586781e+03 
4.313446e+01 
2.373431e+03 
1.751654e+03 
2.159706e+03 
2.544020e+03 
1.748362e+03 
2.072961e+03 
1.982539e+03 
2.469817e+03 
1.670453e+03 
2.077514e+03 
2.484719e+03 
2.542525e+03 
1.523362e+03 
1.251738e+03 
1.722250e+03 
1.909040e+03 
1.455847e+03 
6.531287e+02 
7.944117e+02 
1.312185e+03 
1.832025e+03 
8.562058e+02 
1.126085e+03 
2.958176e+03 
3.889568e+03 
4.181647e+03 
2.665272e+03 
