# vtk DataFile Version 2.0
fNorm
ASCII
DATASET UNSTRUCTURED_GRID

FIELD FieldData 1
TIME 1 1 double
0.03000000
POINTS 310 float
9.984352388783688e-01 2.003688015508242e+00 0.000000000000000e+00
1.015179621361994e+00 1.992851096489151e+00 0.000000000000000e+00
1.026970327004756e+00 1.977454036071775e+00 0.000000000000000e+00
1.040158459712331e+00 1.964751488480945e+00 0.000000000000000e+00
1.058820173665894e+00 1.962089979757026e+00 0.000000000000000e+00
1.078943336498296e+00 1.959485831178224e+00 0.000000000000000e+00
1.097227494929285e+00 1.954960527697758e+00 0.000000000000000e+00
1.117653739388186e+00 1.948170606516223e+00 0.000000000000000e+00
1.137280136768578e+00 1.946867970723513e+00 0.000000000000000e+00
1.157818651977505e+00 1.952023718837650e+00 0.000000000000000e+00
1.176069695823187e+00 1.959955619857989e+00 0.000000000000000e+00
1.191723498732246e+00 1.971176525074492e+00 0.000000000000000e+00
1.207499859090447e+00 1.982600416771972e+00 0.000000000000000e+00
1.225183084224584e+00 1.989400795543198e+00 0.000000000000000e+00
1.244348999056420e+00 1.991222271337890e+00 0.000000000000000e+00
1.262974058169047e+00 1.994877079023500e+00 0.000000000000000e+00
1.281914692073878e+00 2.001654968250086e+00 0.000000000000000e+00
1.298688308167006e+00 2.008150308758346e+00 0.000000000000000e+00
1.315540800544664e+00 2.016834288276804e+00 0.000000000000000e+00
1.332561295865238e+00 2.026704882893906e+00 0.000000000000000e+00
1.347653075517445e+00 2.038482892192839e+00 0.000000000000000e+00
1.362324853171843e+00 2.051505774746741e+00 0.000000000000000e+00
1.377081589752387e+00 2.065330888228107e+00 0.000000000000000e+00
1.392540304140559e+00 2.078007072248223e+00 0.000000000000000e+00
1.411192447302248e+00 2.086046218083371e+00 0.000000000000000e+00
1.429011038991749e+00 2.093570666323382e+00 0.000000000000000e+00
1.444484765958841e+00 2.108392714077971e+00 0.000000000000000e+00
1.456191089114431e+00 2.123347298024276e+00 0.000000000000000e+00
1.468498661229956e+00 2.139772154691147e+00 0.000000000000000e+00
1.481433689567527e+00 2.153276124793007e+00 0.000000000000000e+00
1.500498574133884e+00 2.160216004911464e+00 0.000000000000000e+00
1.519336415852635e+00 2.157819829871292e+00 0.000000000000000e+00
1.538090501454798e+00 2.168287206164209e+00 0.000000000000000e+00
1.550628332605311e+00 2.182309682847367e+00 0.000000000000000e+00
1.567102144319244e+00 2.193497434861719e+00 0.000000000000000e+00
1.582943666458392e+00 2.203626973303551e+00 0.000000000000000e+00
1.603060704505371e+00 2.209262972916885e+00 0.000000000000000e+00
1.619625451081918e+00 2.198884730022656e+00 0.000000000000000e+00
1.640487177376750e+00 2.200128123570285e+00 0.000000000000000e+00
1.658715114069246e+00 2.203904762777477e+00 0.000000000000000e+00
1.680682959809678e+00 2.203930219148654e+00 0.000000000000000e+00
1.700233164126118e+00 2.204993292598081e+00 0.000000000000000e+00
1.721455318937060e+00 2.202094828619868e+00 0.000000000000000e+00
1.741327484546694e+00 2.198618778081298e+00 0.000000000000000e+00
1.762735051548159e+00 2.198104004692112e+00 0.000000000000000e+00
1.784180600300368e+00 2.201720175788108e+00 0.000000000000000e+00
1.801788778607972e+00 2.209875718305800e+00 0.000000000000000e+00
1.821132886602790e+00 2.201973231808742e+00 0.000000000000000e+00
1.841874359645019e+00 2.203508871354012e+00 0.000000000000000e+00
1.862006444761486e+00 2.205957093601667e+00 0.000000000000000e+00
1.883256847676529e+00 2.208018885055680e+00 0.000000000000000e+00
1.903743189576235e+00 2.207782112184062e+00 0.000000000000000e+00
1.924952564117481e+00 2.209595380885037e+00 0.000000000000000e+00
1.945014425492854e+00 2.215070019018908e+00 0.000000000000000e+00
1.964812824368747e+00 2.220329981866696e+00 0.000000000000000e+00
1.987171630602369e+00 2.217493784313035e+00 0.000000000000000e+00
2.008685407043531e+00 2.218453967452663e+00 0.000000000000000e+00
2.028248291248649e+00 2.227134184942126e+00 0.000000000000000e+00
2.047872458021059e+00 2.230221082822897e+00 0.000000000000000e+00
2.068934248001025e+00 2.232427409089628e+00 0.000000000000000e+00
2.089910857674568e+00 2.239462988539429e+00 0.000000000000000e+00
2.108115051686904e+00 2.247097792784688e+00 0.000000000000000e+00
2.128310263917429e+00 2.252870860671327e+00 0.000000000000000e+00
2.149786311500212e+00 2.255951830499847e+00 0.000000000000000e+00
2.170863116876454e+00 2.258869075926805e+00 0.000000000000000e+00
2.190468983777459e+00 2.259285517604612e+00 0.000000000000000e+00
2.211760196212790e+00 2.253443260812320e+00 0.000000000000000e+00
2.231553096345770e+00 2.242817803650112e+00 0.000000000000000e+00
2.249945234961893e+00 2.229553120022812e+00 0.000000000000000e+00
2.266904047961832e+00 2.218231177154273e+00 0.000000000000000e+00
2.283760028414910e+00 2.205028737018321e+00 0.000000000000000e+00
2.298674806208000e+00 2.189624827617637e+00 0.000000000000000e+00
2.312958655035582e+00 2.173608798870343e+00 0.000000000000000e+00
2.326829252215329e+00 2.157228614925996e+00 0.000000000000000e+00
2.340846017471785e+00 2.141067033155627e+00 0.000000000000000e+00
2.354907905318808e+00 2.124769025297414e+00 0.000000000000000e+00
2.369945358990433e+00 2.108385021649571e+00 0.000000000000000e+00
2.384964702831737e+00 2.092673041908854e+00 0.000000000000000e+00
2.401235599132155e+00 2.077508469874373e+00 0.000000000000000e+00
2.418760851624346e+00 2.062618741442698e+00 0.000000000000000e+00
2.436234991218767e+00 2.049130647303572e+00 0.000000000000000e+00
2.454018502870864e+00 2.035960890261848e+00 0.000000000000000e+00
2.472875677769383e+00 2.022486735787713e+00 0.000000000000000e+00
2.492406637422723e+00 2.010939379177793e+00 0.000000000000000e+00
2.511678135791475e+00 2.000394004317689e+00 0.000000000000000e+00
2.531565187477487e+00 1.990702502427481e+00 0.000000000000000e+00
2.551560896078430e+00 1.982719305239109e+00 0.000000000000000e+00
2.572110677023495e+00 1.975049030244288e+00 0.000000000000000e+00
2.592761965467626e+00 1.967505895548786e+00 0.000000000000000e+00
2.613533285129393e+00 1.959638505934349e+00 0.000000000000000e+00
2.634249381554449e+00 1.952231755154539e+00 0.000000000000000e+00
2.655200198969399e+00 1.944844324333859e+00 0.000000000000000e+00
2.676141205976474e+00 1.937027997709336e+00 0.000000000000000e+00
2.696705746829469e+00 1.928548002567118e+00 0.000000000000000e+00
2.717774572300140e+00 1.918510278185163e+00 0.000000000000000e+00
2.738464195795367e+00 1.908917334477521e+00 0.000000000000000e+00
2.758376279788215e+00 1.898754675394861e+00 0.000000000000000e+00
2.777423254343718e+00 1.887225972426549e+00 0.000000000000000e+00
2.796395469989117e+00 1.875275820708091e+00 0.000000000000000e+00
2.815203810576452e+00 1.862936422848942e+00 0.000000000000000e+00
2.834092525508044e+00 1.850507039437898e+00 0.000000000000000e+00
2.853345372820402e+00 1.838665996158410e+00 0.000000000000000e+00
2.872360861121434e+00 1.827389192475280e+00 0.000000000000000e+00
2.892638807220921e+00 1.817607162903776e+00 0.000000000000000e+00
2.913136717118840e+00 1.809690119632769e+00 0.000000000000000e+00
2.934989115695600e+00 1.803532266666392e+00 0.000000000000000e+00
2.956598547552837e+00 1.799253331510180e+00 0.000000000000000e+00
2.978879328211737e+00 1.796513676728001e+00 0.000000000000000e+00
3.001641055174628e+00 1.795539980461541e+00 0.000000000000000e+00
3.024083550248462e+00 1.795948675219527e+00 0.000000000000000e+00
3.046827891416322e+00 1.797545403400863e+00 0.000000000000000e+00
3.068939046109358e+00 1.800231305391556e+00 0.000000000000000e+00
3.090810975113976e+00 1.804370861868133e+00 0.000000000000000e+00
3.112105270794755e+00 1.809500801969974e+00 0.000000000000000e+00
3.133024781206471e+00 1.815464260504078e+00 0.000000000000000e+00
3.153607365438661e+00 1.822403784026823e+00 0.000000000000000e+00
3.173669357764044e+00 1.830598888808006e+00 0.000000000000000e+00
3.193453150544115e+00 1.839953206885086e+00 0.000000000000000e+00
3.212612527336132e+00 1.849446708927410e+00 0.000000000000000e+00
3.231857387462966e+00 1.860118642971540e+00 0.000000000000000e+00
3.250603109349376e+00 1.870956942639693e+00 0.000000000000000e+00
3.269675325934699e+00 1.882573767982940e+00 0.000000000000000e+00
3.288544506410231e+00 1.894127005398349e+00 0.000000000000000e+00
3.307545363812915e+00 1.905867979083102e+00 0.000000000000000e+00
3.326661213831034e+00 1.917516372225996e+00 0.000000000000000e+00
3.346035823522775e+00 1.928679663431186e+00 0.000000000000000e+00
3.365596432125011e+00 1.939339550051429e+00 0.000000000000000e+00
3.385283244074830e+00 1.949256465256033e+00 0.000000000000000e+00
3.405382480265128e+00 1.958286946347293e+00 0.000000000000000e+00
3.425737512303817e+00 1.966368834554462e+00 0.000000000000000e+00
3.446088216970479e+00 1.973339199371508e+00 0.000000000000000e+00
3.466653768110868e+00 1.979405275651372e+00 0.000000000000000e+00
3.487522282097514e+00 1.984518138634369e+00 0.000000000000000e+00
3.508682837825944e+00 1.988581572560228e+00 0.000000000000000e+00
3.530143838446778e+00 1.991870956790434e+00 0.000000000000000e+00
3.551608646415446e+00 1.994291158835287e+00 0.000000000000000e+00
3.573238703828711e+00 1.996125071895277e+00 0.000000000000000e+00
3.595283478951444e+00 1.997424888102426e+00 0.000000000000000e+00
3.617225587959405e+00 1.998188104639296e+00 0.000000000000000e+00
3.639298945490800e+00 1.998524509770791e+00 0.000000000000000e+00
3.661686755249530e+00 1.998566760399355e+00 0.000000000000000e+00
3.683883437194831e+00 1.998423644476645e+00 0.000000000000000e+00
3.705440202423687e+00 1.998083830091795e+00 0.000000000000000e+00
3.727154297342332e+00 1.997660337565054e+00 0.000000000000000e+00
3.749148121457826e+00 1.997204108498744e+00 0.000000000000000e+00
3.771031260418861e+00 1.996810127303465e+00 0.000000000000000e+00
3.792584267368786e+00 1.996507874274991e+00 0.000000000000000e+00
3.813692386080815e+00 1.996253565518906e+00 0.000000000000000e+00
3.834872390783980e+00 1.996140791669468e+00 0.000000000000000e+00
3.856346060425313e+00 1.996196677040763e+00 0.000000000000000e+00
3.878019532415308e+00 1.996401174618172e+00 0.000000000000000e+00
3.900085033335436e+00 1.996622962200726e+00 0.000000000000000e+00
3.921467345212905e+00 1.997216402203461e+00 0.000000000000000e+00
3.942809679116607e+00 1.997920602578167e+00 0.000000000000000e+00
3.964792296498076e+00 1.998588049128483e+00 0.000000000000000e+00
9.984352388783687e-01 2.996311984491757e+00 0.000000000000000e+00
1.015179621362018e+00 3.007148903510812e+00 0.000000000000000e+00
1.026970327004799e+00 3.022545963928177e+00 0.000000000000000e+00
1.040158459712367e+00 3.035248511519006e+00 0.000000000000000e+00
1.058820173665926e+00 3.037910020242933e+00 0.000000000000000e+00
1.078943336498330e+00 3.040514168821741e+00 0.000000000000000e+00
1.097227494929321e+00 3.045039472302214e+00 0.000000000000000e+00
1.117653739388216e+00 3.051829393483767e+00 0.000000000000000e+00
1.137280136768610e+00 3.053132029276487e+00 0.000000000000000e+00
1.157818651977537e+00 3.047976281162359e+00 0.000000000000000e+00
1.176069695823216e+00 3.040044380142016e+00 0.000000000000000e+00
1.191723498732267e+00 3.028823474925503e+00 0.000000000000000e+00
1.207499859090464e+00 3.017399583228020e+00 0.000000000000000e+00
1.225183084224603e+00 3.010599204456805e+00 0.000000000000000e+00
1.244348999056438e+00 3.008777728662116e+00 0.000000000000000e+00
1.262974058169067e+00 3.005122920976503e+00 0.000000000000000e+00
1.281914692073900e+00 2.998345031749913e+00 0.000000000000000e+00
1.298688308167028e+00 2.991849691241653e+00 0.000000000000000e+00
1.315540800544689e+00 2.983165711723194e+00 0.000000000000000e+00
1.332561295865261e+00 2.973295117106092e+00 0.000000000000000e+00
1.347653075517470e+00 2.961517107807157e+00 0.000000000000000e+00
1.362324853171867e+00 2.948494225253251e+00 0.000000000000000e+00
1.377081589752409e+00 2.934669111771881e+00 0.000000000000000e+00
1.392540304140577e+00 2.921992927751760e+00 0.000000000000000e+00
1.411192447302262e+00 2.913953781916603e+00 0.000000000000000e+00
1.429011038991760e+00 2.906429333676590e+00 0.000000000000000e+00
1.444484765958847e+00 2.891607285921998e+00 0.000000000000000e+00
1.456191089114432e+00 2.876652701975690e+00 0.000000000000000e+00
1.468498661229959e+00 2.860227845308820e+00 0.000000000000000e+00
1.481433689567540e+00 2.846723875206967e+00 0.000000000000000e+00
1.500498574133906e+00 2.839783995088531e+00 0.000000000000000e+00
1.519336415852659e+00 2.842180170128711e+00 0.000000000000000e+00
1.538090501454815e+00 2.831712793835790e+00 0.000000000000000e+00
1.550628332605315e+00 2.817690317152625e+00 0.000000000000000e+00
1.567102144319241e+00 2.806502565138262e+00 0.000000000000000e+00
1.582943666458387e+00 2.796373026696431e+00 0.000000000000000e+00
1.603060704505375e+00 2.790737027083111e+00 0.000000000000000e+00
1.619625451081907e+00 2.801115269977370e+00 0.000000000000000e+00
1.640487177376739e+00 2.799871876429747e+00 0.000000000000000e+00
1.658715114069232e+00 2.796095237222556e+00 0.000000000000000e+00
1.680682959809665e+00 2.796069780851381e+00 0.000000000000000e+00
1.700233164126100e+00 2.795006707401953e+00 0.000000000000000e+00
1.721455318937041e+00 2.797905171380160e+00 0.000000000000000e+00
1.741327484546675e+00 2.801381221918737e+00 0.000000000000000e+00
1.762735051548144e+00 2.801895995307924e+00 0.000000000000000e+00
1.784180600300348e+00 2.798279824211928e+00 0.000000000000000e+00
1.801788778607961e+00 2.790124281694252e+00 0.000000000000000e+00
1.821132886602789e+00 2.798026768191298e+00 0.000000000000000e+00
1.841874359645013e+00 2.796491128646025e+00 0.000000000000000e+00
1.862006444761481e+00 2.794042906398367e+00 0.000000000000000e+00
1.883256847676524e+00 2.791981114944341e+00 0.000000000000000e+00
1.903743189576231e+00 2.792217887815950e+00 0.000000000000000e+00
1.924952564117477e+00 2.790404619114977e+00 0.000000000000000e+00
1.945014425492847e+00 2.784929980981102e+00 0.000000000000000e+00
1.964812824368739e+00 2.779670018133310e+00 0.000000000000000e+00
1.987171630602364e+00 2.782506215686969e+00 0.000000000000000e+00
2.008685407043525e+00 2.781546032547343e+00 0.000000000000000e+00
2.028248291248639e+00 2.772865815057875e+00 0.000000000000000e+00
2.047872458021052e+00 2.769778917177095e+00 0.000000000000000e+00
2.068934248001020e+00 2.767572590910359e+00 0.000000000000000e+00
2.089910857674560e+00 2.760537011460555e+00 0.000000000000000e+00
2.108115051686905e+00 2.752902207215306e+00 0.000000000000000e+00
2.128310263917429e+00 2.747129139328670e+00 0.000000000000000e+00
2.149786311500215e+00 2.744048169500146e+00 0.000000000000000e+00
2.170863116876456e+00 2.741130924073186e+00 0.000000000000000e+00
2.190468983777462e+00 2.740714482395378e+00 0.000000000000000e+00
2.211760196212794e+00 2.746556739187672e+00 0.000000000000000e+00
2.231553096345772e+00 2.757182196349881e+00 0.000000000000000e+00
2.249945234961895e+00 2.770446879977181e+00 0.000000000000000e+00
2.266904047961832e+00 2.781768822845719e+00 0.000000000000000e+00
2.283760028414911e+00 2.794971262981672e+00 0.000000000000000e+00
2.298674806208000e+00 2.810375172382355e+00 0.000000000000000e+00
2.312958655035583e+00 2.826391201129651e+00 0.000000000000000e+00
2.326829252215332e+00 2.842771385073992e+00 0.000000000000000e+00
2.340846017471786e+00 2.858932966844365e+00 0.000000000000000e+00
2.354907905318808e+00 2.875230974702575e+00 0.000000000000000e+00
2.369945358990434e+00 2.891614978350419e+00 0.000000000000000e+00
2.384964702831736e+00 2.907326958091137e+00 0.000000000000000e+00
2.401235599132153e+00 2.922491530125622e+00 0.000000000000000e+00
2.418760851624344e+00 2.937381258557296e+00 0.000000000000000e+00
2.436234991218764e+00 2.950869352696423e+00 0.000000000000000e+00
2.454018502870861e+00 2.964039109738148e+00 0.000000000000000e+00
2.472875677769380e+00 2.977513264212283e+00 0.000000000000000e+00
2.492406637422721e+00 2.989060620822203e+00 0.000000000000000e+00
2.511678135791472e+00 2.999605995682308e+00 0.000000000000000e+00
2.531565187477485e+00 3.009297497572518e+00 0.000000000000000e+00
2.551560896078426e+00 3.017280694760886e+00 0.000000000000000e+00
2.572110677023494e+00 3.024950969755710e+00 0.000000000000000e+00
2.592761965467625e+00 3.032494104451212e+00 0.000000000000000e+00
2.613533285129391e+00 3.040361494065647e+00 0.000000000000000e+00
2.634249381554449e+00 3.047768244845461e+00 0.000000000000000e+00
2.655200198969399e+00 3.055155675666139e+00 0.000000000000000e+00
2.676141205976474e+00 3.062972002290663e+00 0.000000000000000e+00
2.696705746829470e+00 3.071451997432880e+00 0.000000000000000e+00
2.717774572300141e+00 3.081489721814837e+00 0.000000000000000e+00
2.738464195795367e+00 3.091082665522477e+00 0.000000000000000e+00
2.758376279788218e+00 3.101245324605136e+00 0.000000000000000e+00
2.777423254343719e+00 3.112774027573451e+00 0.000000000000000e+00
2.796395469989117e+00 3.124724179291908e+00 0.000000000000000e+00
2.815203810576453e+00 3.137063577151059e+00 0.000000000000000e+00
2.834092525508044e+00 3.149492960562101e+00 0.000000000000000e+00
2.853345372820403e+00 3.161334003841592e+00 0.000000000000000e+00
2.872360861121428e+00 3.172610807524721e+00 0.000000000000000e+00
2.892638807220920e+00 3.182392837096226e+00 0.000000000000000e+00
2.913136717118838e+00 3.190309880367232e+00 0.000000000000000e+00
2.934989115695595e+00 3.196467733333607e+00 0.000000000000000e+00
2.956598547552833e+00 3.200746668489818e+00 0.000000000000000e+00
2.978879328211733e+00 3.203486323271997e+00 0.000000000000000e+00
3.001641055174625e+00 3.204460019538458e+00 0.000000000000000e+00
3.024083550248454e+00 3.204051324780474e+00 0.000000000000000e+00
3.046827891416318e+00 3.202454596599134e+00 0.000000000000000e+00
3.068939046109353e+00 3.199768694608440e+00 0.000000000000000e+00
3.090810975113966e+00 3.195629138131865e+00 0.000000000000000e+00
3.112105270794746e+00 3.190499198030026e+00 0.000000000000000e+00
3.133024781206463e+00 3.184535739495921e+00 0.000000000000000e+00
3.153607365438651e+00 3.177596215973177e+00 0.000000000000000e+00
3.173669357764034e+00 3.169401111191996e+00 0.000000000000000e+00
3.193453150544106e+00 3.160046793114918e+00 0.000000000000000e+00
3.212612527336123e+00 3.150553291072590e+00 0.000000000000000e+00
3.231857387462959e+00 3.139881357028465e+00 0.000000000000000e+00
3.250603109349368e+00 3.129043057360311e+00 0.000000000000000e+00
3.269675325934693e+00 3.117426232017065e+00 0.000000000000000e+00
3.288544506410227e+00 3.105872994601657e+00 0.000000000000000e+00
3.307545363812908e+00 3.094132020916903e+00 0.000000000000000e+00
3.326661213831029e+00 3.082483627774007e+00 0.000000000000000e+00
3.346035823522769e+00 3.071320336568817e+00 0.000000000000000e+00
3.365596432125007e+00 3.060660449948574e+00 0.000000000000000e+00
3.385283244074828e+00 3.050743534743970e+00 0.000000000000000e+00
3.405382480265126e+00 3.041713053652709e+00 0.000000000000000e+00
3.425737512303818e+00 3.033631165445539e+00 0.000000000000000e+00
3.446088216970482e+00 3.026660800628493e+00 0.000000000000000e+00
3.466653768110871e+00 3.020594724348627e+00 0.000000000000000e+00
3.487522282097517e+00 3.015481861365631e+00 0.000000000000000e+00
3.508682837825949e+00 3.011418427439772e+00 0.000000000000000e+00
3.530143838446785e+00 3.008129043209566e+00 0.000000000000000e+00
3.551608646415455e+00 3.005708841164713e+00 0.000000000000000e+00
3.573238703828721e+00 3.003874928104723e+00 0.000000000000000e+00
3.595283478951452e+00 3.002575111897575e+00 0.000000000000000e+00
3.617225587959415e+00 3.001811895360704e+00 0.000000000000000e+00
3.639298945490808e+00 3.001475490229208e+00 0.000000000000000e+00
3.661686755249541e+00 3.001433239600645e+00 0.000000000000000e+00
3.683883437194839e+00 3.001576355523356e+00 0.000000000000000e+00
3.705440202423699e+00 3.001916169908207e+00 0.000000000000000e+00
3.727154297342341e+00 3.002339662434946e+00 0.000000000000000e+00
3.749148121457837e+00 3.002795891501258e+00 0.000000000000000e+00
3.771031260418869e+00 3.003189872696534e+00 0.000000000000000e+00
3.792584267368793e+00 3.003492125725010e+00 0.000000000000000e+00
3.813692386080823e+00 3.003746434481094e+00 0.000000000000000e+00
3.834872390783988e+00 3.003859208330532e+00 0.000000000000000e+00
3.856346060425319e+00 3.003803322959237e+00 0.000000000000000e+00
3.878019532415313e+00 3.003598825381828e+00 0.000000000000000e+00
3.900085033335441e+00 3.003377037799273e+00 0.000000000000000e+00
3.921467345212909e+00 3.002783597796540e+00 0.000000000000000e+00
3.942809679116611e+00 3.002079397421832e+00 0.000000000000000e+00
3.964792296498079e+00 3.001411950871517e+00 0.000000000000000e+00

POINT_DATA   310
SCALARS fNorm double
LOOKUP_TABLE default

6.864306e+03 
5.903558e+02 
5.156243e+02 
5.918293e+03 
3.015283e+02 
6.047396e+02 
3.264974e+02 
3.351494e+03 
3.167699e+03 
1.339891e+03 
5.936226e+02 
4.512303e+01 
1.254971e+03 
1.002186e+03 
3.628680e+02 
2.705482e+02 
2.395782e+02 
1.258298e+03 
2.926619e+00 
2.323070e+02 
1.310672e+02 
1.361046e+02 
7.194414e+02 
2.366184e+03 
9.231939e+01 
3.381926e+03 
1.145086e+03 
2.919791e+00 
6.548585e+01 
1.649625e+02 
3.830742e+02 
4.726785e+03 
8.571985e+02 
1.089735e+03 
5.118611e+02 
1.320639e+03 
6.392502e+03 
5.286881e+03 
5.807154e+02 
1.085099e+03 
1.298059e+02 
1.355643e+03 
6.294885e+02 
2.671361e+03 
4.434197e+03 
2.355340e+03 
4.965661e+03 
5.660029e+03 
7.392173e+02 
8.004781e+02 
9.444824e+02 
1.259230e+03 
2.561410e+03 
1.851795e+02 
7.409352e+03 
4.416695e+03 
7.506301e+03 
2.551649e+03 
4.160015e+02 
4.732937e+03 
8.426413e+02 
8.109133e+02 
2.197643e+03 
3.084725e+03 
6.574770e+02 
1.765646e+03 
5.592186e+03 
3.730549e+03 
6.071048e+02 
9.126084e+02 
2.477622e+03 
1.612483e+03 
2.009201e+02 
7.800662e+02 
3.948480e+02 
1.152871e+03 
7.255661e+02 
1.842173e+03 
1.772583e+03 
1.850868e+03 
8.240240e+02 
1.083323e+03 
3.625001e+03 
1.138150e+03 
1.242489e+03 
1.594989e+03 
5.057715e+02 
1.514448e+02 
3.580108e+02 
3.972976e+02 
6.767779e+01 
5.545431e+02 
8.029816e+02 
1.757039e+03 
1.760749e+00 
1.371825e+03 
2.083328e+03 
2.929751e+02 
1.861107e+02 
2.255744e+02 
1.094672e+03 
7.071077e+02 
2.954597e+03 
2.485658e+03 
3.257291e+03 
2.482168e+03 
2.451298e+03 
2.732482e+03 
1.955261e+03 
1.830766e+03 
1.664417e+03 
2.002918e+03 
1.380687e+03 
1.062513e+03 
1.166289e+03 
1.460716e+03 
1.232057e+03 
3.768278e+02 
1.090078e+03 
3.668158e+02 
4.648731e+02 
1.914941e+01 
3.420032e+01 
2.769450e+02 
7.427707e+02 
6.573015e+02 
7.507260e+02 
1.019512e+03 
9.790073e+02 
9.226112e+02 
8.494345e+02 
9.912820e+02 
1.143648e+03 
9.581164e+02 
1.024173e+03 
7.714652e+02 
8.042985e+02 
6.875524e+02 
5.540686e+02 
3.922102e+02 
2.154788e+02 
1.866713e+02 
4.720206e+01 
4.106127e+00 
8.957608e+01 
8.379603e+01 
3.149269e+01 
1.203648e+02 
1.529619e+02 
1.367953e+02 
2.397243e+01 
3.729675e+02 
1.081475e+02 
4.892433e+01 
3.572039e+03 
6.864306e+03 
5.903558e+02 
5.156243e+02 
5.918293e+03 
3.015283e+02 
6.047396e+02 
3.264974e+02 
3.351494e+03 
3.167699e+03 
1.339891e+03 
5.936226e+02 
4.512303e+01 
1.254971e+03 
1.002186e+03 
3.628680e+02 
2.705482e+02 
2.395782e+02 
1.258298e+03 
2.926619e+00 
2.323070e+02 
1.310672e+02 
1.361046e+02 
7.194414e+02 
2.366184e+03 
9.231939e+01 
3.381926e+03 
1.145086e+03 
2.919791e+00 
6.548585e+01 
1.649625e+02 
3.830742e+02 
4.726785e+03 
8.571985e+02 
1.089735e+03 
5.118611e+02 
1.320639e+03 
6.392502e+03 
5.286881e+03 
5.807154e+02 
1.085099e+03 
1.298059e+02 
1.355643e+03 
6.294885e+02 
2.671361e+03 
4.434197e+03 
2.355340e+03 
4.965661e+03 
5.660029e+03 
7.392173e+02 
8.004781e+02 
9.444824e+02 
1.259230e+03 
2.561410e+03 
1.851795e+02 
7.409352e+03 
4.416695e+03 
7.506301e+03 
2.551649e+03 
4.160015e+02 
4.732937e+03 
8.426413e+02 
8.109133e+02 
2.197643e+03 
3.084725e+03 
6.574770e+02 
1.765646e+03 
5.592186e+03 
3.730549e+03 
6.071048e+02 
9.126084e+02 
2.477622e+03 
1.612483e+03 
2.009201e+02 
7.800662e+02 
3.948480e+02 
1.152871e+03 
7.255661e+02 
1.842173e+03 
1.772583e+03 
1.850868e+03 
8.240240e+02 
1.083323e+03 
3.625001e+03 
1.138150e+03 
1.242489e+03 
1.594989e+03 
5.057715e+02 
1.514448e+02 
3.580108e+02 
3.972976e+02 
6.767779e+01 
5.545431e+02 
8.029816e+02 
1.757039e+03 
1.760749e+00 
1.371825e+03 
2.083328e+03 
2.929751e+02 
1.861107e+02 
2.255744e+02 
1.094672e+03 
7.071077e+02 
2.954597e+03 
2.485658e+03 
3.257291e+03 
2.482168e+03 
2.451298e+03 
2.732482e+03 
1.955261e+03 
1.830766e+03 
1.664417e+03 
2.002918e+03 
1.380687e+03 
1.062513e+03 
1.166289e+03 
1.460716e+03 
1.232057e+03 
3.768278e+02 
1.090078e+03 
3.668158e+02 
4.648731e+02 
1.914941e+01 
3.420032e+01 
2.769450e+02 
7.427707e+02 
6.573015e+02 
7.507260e+02 
1.019512e+03 
9.790073e+02 
9.226112e+02 
8.494345e+02 
9.912820e+02 
1.143648e+03 
9.581164e+02 
1.024173e+03 
7.714652e+02 
8.042985e+02 
6.875524e+02 
5.540686e+02 
3.922102e+02 
2.154788e+02 
1.866713e+02 
4.720206e+01 
4.106127e+00 
8.957608e+01 
8.379603e+01 
3.149269e+01 
1.203648e+02 
1.529619e+02 
1.367953e+02 
2.397243e+01 
3.729675e+02 
1.081475e+02 
4.892433e+01 
3.572039e+03 
