# vtk DataFile Version 2.0
fNorm
ASCII
DATASET UNSTRUCTURED_GRID

FIELD FieldData 1
TIME 1 1 double
0.24000000
POINTS 310 float
1.004988630937229e+00 2.004443766390271e+00 0.000000000000000e+00
1.020877854178500e+00 2.016958085624085e+00 0.000000000000000e+00
1.036551508164668e+00 2.029679778887299e+00 0.000000000000000e+00
1.052367193454964e+00 2.042395300170053e+00 0.000000000000000e+00
1.067759016661172e+00 2.055285258999926e+00 0.000000000000000e+00
1.084025071647659e+00 2.067541922027389e+00 0.000000000000000e+00
1.100417316195897e+00 2.079119909996011e+00 0.000000000000000e+00
1.116592166167364e+00 2.091475512825873e+00 0.000000000000000e+00
1.133704551184755e+00 2.102203798872761e+00 0.000000000000000e+00
1.150140584543779e+00 2.113982377751759e+00 0.000000000000000e+00
1.168003380068209e+00 2.123349540141165e+00 0.000000000000000e+00
1.185165801415361e+00 2.134144823317254e+00 0.000000000000000e+00
1.203339979960652e+00 2.143006327611127e+00 0.000000000000000e+00
1.221205045665485e+00 2.152623834030520e+00 0.000000000000000e+00
1.239856082790660e+00 2.160262516765243e+00 0.000000000000000e+00
1.258324144550938e+00 2.168499861931160e+00 0.000000000000000e+00
1.277246508927072e+00 2.175767195175079e+00 0.000000000000000e+00
1.296158089281924e+00 2.182765219899401e+00 0.000000000000000e+00
1.315124696840501e+00 2.190120354548797e+00 0.000000000000000e+00
1.334295719873268e+00 2.196300090278462e+00 0.000000000000000e+00
1.353452349429418e+00 2.203044703615535e+00 0.000000000000000e+00
1.372616973563078e+00 2.209289542043782e+00 0.000000000000000e+00
1.391731688540979e+00 2.216204052235463e+00 0.000000000000000e+00
1.410595763260575e+00 2.223079992761221e+00 0.000000000000000e+00
1.429829580607012e+00 2.230057286020565e+00 0.000000000000000e+00
1.448465178705046e+00 2.237129884168900e+00 0.000000000000000e+00
1.467556386005602e+00 2.244849803727426e+00 0.000000000000000e+00
1.485767221357619e+00 2.252939277346398e+00 0.000000000000000e+00
1.504697543959948e+00 2.260829349198735e+00 0.000000000000000e+00
1.523541518153334e+00 2.267933595926402e+00 0.000000000000000e+00
1.541643544728291e+00 2.276961047929349e+00 0.000000000000000e+00
1.560745458673074e+00 2.284135853720710e+00 0.000000000000000e+00
1.579335959799597e+00 2.292125319597160e+00 0.000000000000000e+00
1.597691207803356e+00 2.300695408894446e+00 0.000000000000000e+00
1.616772570661940e+00 2.307734674379725e+00 0.000000000000000e+00
1.635817634682519e+00 2.314787399272186e+00 0.000000000000000e+00
1.654187972538304e+00 2.323595499397446e+00 0.000000000000000e+00
1.674138975706017e+00 2.326831684235303e+00 0.000000000000000e+00
1.692746346494755e+00 2.335294127866734e+00 0.000000000000000e+00
1.712054563696331e+00 2.341315649419593e+00 0.000000000000000e+00
1.731997789406109e+00 2.345551099961419e+00 0.000000000000000e+00
1.751101473046729e+00 2.351893882847527e+00 0.000000000000000e+00
1.770787831995644e+00 2.357611162680774e+00 0.000000000000000e+00
1.790199285467036e+00 2.362695279690507e+00 0.000000000000000e+00
1.810013287153267e+00 2.367907390447062e+00 0.000000000000000e+00
1.829781372622118e+00 2.370635989193456e+00 0.000000000000000e+00
1.848579663057097e+00 2.378790578321569e+00 0.000000000000000e+00
1.868704905863052e+00 2.381085054554518e+00 0.000000000000000e+00
1.888165787792665e+00 2.386327592240208e+00 0.000000000000000e+00
1.907841571265943e+00 2.391067062676272e+00 0.000000000000000e+00
1.927198251812754e+00 2.396845698341026e+00 0.000000000000000e+00
1.947369382637308e+00 2.398650168494016e+00 0.000000000000000e+00
1.967348071959836e+00 2.401277382243976e+00 0.000000000000000e+00
1.987313513664937e+00 2.403367199475598e+00 0.000000000000000e+00
2.007363673915811e+00 2.405923492722953e+00 0.000000000000000e+00
2.027466326222195e+00 2.404052949680073e+00 0.000000000000000e+00
2.047509081632893e+00 2.402537828533576e+00 0.000000000000000e+00
2.067603185752489e+00 2.403683508529335e+00 0.000000000000000e+00
2.087553405221979e+00 2.400276690732487e+00 0.000000000000000e+00
2.107051453017419e+00 2.396434976700064e+00 0.000000000000000e+00
2.127369042716450e+00 2.393982877405025e+00 0.000000000000000e+00
2.146883763661904e+00 2.392162655689273e+00 0.000000000000000e+00
2.166872728633309e+00 2.388884558095075e+00 0.000000000000000e+00
2.186530531214406e+00 2.383245956589554e+00 0.000000000000000e+00
2.206210310619501e+00 2.381573612698979e+00 0.000000000000000e+00
2.225866677527867e+00 2.379107972984437e+00 0.000000000000000e+00
2.245373274399876e+00 2.372751324376039e+00 0.000000000000000e+00
2.264459603095868e+00 2.366501293018713e+00 0.000000000000000e+00
2.284044067326833e+00 2.361909078695070e+00 0.000000000000000e+00
2.303257678038680e+00 2.359092091578958e+00 0.000000000000000e+00
2.323067343827978e+00 2.353123108874652e+00 0.000000000000000e+00
2.342292094722737e+00 2.346932719673548e+00 0.000000000000000e+00
2.361544338566706e+00 2.342665849156045e+00 0.000000000000000e+00
2.381093817682512e+00 2.338243243534808e+00 0.000000000000000e+00
2.400131780156967e+00 2.331039426748498e+00 0.000000000000000e+00
2.418992763778803e+00 2.322782470396096e+00 0.000000000000000e+00
2.437715330748507e+00 2.316268898330325e+00 0.000000000000000e+00
2.456846249600832e+00 2.310008570583868e+00 0.000000000000000e+00
2.476210774379918e+00 2.302800334267635e+00 0.000000000000000e+00
2.495103420701196e+00 2.296098659161145e+00 0.000000000000000e+00
2.514731596267097e+00 2.290935535399485e+00 0.000000000000000e+00
2.534555708429238e+00 2.287226860917370e+00 0.000000000000000e+00
2.554035701518441e+00 2.281309035808408e+00 0.000000000000000e+00
2.573875442063993e+00 2.276206768075358e+00 0.000000000000000e+00
2.593780820690939e+00 2.274401489602433e+00 0.000000000000000e+00
2.613802664078656e+00 2.270203463664393e+00 0.000000000000000e+00
2.633606906922132e+00 2.265566113728609e+00 0.000000000000000e+00
2.653618124856803e+00 2.262657776072475e+00 0.000000000000000e+00
2.673845574479713e+00 2.260629265028701e+00 0.000000000000000e+00
2.693842220390337e+00 2.256797911080851e+00 0.000000000000000e+00
2.714063763464453e+00 2.253950957979177e+00 0.000000000000000e+00
2.733993413281504e+00 2.251497201405761e+00 0.000000000000000e+00
2.754392950142019e+00 2.249635049050438e+00 0.000000000000000e+00
2.774565410302648e+00 2.247249126501278e+00 0.000000000000000e+00
2.794594903705136e+00 2.243400617682133e+00 0.000000000000000e+00
2.814620559228083e+00 2.241406511874235e+00 0.000000000000000e+00
2.835117388239728e+00 2.240323971712190e+00 0.000000000000000e+00
2.855370297671775e+00 2.237550114117514e+00 0.000000000000000e+00
2.875397514288876e+00 2.235045218942300e+00 0.000000000000000e+00
2.895568014169946e+00 2.232690306249300e+00 0.000000000000000e+00
2.916138027235119e+00 2.231884571623096e+00 0.000000000000000e+00
2.936298346945326e+00 2.231446145776781e+00 0.000000000000000e+00
2.956829325195693e+00 2.229203844092883e+00 0.000000000000000e+00
2.976731003848371e+00 2.228247538380988e+00 0.000000000000000e+00
2.997622239415452e+00 2.227894974324710e+00 0.000000000000000e+00
3.017651517798198e+00 2.228025756531705e+00 0.000000000000000e+00
3.038267281633571e+00 2.227023392973958e+00 0.000000000000000e+00
3.058466597086106e+00 2.224971404591884e+00 0.000000000000000e+00
3.078917296087868e+00 2.224871344290560e+00 0.000000000000000e+00
3.099131749801275e+00 2.224106699794759e+00 0.000000000000000e+00
3.119788925831860e+00 2.221062775020011e+00 0.000000000000000e+00
3.139612223960658e+00 2.218685811860392e+00 0.000000000000000e+00
3.160333689436626e+00 2.215471003237603e+00 0.000000000000000e+00
3.180553753881000e+00 2.213416940402906e+00 0.000000000000000e+00
3.200497224559073e+00 2.210899886247783e+00 0.000000000000000e+00
3.221229702685314e+00 2.206642831345599e+00 0.000000000000000e+00
3.240770137339152e+00 2.203294981237910e+00 0.000000000000000e+00
3.261765693777039e+00 2.200796243854279e+00 0.000000000000000e+00
3.281507183299761e+00 2.199063040862665e+00 0.000000000000000e+00
3.302431982387255e+00 2.196066697158728e+00 0.000000000000000e+00
3.322528005180328e+00 2.193358240621395e+00 0.000000000000000e+00
3.343128321913578e+00 2.192022627820696e+00 0.000000000000000e+00
3.363479903405149e+00 2.191940826505585e+00 0.000000000000000e+00
3.384393845650446e+00 2.190724230829146e+00 0.000000000000000e+00
3.404679579060984e+00 2.189061289985111e+00 0.000000000000000e+00
3.425402137008303e+00 2.187866807870424e+00 0.000000000000000e+00
3.445909540149892e+00 2.187759907664450e+00 0.000000000000000e+00
3.466649817775588e+00 2.186585152493191e+00 0.000000000000000e+00
3.487101598321542e+00 2.183241621445706e+00 0.000000000000000e+00
3.507356951981616e+00 2.181964872311942e+00 0.000000000000000e+00
3.527825921582592e+00 2.179134394107572e+00 0.000000000000000e+00
3.548605245009534e+00 2.175977488210862e+00 0.000000000000000e+00
3.568187132170995e+00 2.170457448286233e+00 0.000000000000000e+00
3.588270435047577e+00 2.165456709089089e+00 0.000000000000000e+00
3.608832676482151e+00 2.161880487432683e+00 0.000000000000000e+00
3.627650700950730e+00 2.154317271539537e+00 0.000000000000000e+00
3.647212327999897e+00 2.147718499226639e+00 0.000000000000000e+00
3.667414337473524e+00 2.141461029100268e+00 0.000000000000000e+00
3.686400873773040e+00 2.134536031077302e+00 0.000000000000000e+00
3.705778788437575e+00 2.127060548323854e+00 0.000000000000000e+00
3.724892561442027e+00 2.119970093559910e+00 0.000000000000000e+00
3.744704657988924e+00 2.112958504872538e+00 0.000000000000000e+00
3.763583069196780e+00 2.104879829890175e+00 0.000000000000000e+00
3.782395129089938e+00 2.096575259944764e+00 0.000000000000000e+00
3.802160854840905e+00 2.090126957957917e+00 0.000000000000000e+00
3.821197004616806e+00 2.082655963354278e+00 0.000000000000000e+00
3.839754836098504e+00 2.073401425762647e+00 0.000000000000000e+00
3.859232491672303e+00 2.066035499185638e+00 0.000000000000000e+00
3.878048040591506e+00 2.057738200523497e+00 0.000000000000000e+00
3.896338395119638e+00 2.048206621996367e+00 0.000000000000000e+00
3.915054891186228e+00 2.039118211852696e+00 0.000000000000000e+00
3.934161730848356e+00 2.031624391032476e+00 0.000000000000000e+00
3.953274611144542e+00 2.023970048187072e+00 0.000000000000000e+00
3.970453263268055e+00 2.011917130854761e+00 0.000000000000000e+00
3.990121243399923e+00 2.005680444932950e+00 0.000000000000000e+00
1.004988630937228e+00 2.995556233609731e+00 0.000000000000000e+00
1.020877854178498e+00 2.983041914375915e+00 0.000000000000000e+00
1.036551508164667e+00 2.970320221112707e+00 0.000000000000000e+00
1.052367193454962e+00 2.957604699829947e+00 0.000000000000000e+00
1.067759016661167e+00 2.944714741000072e+00 0.000000000000000e+00
1.084025071647655e+00 2.932458077972611e+00 0.000000000000000e+00
1.100417316195893e+00 2.920880090003989e+00 0.000000000000000e+00
1.116592166167359e+00 2.908524487174125e+00 0.000000000000000e+00
1.133704551184751e+00 2.897796201127241e+00 0.000000000000000e+00
1.150140584543774e+00 2.886017622248241e+00 0.000000000000000e+00
1.168003380068202e+00 2.876650459858832e+00 0.000000000000000e+00
1.185165801415354e+00 2.865855176682746e+00 0.000000000000000e+00
1.203339979960647e+00 2.856993672388878e+00 0.000000000000000e+00
1.221205045665480e+00 2.847376165969487e+00 0.000000000000000e+00
1.239856082790652e+00 2.839737483234756e+00 0.000000000000000e+00
1.258324144550932e+00 2.831500138068844e+00 0.000000000000000e+00
1.277246508927066e+00 2.824232804824927e+00 0.000000000000000e+00
1.296158089281918e+00 2.817234780100608e+00 0.000000000000000e+00
1.315124696840495e+00 2.809879645451212e+00 0.000000000000000e+00
1.334295719873260e+00 2.803699909721542e+00 0.000000000000000e+00
1.353452349429412e+00 2.796955296384475e+00 0.000000000000000e+00
1.372616973563068e+00 2.790710457956218e+00 0.000000000000000e+00
1.391731688540974e+00 2.783795947764549e+00 0.000000000000000e+00
1.410595763260565e+00 2.776920007238782e+00 0.000000000000000e+00
1.429829580607003e+00 2.769942713979434e+00 0.000000000000000e+00
1.448465178705035e+00 2.762870115831103e+00 0.000000000000000e+00
1.467556386005592e+00 2.755150196272574e+00 0.000000000000000e+00
1.485767221357607e+00 2.747060722653601e+00 0.000000000000000e+00
1.504697543959935e+00 2.739170650801265e+00 0.000000000000000e+00
1.523541518153321e+00 2.732066404073596e+00 0.000000000000000e+00
1.541643544728278e+00 2.723038952070649e+00 0.000000000000000e+00
1.560745458673061e+00 2.715864146279290e+00 0.000000000000000e+00
1.579335959799584e+00 2.707874680402836e+00 0.000000000000000e+00
1.597691207803341e+00 2.699304591105551e+00 0.000000000000000e+00
1.616772570661926e+00 2.692265325620270e+00 0.000000000000000e+00
1.635817634682504e+00 2.685212600727812e+00 0.000000000000000e+00
1.654187972538289e+00 2.676404500602549e+00 0.000000000000000e+00
1.674138975706002e+00 2.673168315764700e+00 0.000000000000000e+00
1.692746346494740e+00 2.664705872133268e+00 0.000000000000000e+00
1.712054563696317e+00 2.658684350580414e+00 0.000000000000000e+00
1.731997789406095e+00 2.654448900038590e+00 0.000000000000000e+00
1.751101473046714e+00 2.648106117152477e+00 0.000000000000000e+00
1.770787831995630e+00 2.642388837319233e+00 0.000000000000000e+00
1.790199285467022e+00 2.637304720309504e+00 0.000000000000000e+00
1.810013287153253e+00 2.632092609552950e+00 0.000000000000000e+00
1.829781372622106e+00 2.629364010806572e+00 0.000000000000000e+00
1.848579663057080e+00 2.621209421678449e+00 0.000000000000000e+00
1.868704905863037e+00 2.618914945445498e+00 0.000000000000000e+00
1.888165787792649e+00 2.613672407759817e+00 0.000000000000000e+00
1.907841571265931e+00 2.608932937323754e+00 0.000000000000000e+00
1.927198251812742e+00 2.603154301659004e+00 0.000000000000000e+00
1.947369382637296e+00 2.601349831506020e+00 0.000000000000000e+00
1.967348071959823e+00 2.598722617756066e+00 0.000000000000000e+00
1.987313513664928e+00 2.596632800524442e+00 0.000000000000000e+00
2.007363673915803e+00 2.594076507277097e+00 0.000000000000000e+00
2.027466326222183e+00 2.595947050319970e+00 0.000000000000000e+00
2.047509081632884e+00 2.597462171466467e+00 0.000000000000000e+00
2.067603185752479e+00 2.596316491470714e+00 0.000000000000000e+00
2.087553405221970e+00 2.599723309267551e+00 0.000000000000000e+00
2.107051453017414e+00 2.603565023299981e+00 0.000000000000000e+00
2.127369042716441e+00 2.606017122595010e+00 0.000000000000000e+00
2.146883763661896e+00 2.607837344310764e+00 0.000000000000000e+00
2.166872728633301e+00 2.611115441904967e+00 0.000000000000000e+00
2.186530531214403e+00 2.616754043410474e+00 0.000000000000000e+00
2.206210310619495e+00 2.618426387301040e+00 0.000000000000000e+00
2.225866677527863e+00 2.620892027015596e+00 0.000000000000000e+00
2.245373274399866e+00 2.627248675624000e+00 0.000000000000000e+00
2.264459603095865e+00 2.633498706981322e+00 0.000000000000000e+00
2.284044067326827e+00 2.638090921304959e+00 0.000000000000000e+00
2.303257678038676e+00 2.640907908421069e+00 0.000000000000000e+00
2.323067343827975e+00 2.646876891125379e+00 0.000000000000000e+00
2.342292094722727e+00 2.653067280326488e+00 0.000000000000000e+00
2.361544338566703e+00 2.657334150843988e+00 0.000000000000000e+00
2.381093817682506e+00 2.661756756465226e+00 0.000000000000000e+00
2.400131780156964e+00 2.668960573251529e+00 0.000000000000000e+00
2.418992763778796e+00 2.677217529603933e+00 0.000000000000000e+00
2.437715330748500e+00 2.683731101669714e+00 0.000000000000000e+00
2.456846249600824e+00 2.689991429416166e+00 0.000000000000000e+00
2.476210774379909e+00 2.697199665732400e+00 0.000000000000000e+00
2.495103420701191e+00 2.703901340838889e+00 0.000000000000000e+00
2.514731596267090e+00 2.709064464600548e+00 0.000000000000000e+00
2.534555708429232e+00 2.712773139082659e+00 0.000000000000000e+00
2.554035701518433e+00 2.718690964191627e+00 0.000000000000000e+00
2.573875442063987e+00 2.723793231924667e+00 0.000000000000000e+00
2.593780820690932e+00 2.725598510397591e+00 0.000000000000000e+00
2.613802664078651e+00 2.729796536335631e+00 0.000000000000000e+00
2.633606906922127e+00 2.734433886271414e+00 0.000000000000000e+00
2.653618124856799e+00 2.737342223927542e+00 0.000000000000000e+00
2.673845574479710e+00 2.739370734971315e+00 0.000000000000000e+00
2.693842220390334e+00 2.743202088919159e+00 0.000000000000000e+00
2.714063763464450e+00 2.746049042020848e+00 0.000000000000000e+00
2.733993413281500e+00 2.748502798594255e+00 0.000000000000000e+00
2.754392950142016e+00 2.750364950949564e+00 0.000000000000000e+00
2.774565410302644e+00 2.752750873498742e+00 0.000000000000000e+00
2.794594903705130e+00 2.756599382317884e+00 0.000000000000000e+00
2.814620559228080e+00 2.758593488125773e+00 0.000000000000000e+00
2.835117388239727e+00 2.759676028287809e+00 0.000000000000000e+00
2.855370297671768e+00 2.762449885882494e+00 0.000000000000000e+00
2.875397514288877e+00 2.764954781057708e+00 0.000000000000000e+00
2.895568014169944e+00 2.767309693750695e+00 0.000000000000000e+00
2.916138027235118e+00 2.768115428376895e+00 0.000000000000000e+00
2.936298346945321e+00 2.768553854223215e+00 0.000000000000000e+00
2.956829325195691e+00 2.770796155907111e+00 0.000000000000000e+00
2.976731003848370e+00 2.771752461618988e+00 0.000000000000000e+00
2.997622239415449e+00 2.772105025675266e+00 0.000000000000000e+00
3.017651517798196e+00 2.771974243468271e+00 0.000000000000000e+00
3.038267281633568e+00 2.772976607026027e+00 0.000000000000000e+00
3.058466597086106e+00 2.775028595408095e+00 0.000000000000000e+00
3.078917296087865e+00 2.775128655709404e+00 0.000000000000000e+00
3.099131749801278e+00 2.775893300205208e+00 0.000000000000000e+00
3.119788925831853e+00 2.778937224979968e+00 0.000000000000000e+00
3.139612223960661e+00 2.781314188139579e+00 0.000000000000000e+00
3.160333689436625e+00 2.784528996762359e+00 0.000000000000000e+00
3.180553753881000e+00 2.786583059597060e+00 0.000000000000000e+00
3.200497224559073e+00 2.789100113752188e+00 0.000000000000000e+00
3.221229702685315e+00 2.793357168654375e+00 0.000000000000000e+00
3.240770137339154e+00 2.796705018762049e+00 0.000000000000000e+00
3.261765693777042e+00 2.799203756145683e+00 0.000000000000000e+00
3.281507183299761e+00 2.800936959137308e+00 0.000000000000000e+00
3.302431982387258e+00 2.803933302841258e+00 0.000000000000000e+00
3.322528005180323e+00 2.806641759378576e+00 0.000000000000000e+00
3.343128321913586e+00 2.807977372179277e+00 0.000000000000000e+00
3.363479903405144e+00 2.808059173494390e+00 0.000000000000000e+00
3.384393845650451e+00 2.809275769170843e+00 0.000000000000000e+00
3.404679579060980e+00 2.810938710014872e+00 0.000000000000000e+00
3.425402137008303e+00 2.812133192129549e+00 0.000000000000000e+00
3.445909540149890e+00 2.812240092335533e+00 0.000000000000000e+00
3.466649817775586e+00 2.813414847506800e+00 0.000000000000000e+00
3.487101598321540e+00 2.816758378554280e+00 0.000000000000000e+00
3.507356951981615e+00 2.818035127688043e+00 0.000000000000000e+00
3.527825921582593e+00 2.820865605892421e+00 0.000000000000000e+00
3.548605245009528e+00 2.824022511789129e+00 0.000000000000000e+00
3.568187132170994e+00 2.829542551713757e+00 0.000000000000000e+00
3.588270435047578e+00 2.834543290910895e+00 0.000000000000000e+00
3.608832676482150e+00 2.838119512567310e+00 0.000000000000000e+00
3.627650700950724e+00 2.845682728460459e+00 0.000000000000000e+00
3.647212327999896e+00 2.852281500773354e+00 0.000000000000000e+00
3.667414337473520e+00 2.858538970899725e+00 0.000000000000000e+00
3.686400873773036e+00 2.865463968922693e+00 0.000000000000000e+00
3.705778788437575e+00 2.872939451676144e+00 0.000000000000000e+00
3.724892561442017e+00 2.880029906440094e+00 0.000000000000000e+00
3.744704657988919e+00 2.887041495127475e+00 0.000000000000000e+00
3.763583069196766e+00 2.895120170109840e+00 0.000000000000000e+00
3.782395129089930e+00 2.903424740055251e+00 0.000000000000000e+00
3.802160854840893e+00 2.909873042042099e+00 0.000000000000000e+00
3.821197004616800e+00 2.917344036645735e+00 0.000000000000000e+00
3.839754836098491e+00 2.926598574237369e+00 0.000000000000000e+00
3.859232491672293e+00 2.933964500814382e+00 0.000000000000000e+00
3.878048040591493e+00 2.942261799476521e+00 0.000000000000000e+00
3.896338395119633e+00 2.951793378003646e+00 0.000000000000000e+00
3.915054891186219e+00 2.960881788147314e+00 0.000000000000000e+00
3.934161730848349e+00 2.968375608967539e+00 0.000000000000000e+00
3.953274611144535e+00 2.976029951812940e+00 0.000000000000000e+00
3.970453263268052e+00 2.988082869145245e+00 0.000000000000000e+00
3.990121243399921e+00 2.994319555067055e+00 0.000000000000000e+00

POINT_DATA   310
SCALARS fNorm double
LOOKUP_TABLE default

2.368103e+02 
1.054842e+02 
1.716105e+01 
1.262645e+02 
4.302817e+02 
2.608354e+02 
2.229947e+02 
7.404911e+02 
3.556234e+02 
1.013592e+03 
4.835947e+02 
8.425734e+02 
2.073766e+02 
8.211346e+02 
1.472469e+02 
4.343102e+02 
1.194145e+02 
9.246569e+01 
4.632562e+02 
1.698390e+02 
1.647352e+02 
2.506026e+02 
3.904000e+01 
1.148018e+01 
1.411676e+02 
1.903795e+02 
3.048722e+02 
2.155751e+02 
2.493001e+02 
7.310149e+02 
8.523774e+02 
3.979586e+02 
2.463686e+02 
7.218014e+02 
3.588858e+01 
7.313107e+02 
2.351943e+03 
2.246778e+03 
1.094558e+03 
8.646794e+02 
8.574320e+02 
3.028712e+02 
2.718135e+02 
9.084687e+01 
8.257818e+02 
1.943534e+03 
2.601160e+03 
1.012723e+03 
7.316505e+01 
3.118356e+02 
1.587213e+03 
1.982778e+02 
1.377971e+02 
3.408897e+01 
1.726623e+03 
5.860890e+01 
7.833182e+02 
1.689852e+03 
2.575597e+02 
5.575115e+02 
1.808847e+02 
4.020237e+02 
1.005020e+03 
1.205354e+03 
1.418587e+02 
1.423561e+03 
9.590704e+01 
6.104920e+02 
2.713472e+02 
8.418820e+02 
3.288876e+01 
7.773070e+02 
3.052055e+02 
5.555746e+02 
1.958254e+02 
1.378841e+03 
1.527832e+02 
3.634174e+02 
1.075920e+02 
6.620363e+02 
5.804255e+02 
8.640166e+02 
4.807884e+02 
1.278054e+03 
8.548742e+02 
2.548593e+02 
7.620092e+02 
3.730333e+02 
7.891421e+02 
4.342787e+02 
2.136176e+02 
2.675048e+02 
2.808175e+02 
6.263827e+02 
7.718085e+02 
4.465675e+02 
8.623002e+02 
6.076296e+01 
1.481337e+02 
8.550316e+02 
1.362275e+02 
8.067770e+02 
4.457038e+02 
4.057991e+02 
1.892098e+02 
5.462835e+02 
5.757542e+02 
8.557417e+02 
3.162147e+02 
1.272177e+03 
2.147943e+02 
3.671680e+02 
6.264069e+02 
2.119635e+02 
1.051023e+03 
4.752485e+02 
4.546565e+02 
4.467882e+02 
6.727290e+02 
2.100309e+02 
7.595260e+02 
7.061598e+02 
6.578758e+02 
2.766540e+02 
3.192136e+02 
6.598669e+02 
6.355487e+02 
1.364860e+03 
9.713783e+02 
6.895943e+02 
2.798373e+02 
1.643851e+03 
3.118480e+02 
8.594276e+02 
2.398351e+03 
4.823121e+02 
3.757147e+02 
6.548865e+02 
2.509338e+02 
1.497232e+02 
1.640349e+02 
8.624479e+02 
9.229945e+01 
1.246265e+03 
7.216320e+02 
1.026855e+03 
1.310213e+03 
6.727521e+02 
7.910499e+02 
3.752806e+02 
9.936533e+02 
1.822903e+02 
2.978852e+03 
4.090324e+03 
2.301344e+03 
2.368103e+02 
1.054842e+02 
1.716105e+01 
1.262645e+02 
4.302817e+02 
2.608354e+02 
2.229947e+02 
7.404911e+02 
3.556234e+02 
1.013592e+03 
4.835947e+02 
8.425734e+02 
2.073766e+02 
8.211346e+02 
1.472469e+02 
4.343102e+02 
1.194145e+02 
9.246569e+01 
4.632562e+02 
1.698390e+02 
1.647352e+02 
2.506026e+02 
3.904000e+01 
1.148018e+01 
1.411676e+02 
1.903795e+02 
3.048722e+02 
2.155751e+02 
2.493001e+02 
7.310149e+02 
8.523774e+02 
3.979586e+02 
2.463686e+02 
7.218014e+02 
3.588858e+01 
7.313107e+02 
2.351943e+03 
2.246778e+03 
1.094558e+03 
8.646794e+02 
8.574320e+02 
3.028712e+02 
2.718135e+02 
9.084687e+01 
8.257818e+02 
1.943534e+03 
2.601160e+03 
1.012723e+03 
7.316505e+01 
3.118356e+02 
1.587213e+03 
1.982778e+02 
1.377971e+02 
3.408897e+01 
1.726623e+03 
5.860890e+01 
7.833182e+02 
1.689852e+03 
2.575597e+02 
5.575115e+02 
1.808847e+02 
4.020237e+02 
1.005020e+03 
1.205354e+03 
1.418587e+02 
1.423561e+03 
9.590704e+01 
6.104920e+02 
2.713472e+02 
8.418820e+02 
3.288876e+01 
7.773070e+02 
3.052055e+02 
5.555746e+02 
1.958254e+02 
1.378841e+03 
1.527832e+02 
3.634174e+02 
1.075920e+02 
6.620363e+02 
5.804255e+02 
8.640166e+02 
4.807884e+02 
1.278054e+03 
8.548742e+02 
2.548593e+02 
7.620092e+02 
3.730333e+02 
7.891421e+02 
4.342787e+02 
2.136176e+02 
2.675048e+02 
2.808175e+02 
6.263827e+02 
7.718085e+02 
4.465675e+02 
8.623002e+02 
6.076296e+01 
1.481337e+02 
8.550316e+02 
1.362275e+02 
8.067770e+02 
4.457038e+02 
4.057991e+02 
1.892098e+02 
5.462835e+02 
5.757542e+02 
8.557417e+02 
3.162147e+02 
1.272177e+03 
2.147943e+02 
3.671680e+02 
6.264069e+02 
2.119635e+02 
1.051023e+03 
4.752485e+02 
4.546565e+02 
4.467882e+02 
6.727290e+02 
2.100309e+02 
7.595260e+02 
7.061598e+02 
6.578758e+02 
2.766540e+02 
3.192136e+02 
6.598669e+02 
6.355487e+02 
1.364860e+03 
9.713783e+02 
6.895943e+02 
2.798373e+02 
1.643851e+03 
3.118480e+02 
8.594276e+02 
2.398351e+03 
4.823121e+02 
3.757147e+02 
6.548865e+02 
2.509338e+02 
1.497232e+02 
1.640349e+02 
8.624479e+02 
9.229945e+01 
1.246265e+03 
7.216320e+02 
1.026855e+03 
1.310213e+03 
6.727521e+02 
7.910499e+02 
3.752806e+02 
9.936533e+02 
1.822903e+02 
2.978852e+03 
4.090324e+03 
2.301344e+03 
