# vtk DataFile Version 2.0
fNorm
ASCII
DATASET UNSTRUCTURED_GRID

FIELD FieldData 1
TIME 1 1 double
0.23500000
POINTS 310 float
1.006542576331659e+00 2.005581167971598e+00 0.000000000000000e+00
1.022593550028011e+00 2.018162687819355e+00 0.000000000000000e+00
1.038622219303422e+00 2.030450333718504e+00 0.000000000000000e+00
1.055084021675335e+00 2.042660825056372e+00 0.000000000000000e+00
1.071314730047448e+00 2.054872536033773e+00 0.000000000000000e+00
1.088532637691271e+00 2.066172013706924e+00 0.000000000000000e+00
1.105810507771255e+00 2.076538968609924e+00 0.000000000000000e+00
1.122864584991601e+00 2.087834576920916e+00 0.000000000000000e+00
1.140701413852151e+00 2.097528155039519e+00 0.000000000000000e+00
1.158036949548829e+00 2.108335272013876e+00 0.000000000000000e+00
1.176543028761555e+00 2.116687062495902e+00 0.000000000000000e+00
1.194267676072297e+00 2.126643337240365e+00 0.000000000000000e+00
1.212811686763033e+00 2.134855500624750e+00 0.000000000000000e+00
1.230928454775221e+00 2.144254162170689e+00 0.000000000000000e+00
1.249557516424260e+00 2.152143978697095e+00 0.000000000000000e+00
1.267820157050428e+00 2.161058272769524e+00 0.000000000000000e+00
1.286471931161594e+00 2.169061638936051e+00 0.000000000000000e+00
1.305096681820710e+00 2.176789567794636e+00 0.000000000000000e+00
1.323770276619768e+00 2.185041026620276e+00 0.000000000000000e+00
1.342571223334429e+00 2.192285157441335e+00 0.000000000000000e+00
1.361327143489390e+00 2.200048790123935e+00 0.000000000000000e+00
1.380233058928274e+00 2.207064603271041e+00 0.000000000000000e+00
1.399273087638862e+00 2.214235045484509e+00 0.000000000000000e+00
1.418231349430838e+00 2.220909316481616e+00 0.000000000000000e+00
1.437614883451150e+00 2.227415136712383e+00 0.000000000000000e+00
1.456481550989683e+00 2.233755154661765e+00 0.000000000000000e+00
1.476035157831726e+00 2.240161016599794e+00 0.000000000000000e+00
1.494902120398506e+00 2.246473500850474e+00 0.000000000000000e+00
1.514501133161294e+00 2.252471558313645e+00 0.000000000000000e+00
1.533801243637885e+00 2.257898872908583e+00 0.000000000000000e+00
1.552518818985857e+00 2.265672149372925e+00 0.000000000000000e+00
1.571880536733768e+00 2.271530095010766e+00 0.000000000000000e+00
1.590866247116123e+00 2.278373981867240e+00 0.000000000000000e+00
1.609563384785280e+00 2.285932092649200e+00 0.000000000000000e+00
1.628721024269800e+00 2.292632613593975e+00 0.000000000000000e+00
1.647462663808549e+00 2.300133993940294e+00 0.000000000000000e+00
1.665162288363178e+00 2.310024867082270e+00 0.000000000000000e+00
1.684810283561787e+00 2.314591477335448e+00 0.000000000000000e+00
1.702543003694683e+00 2.324690773696505e+00 0.000000000000000e+00
1.721004958507175e+00 2.332763715437649e+00 0.000000000000000e+00
1.740232118719054e+00 2.339344557840748e+00 0.000000000000000e+00
1.758455010171924e+00 2.347804591596258e+00 0.000000000000000e+00
1.777509239223298e+00 2.355473866503973e+00 0.000000000000000e+00
1.796358727366040e+00 2.362284460686267e+00 0.000000000000000e+00
1.815779585256754e+00 2.368754156286001e+00 0.000000000000000e+00
1.835472761585824e+00 2.372046968680208e+00 0.000000000000000e+00
1.854580117594397e+00 2.379986290316076e+00 0.000000000000000e+00
1.874769083017129e+00 2.381702562049800e+00 0.000000000000000e+00
1.894421384292593e+00 2.386025124952692e+00 0.000000000000000e+00
1.914503491628099e+00 2.389787736685353e+00 0.000000000000000e+00
1.934240626273193e+00 2.394715102709186e+00 0.000000000000000e+00
1.954608791858329e+00 2.396000865769351e+00 0.000000000000000e+00
1.974559308130245e+00 2.398771135465054e+00 0.000000000000000e+00
1.994710113356160e+00 2.401717830879497e+00 0.000000000000000e+00
2.014749579970202e+00 2.405915130048539e+00 0.000000000000000e+00
2.035125544769944e+00 2.406181247359835e+00 0.000000000000000e+00
2.055262448849164e+00 2.407229505181348e+00 0.000000000000000e+00
2.075267770792656e+00 2.411096925347898e+00 0.000000000000000e+00
2.095777712383530e+00 2.410401321083503e+00 0.000000000000000e+00
2.115765152468318e+00 2.408998042753510e+00 0.000000000000000e+00
2.136522569530201e+00 2.408211015654526e+00 0.000000000000000e+00
2.156423689608657e+00 2.407168302504479e+00 0.000000000000000e+00
2.176735383433988e+00 2.403719838810112e+00 0.000000000000000e+00
2.196196778278616e+00 2.397296803646257e+00 0.000000000000000e+00
2.216307733762447e+00 2.394692694764031e+00 0.000000000000000e+00
2.236368577947248e+00 2.391672024323742e+00 0.000000000000000e+00
2.255927770262925e+00 2.385425514513829e+00 0.000000000000000e+00
2.275427489453437e+00 2.379544577436087e+00 0.000000000000000e+00
2.295513767444793e+00 2.374869976819309e+00 0.000000000000000e+00
2.315109542021439e+00 2.371455743358144e+00 0.000000000000000e+00
2.334811274753802e+00 2.364552741335759e+00 0.000000000000000e+00
2.353927218215670e+00 2.357040488685409e+00 0.000000000000000e+00
2.373196892375577e+00 2.351054017474492e+00 0.000000000000000e+00
2.392731867623626e+00 2.344953281648827e+00 0.000000000000000e+00
2.411735776421205e+00 2.337197856234141e+00 0.000000000000000e+00
2.430951957209154e+00 2.329428250313153e+00 0.000000000000000e+00
2.450357363764324e+00 2.323860061657158e+00 0.000000000000000e+00
2.470018325180560e+00 2.318534806513767e+00 0.000000000000000e+00
2.489710226153453e+00 2.311967242338984e+00 0.000000000000000e+00
2.508894467060710e+00 2.305275678102673e+00 0.000000000000000e+00
2.528641110651234e+00 2.299599748036291e+00 0.000000000000000e+00
2.548616221260487e+00 2.295305679288119e+00 0.000000000000000e+00
2.568003999364892e+00 2.288923357693021e+00 0.000000000000000e+00
2.587899394349797e+00 2.283273364419726e+00 0.000000000000000e+00
2.607919223008066e+00 2.280508392361198e+00 0.000000000000000e+00
2.627739796704457e+00 2.274963648415295e+00 0.000000000000000e+00
2.647416698534388e+00 2.269171625454951e+00 0.000000000000000e+00
2.667527058787700e+00 2.265485180909363e+00 0.000000000000000e+00
2.687737667551572e+00 2.262636854607736e+00 0.000000000000000e+00
2.707546549189920e+00 2.257769469228806e+00 0.000000000000000e+00
2.727718248300567e+00 2.254149132149713e+00 0.000000000000000e+00
2.747832679330912e+00 2.251445753089869e+00 0.000000000000000e+00
2.768304969316029e+00 2.249743519076401e+00 0.000000000000000e+00
2.788407035286536e+00 2.247824971587242e+00 0.000000000000000e+00
2.808742777033140e+00 2.245018048704026e+00 0.000000000000000e+00
2.829027028771455e+00 2.244652663738983e+00 0.000000000000000e+00
2.849428766656367e+00 2.245617907771698e+00 0.000000000000000e+00
2.869775149383256e+00 2.244974184849374e+00 0.000000000000000e+00
2.889947537854982e+00 2.244677068127786e+00 0.000000000000000e+00
2.910383821697763e+00 2.244556705070591e+00 0.000000000000000e+00
2.930855414430436e+00 2.245802948571769e+00 0.000000000000000e+00
2.950826113857363e+00 2.246774734246665e+00 0.000000000000000e+00
2.971465554825899e+00 2.244881498944502e+00 0.000000000000000e+00
2.991217347406498e+00 2.243467641625215e+00 0.000000000000000e+00
3.012016744826469e+00 2.242680747276128e+00 0.000000000000000e+00
3.031989714055054e+00 2.242115362871796e+00 0.000000000000000e+00
3.052333505750493e+00 2.239418477855140e+00 0.000000000000000e+00
3.072118070654616e+00 2.235094566727521e+00 0.000000000000000e+00
3.092426231766041e+00 2.232994426880068e+00 0.000000000000000e+00
3.112603546245391e+00 2.230700608326276e+00 0.000000000000000e+00
3.132877420944333e+00 2.226545048961529e+00 0.000000000000000e+00
3.152269628531697e+00 2.223339036198271e+00 0.000000000000000e+00
3.172663781722746e+00 2.219113193591276e+00 0.000000000000000e+00
3.192799260097508e+00 2.216119448242923e+00 0.000000000000000e+00
3.212491639805807e+00 2.212760617426150e+00 0.000000000000000e+00
3.232756924462572e+00 2.207495405201655e+00 0.000000000000000e+00
3.251975369712864e+00 2.203074331486963e+00 0.000000000000000e+00
3.272648744207581e+00 2.199004173571137e+00 0.000000000000000e+00
3.291968932374898e+00 2.195356519206018e+00 0.000000000000000e+00
3.312124435048047e+00 2.190012365673827e+00 0.000000000000000e+00
3.331578630134370e+00 2.184802842226663e+00 0.000000000000000e+00
3.351643272502233e+00 2.180419127324699e+00 0.000000000000000e+00
3.371475910663493e+00 2.176860472683716e+00 0.000000000000000e+00
3.391481084677558e+00 2.171886833963816e+00 0.000000000000000e+00
3.410954983241314e+00 2.166614929726242e+00 0.000000000000000e+00
3.431145223947194e+00 2.162504831298727e+00 0.000000000000000e+00
3.451257663334605e+00 2.160364506110500e+00 0.000000000000000e+00
3.471471991854094e+00 2.157578739745813e+00 0.000000000000000e+00
3.491557577807878e+00 2.153160213137546e+00 0.000000000000000e+00
3.511572633609809e+00 2.151893682711658e+00 0.000000000000000e+00
3.532008476431145e+00 2.150118726927536e+00 0.000000000000000e+00
3.552551496233002e+00 2.148505137934743e+00 0.000000000000000e+00
3.572251922544764e+00 2.144932904385076e+00 0.000000000000000e+00
3.592604682771356e+00 2.142557981282397e+00 0.000000000000000e+00
3.613075307216694e+00 2.142531629571419e+00 0.000000000000000e+00
3.632947380107659e+00 2.138592689788784e+00 0.000000000000000e+00
3.653016045602814e+00 2.135803678943839e+00 0.000000000000000e+00
3.673496812293860e+00 2.132824751374940e+00 0.000000000000000e+00
3.692944899026369e+00 2.128265884945014e+00 0.000000000000000e+00
3.712728054777926e+00 2.122875190024546e+00 0.000000000000000e+00
3.732105117095518e+00 2.117417666540573e+00 0.000000000000000e+00
3.752012558618318e+00 2.111779710716854e+00 0.000000000000000e+00
3.770676488839064e+00 2.104455962789392e+00 0.000000000000000e+00
3.789094819053796e+00 2.096415965638041e+00 0.000000000000000e+00
3.808733741235577e+00 2.089458156135002e+00 0.000000000000000e+00
3.827129616305158e+00 2.081210102206326e+00 0.000000000000000e+00
3.844678199906474e+00 2.071315043771460e+00 0.000000000000000e+00
3.863862224352026e+00 2.064014948850740e+00 0.000000000000000e+00
3.882806187209102e+00 2.056345221446288e+00 0.000000000000000e+00
3.900814887453999e+00 2.047289602430952e+00 0.000000000000000e+00
3.919089930544419e+00 2.038271109758869e+00 0.000000000000000e+00
3.937939882042302e+00 2.030615280747589e+00 0.000000000000000e+00
3.956789372431850e+00 2.022771458198304e+00 0.000000000000000e+00
3.973236466191420e+00 2.010681836279633e+00 0.000000000000000e+00
3.992551838622611e+00 2.004177136203789e+00 0.000000000000000e+00
1.006542576331660e+00 2.994418832028402e+00 0.000000000000000e+00
1.022593550028011e+00 2.981837312180643e+00 0.000000000000000e+00
1.038622219303425e+00 2.969549666281501e+00 0.000000000000000e+00
1.055084021675337e+00 2.957339174943631e+00 0.000000000000000e+00
1.071314730047449e+00 2.945127463966231e+00 0.000000000000000e+00
1.088532637691275e+00 2.933827986293082e+00 0.000000000000000e+00
1.105810507771258e+00 2.923461031390084e+00 0.000000000000000e+00
1.122864584991605e+00 2.912165423079091e+00 0.000000000000000e+00
1.140701413852157e+00 2.902471844960494e+00 0.000000000000000e+00
1.158036949548836e+00 2.891664727986138e+00 0.000000000000000e+00
1.176543028761563e+00 2.883312937504111e+00 0.000000000000000e+00
1.194267676072304e+00 2.873356662759650e+00 0.000000000000000e+00
1.212811686763043e+00 2.865144499375267e+00 0.000000000000000e+00
1.230928454775229e+00 2.855745837829327e+00 0.000000000000000e+00
1.249557516424266e+00 2.847856021302914e+00 0.000000000000000e+00
1.267820157050437e+00 2.838941727230491e+00 0.000000000000000e+00
1.286471931161604e+00 2.830938361063963e+00 0.000000000000000e+00
1.305096681820720e+00 2.823210432205381e+00 0.000000000000000e+00
1.323770276619777e+00 2.814958973379740e+00 0.000000000000000e+00
1.342571223334438e+00 2.807714842558677e+00 0.000000000000000e+00
1.361327143489402e+00 2.799951209876085e+00 0.000000000000000e+00
1.380233058928283e+00 2.792935396728968e+00 0.000000000000000e+00
1.399273087638875e+00 2.785764954515514e+00 0.000000000000000e+00
1.418231349430846e+00 2.779090683518398e+00 0.000000000000000e+00
1.437614883451161e+00 2.772584863287625e+00 0.000000000000000e+00
1.456481550989691e+00 2.766244845338250e+00 0.000000000000000e+00
1.476035157831735e+00 2.759838983400216e+00 0.000000000000000e+00
1.494902120398514e+00 2.753526499149533e+00 0.000000000000000e+00
1.514501133161301e+00 2.747528441686361e+00 0.000000000000000e+00
1.533801243637892e+00 2.742101127091418e+00 0.000000000000000e+00
1.552518818985862e+00 2.734327850627071e+00 0.000000000000000e+00
1.571880536733772e+00 2.728469904989230e+00 0.000000000000000e+00
1.590866247116127e+00 2.721626018132752e+00 0.000000000000000e+00
1.609563384785281e+00 2.714067907350791e+00 0.000000000000000e+00
1.628721024269803e+00 2.707367386406012e+00 0.000000000000000e+00
1.647462663808552e+00 2.699866006059697e+00 0.000000000000000e+00
1.665162288363180e+00 2.689975132917716e+00 0.000000000000000e+00
1.684810283561790e+00 2.685408522664543e+00 0.000000000000000e+00
1.702543003694684e+00 2.675309226303484e+00 0.000000000000000e+00
1.721004958507176e+00 2.667236284562343e+00 0.000000000000000e+00
1.740232118719057e+00 2.660655442159245e+00 0.000000000000000e+00
1.758455010171925e+00 2.652195408403734e+00 0.000000000000000e+00
1.777509239223303e+00 2.644526133496026e+00 0.000000000000000e+00
1.796358727366045e+00 2.637715539313735e+00 0.000000000000000e+00
1.815779585256760e+00 2.631245843714002e+00 0.000000000000000e+00
1.835472761585833e+00 2.627953031319811e+00 0.000000000000000e+00
1.854580117594401e+00 2.620013709683935e+00 0.000000000000000e+00
1.874769083017136e+00 2.618297437950211e+00 0.000000000000000e+00
1.894421384292598e+00 2.613974875047328e+00 0.000000000000000e+00
1.914503491628106e+00 2.610212263314668e+00 0.000000000000000e+00
1.934240626273199e+00 2.605284897290831e+00 0.000000000000000e+00
1.954608791858335e+00 2.603999134230667e+00 0.000000000000000e+00
1.974559308130249e+00 2.601228864534963e+00 0.000000000000000e+00
1.994710113356166e+00 2.598282169120515e+00 0.000000000000000e+00
2.014749579970208e+00 2.594084869951481e+00 0.000000000000000e+00
2.035125544769949e+00 2.593818752640178e+00 0.000000000000000e+00
2.055262448849172e+00 2.592770494818665e+00 0.000000000000000e+00
2.075267770792661e+00 2.588903074652124e+00 0.000000000000000e+00
2.095777712383536e+00 2.589598678916509e+00 0.000000000000000e+00
2.115765152468326e+00 2.591001957246513e+00 0.000000000000000e+00
2.136522569530205e+00 2.591788984345490e+00 0.000000000000000e+00
2.156423689608663e+00 2.592831697495545e+00 0.000000000000000e+00
2.176735383433994e+00 2.596280161189920e+00 0.000000000000000e+00
2.196196778278624e+00 2.602703196353771e+00 0.000000000000000e+00
2.216307733762451e+00 2.605307305235988e+00 0.000000000000000e+00
2.236368577947255e+00 2.608327975676286e+00 0.000000000000000e+00
2.255927770262928e+00 2.614574485486200e+00 0.000000000000000e+00
2.275427489453445e+00 2.620455422563938e+00 0.000000000000000e+00
2.295513767444797e+00 2.625130023180711e+00 0.000000000000000e+00
2.315109542021445e+00 2.628544256641880e+00 0.000000000000000e+00
2.334811274753808e+00 2.635447258664270e+00 0.000000000000000e+00
2.353927218215669e+00 2.642959511314626e+00 0.000000000000000e+00
2.373196892375581e+00 2.648945982525544e+00 0.000000000000000e+00
2.392731867623622e+00 2.655046718351216e+00 0.000000000000000e+00
2.411735776421205e+00 2.662802143765898e+00 0.000000000000000e+00
2.430951957209148e+00 2.670571749686891e+00 0.000000000000000e+00
2.450357363764321e+00 2.676139938342896e+00 0.000000000000000e+00
2.470018325180557e+00 2.681465193486281e+00 0.000000000000000e+00
2.489710226153448e+00 2.688032757661064e+00 0.000000000000000e+00
2.508894467060706e+00 2.694724321897378e+00 0.000000000000000e+00
2.528641110651228e+00 2.700400251963761e+00 0.000000000000000e+00
2.548616221260483e+00 2.704694320711930e+00 0.000000000000000e+00
2.568003999364883e+00 2.711076642307037e+00 0.000000000000000e+00
2.587899394349793e+00 2.716726635580323e+00 0.000000000000000e+00
2.607919223008059e+00 2.719491607638850e+00 0.000000000000000e+00
2.627739796704451e+00 2.725036351584752e+00 0.000000000000000e+00
2.647416698534384e+00 2.730828374545093e+00 0.000000000000000e+00
2.667527058787694e+00 2.734514819090677e+00 0.000000000000000e+00
2.687737667551568e+00 2.737363145392302e+00 0.000000000000000e+00
2.707546549189915e+00 2.742230530771225e+00 0.000000000000000e+00
2.727718248300563e+00 2.745850867850328e+00 0.000000000000000e+00
2.747832679330908e+00 2.748554246910155e+00 0.000000000000000e+00
2.768304969316027e+00 2.750256480923603e+00 0.000000000000000e+00
2.788407035286535e+00 2.752175028412778e+00 0.000000000000000e+00
2.808742777033135e+00 2.754981951295988e+00 0.000000000000000e+00
2.829027028771452e+00 2.755347336261019e+00 0.000000000000000e+00
2.849428766656364e+00 2.754382092228294e+00 0.000000000000000e+00
2.869775149383247e+00 2.755025815150628e+00 0.000000000000000e+00
2.889947537854979e+00 2.755322931872216e+00 0.000000000000000e+00
2.910383821697756e+00 2.755443294929396e+00 0.000000000000000e+00
2.930855414430432e+00 2.754197051428215e+00 0.000000000000000e+00
2.950826113857356e+00 2.753225265753328e+00 0.000000000000000e+00
2.971465554825895e+00 2.755118501055491e+00 0.000000000000000e+00
2.991217347406493e+00 2.756532358374761e+00 0.000000000000000e+00
3.012016744826464e+00 2.757319252723846e+00 0.000000000000000e+00
3.031989714055049e+00 2.757884637128176e+00 0.000000000000000e+00
3.052333505750488e+00 2.760581522144839e+00 0.000000000000000e+00
3.072118070654613e+00 2.764905433272450e+00 0.000000000000000e+00
3.092426231766034e+00 2.767005573119891e+00 0.000000000000000e+00
3.112603546245388e+00 2.769299391673690e+00 0.000000000000000e+00
3.132877420944322e+00 2.773454951038447e+00 0.000000000000000e+00
3.152269628531698e+00 2.776660963801697e+00 0.000000000000000e+00
3.172663781722741e+00 2.780886806408685e+00 0.000000000000000e+00
3.192799260097502e+00 2.783880551757045e+00 0.000000000000000e+00
3.212491639805799e+00 2.787239382573825e+00 0.000000000000000e+00
3.232756924462567e+00 2.792504594798321e+00 0.000000000000000e+00
3.251975369712860e+00 2.796925668512992e+00 0.000000000000000e+00
3.272648744207578e+00 2.800995826428813e+00 0.000000000000000e+00
3.291968932374894e+00 2.804643480793935e+00 0.000000000000000e+00
3.312124435048045e+00 2.809987634326137e+00 0.000000000000000e+00
3.331578630134361e+00 2.815197157773289e+00 0.000000000000000e+00
3.351643272502234e+00 2.819580872675260e+00 0.000000000000000e+00
3.371475910663484e+00 2.823139527316242e+00 0.000000000000000e+00
3.391481084677556e+00 2.828113166036156e+00 0.000000000000000e+00
3.410954983241304e+00 2.833385070273727e+00 0.000000000000000e+00
3.431145223947187e+00 2.837495168701242e+00 0.000000000000000e+00
3.451257663334595e+00 2.839635493889487e+00 0.000000000000000e+00
3.471471991854084e+00 2.842421260254190e+00 0.000000000000000e+00
3.491557577807866e+00 2.846839786862456e+00 0.000000000000000e+00
3.511572633609797e+00 2.848106317288346e+00 0.000000000000000e+00
3.532008476431136e+00 2.849881273072478e+00 0.000000000000000e+00
3.552551496232986e+00 2.851494862065272e+00 0.000000000000000e+00
3.572251922544754e+00 2.855067095614941e+00 0.000000000000000e+00
3.592604682771344e+00 2.857442018717616e+00 0.000000000000000e+00
3.613075307216685e+00 2.857468370428607e+00 0.000000000000000e+00
3.632947380107643e+00 2.861407310211251e+00 0.000000000000000e+00
3.653016045602802e+00 2.864196321056193e+00 0.000000000000000e+00
3.673496812293846e+00 2.867175248625093e+00 0.000000000000000e+00
3.692944899026354e+00 2.871734115055020e+00 0.000000000000000e+00
3.712728054777918e+00 2.877124809975483e+00 0.000000000000000e+00
3.732105117095500e+00 2.882582333459455e+00 0.000000000000000e+00
3.752012558618309e+00 2.888220289283174e+00 0.000000000000000e+00
3.770676488839049e+00 2.895544037210631e+00 0.000000000000000e+00
3.789094819053791e+00 2.903584034361975e+00 0.000000000000000e+00
3.808733741235568e+00 2.910541843865011e+00 0.000000000000000e+00
3.827129616305159e+00 2.918789897793678e+00 0.000000000000000e+00
3.844678199906469e+00 2.928684956228544e+00 0.000000000000000e+00
3.863862224352023e+00 2.935985051149266e+00 0.000000000000000e+00
3.882806187209095e+00 2.943654778553718e+00 0.000000000000000e+00
3.900814887454001e+00 2.952710397569051e+00 0.000000000000000e+00
3.919089930544418e+00 2.961728890241130e+00 0.000000000000000e+00
3.937939882042302e+00 2.969384719252417e+00 0.000000000000000e+00
3.956789372431850e+00 2.977228541801701e+00 0.000000000000000e+00
3.973236466191422e+00 2.989318163720369e+00 0.000000000000000e+00
3.992551838622612e+00 2.995822863796213e+00 0.000000000000000e+00

POINT_DATA   310
SCALARS fNorm double
LOOKUP_TABLE default

3.178890e+02 
1.002846e+02 
1.565617e+02 
8.884177e+00 
7.252549e+02 
3.903884e+02 
3.078762e+02 
7.632850e+02 
4.351624e+02 
1.165169e+03 
6.620469e+02 
7.366081e+02 
4.877649e+02 
6.239926e+02 
3.957633e+02 
4.148881e+02 
1.242819e+02 
1.687539e+02 
3.988399e+02 
1.478680e+02 
2.947174e+02 
2.785272e+00 
1.916252e+02 
1.424487e+02 
1.279888e+01 
6.938998e+01 
3.268436e+01 
2.287713e+02 
1.316030e+02 
8.039497e+02 
7.368830e+02 
3.762702e+02 
2.972060e+02 
3.325343e+02 
4.331209e+02 
9.255795e+02 
2.024090e+03 
2.306649e+03 
7.833447e+02 
6.702805e+02 
7.537408e+02 
4.046942e+02 
3.848332e+02 
3.038563e+02 
1.179821e+03 
1.861602e+03 
3.155960e+03 
8.125649e+02 
1.771185e+02 
4.536145e+02 
1.712910e+03 
5.545041e+02 
1.389335e+02 
5.196134e+02 
1.920287e+03 
3.289205e+02 
1.124627e+03 
2.262010e+03 
4.517299e+02 
3.590303e+02 
2.723241e+02 
1.081468e+03 
1.725302e+03 
1.725203e+03 
1.886470e+02 
1.588185e+03 
1.762233e+02 
8.332355e+02 
5.457023e+02 
1.450560e+03 
3.827217e+02 
8.380202e+02 
3.015467e+01 
9.520793e+02 
3.821701e+01 
1.132464e+03 
1.632988e+02 
6.582026e+02 
1.497680e+02 
6.099209e+02 
6.983999e+02 
1.024697e+03 
4.683909e+02 
1.403499e+03 
1.312147e+03 
1.439194e+02 
1.197254e+03 
4.532474e+02 
9.384817e+02 
6.589396e+02 
5.271253e+02 
5.532672e+02 
1.312327e+02 
3.220833e+02 
1.209463e+03 
6.542761e+02 
7.454939e+02 
7.942429e+01 
1.141384e+02 
7.015785e+02 
1.508970e+02 
1.367684e+03 
1.523949e+02 
2.787998e+02 
8.396054e+01 
9.316113e+02 
7.839393e+02 
9.848477e+02 
7.126929e+01 
9.545831e+02 
2.142353e+02 
2.822151e+02 
6.539454e+02 
1.692872e+02 
8.643898e+02 
2.037387e+02 
3.079757e+02 
5.822450e+01 
6.227428e+02 
2.683357e+01 
4.169589e+02 
3.351475e+02 
6.654186e+02 
1.691561e+02 
6.315808e+02 
9.933649e+02 
2.952762e+02 
7.982761e+02 
1.362077e+03 
1.099912e+02 
3.407986e+01 
8.058440e+02 
5.812378e+02 
1.197428e+03 
1.744336e+03 
3.807048e+02 
4.089359e+01 
8.805651e+02 
2.841162e+02 
1.518617e+02 
4.792564e+01 
1.029233e+03 
2.781919e+02 
6.606396e+02 
9.075669e+02 
6.419128e+02 
1.280444e+03 
1.956850e+02 
7.200562e+02 
5.538247e+01 
7.157050e+02 
1.476913e+02 
2.159427e+03 
2.785530e+03 
1.422720e+03 
3.178890e+02 
1.002846e+02 
1.565617e+02 
8.884177e+00 
7.252549e+02 
3.903884e+02 
3.078762e+02 
7.632850e+02 
4.351624e+02 
1.165169e+03 
6.620469e+02 
7.366081e+02 
4.877649e+02 
6.239926e+02 
3.957633e+02 
4.148881e+02 
1.242819e+02 
1.687539e+02 
3.988399e+02 
1.478680e+02 
2.947174e+02 
2.785273e+00 
1.916252e+02 
1.424487e+02 
1.279888e+01 
6.938998e+01 
3.268436e+01 
2.287713e+02 
1.316030e+02 
8.039497e+02 
7.368830e+02 
3.762702e+02 
2.972060e+02 
3.325343e+02 
4.331209e+02 
9.255795e+02 
2.024090e+03 
2.306649e+03 
7.833447e+02 
6.702805e+02 
7.537408e+02 
4.046942e+02 
3.848332e+02 
3.038563e+02 
1.179821e+03 
1.861602e+03 
3.155960e+03 
8.125649e+02 
1.771185e+02 
4.536145e+02 
1.712910e+03 
5.545041e+02 
1.389335e+02 
5.196134e+02 
1.920287e+03 
3.289205e+02 
1.124627e+03 
2.262010e+03 
4.517299e+02 
3.590303e+02 
2.723241e+02 
1.081468e+03 
1.725302e+03 
1.725203e+03 
1.886470e+02 
1.588185e+03 
1.762233e+02 
8.332355e+02 
5.457023e+02 
1.450560e+03 
3.827217e+02 
8.380202e+02 
3.015467e+01 
9.520793e+02 
3.821701e+01 
1.132464e+03 
1.632988e+02 
6.582026e+02 
1.497680e+02 
6.099209e+02 
6.983999e+02 
1.024697e+03 
4.683909e+02 
1.403499e+03 
1.312147e+03 
1.439194e+02 
1.197254e+03 
4.532474e+02 
9.384817e+02 
6.589396e+02 
5.271253e+02 
5.532672e+02 
1.312327e+02 
3.220833e+02 
1.209463e+03 
6.542761e+02 
7.454939e+02 
7.942429e+01 
1.141384e+02 
7.015785e+02 
1.508970e+02 
1.367684e+03 
1.523949e+02 
2.787998e+02 
8.396054e+01 
9.316113e+02 
7.839393e+02 
9.848477e+02 
7.126929e+01 
9.545831e+02 
2.142353e+02 
2.822151e+02 
6.539454e+02 
1.692872e+02 
8.643898e+02 
2.037387e+02 
3.079757e+02 
5.822450e+01 
6.227428e+02 
2.683357e+01 
4.169589e+02 
3.351475e+02 
6.654186e+02 
1.691561e+02 
6.315808e+02 
9.933649e+02 
2.952762e+02 
7.982761e+02 
1.362077e+03 
1.099912e+02 
3.407986e+01 
8.058440e+02 
5.812378e+02 
1.197428e+03 
1.744336e+03 
3.807048e+02 
4.089359e+01 
8.805651e+02 
2.841162e+02 
1.518617e+02 
4.792564e+01 
1.029233e+03 
2.781919e+02 
6.606396e+02 
9.075669e+02 
6.419128e+02 
1.280444e+03 
1.956850e+02 
7.200562e+02 
5.538247e+01 
7.157050e+02 
1.476913e+02 
2.159427e+03 
2.785530e+03 
1.422720e+03 
