# vtk DataFile Version 2.0
fNorm
ASCII
DATASET UNSTRUCTURED_GRID

FIELD FieldData 1
TIME 1 1 double
0.20000000
POINTS 310 float
1.007782555004768e+00 2.002886032532530e+00 0.000000000000000e+00
1.027068741191575e+00 2.009787385163950e+00 0.000000000000000e+00
1.046136093512100e+00 2.016223651050236e+00 0.000000000000000e+00
1.065479976979370e+00 2.023096631850599e+00 0.000000000000000e+00
1.084263572564991e+00 2.030842675248483e+00 0.000000000000000e+00
1.103619112363178e+00 2.037584919614261e+00 0.000000000000000e+00
1.122748424450848e+00 2.043807912853227e+00 0.000000000000000e+00
1.141837889900903e+00 2.051498021009377e+00 0.000000000000000e+00
1.161044802532398e+00 2.057905377069751e+00 0.000000000000000e+00
1.179965760616773e+00 2.065779579243909e+00 0.000000000000000e+00
1.199355146086791e+00 2.071492004788293e+00 0.000000000000000e+00
1.218202545645234e+00 2.079496964361222e+00 0.000000000000000e+00
1.237474277007234e+00 2.085969784829453e+00 0.000000000000000e+00
1.256181269698056e+00 2.093809763141203e+00 0.000000000000000e+00
1.275634012665834e+00 2.100351691246753e+00 0.000000000000000e+00
1.294240312715800e+00 2.108021965906051e+00 0.000000000000000e+00
1.313469191122520e+00 2.115297581918419e+00 0.000000000000000e+00
1.332356957280169e+00 2.122467587261699e+00 0.000000000000000e+00
1.351140215007438e+00 2.130347923496561e+00 0.000000000000000e+00
1.370161538777343e+00 2.137466437085364e+00 0.000000000000000e+00
1.388829804136018e+00 2.145390721829290e+00 0.000000000000000e+00
1.407755549447799e+00 2.153089743084712e+00 0.000000000000000e+00
1.426359448827667e+00 2.161203678863338e+00 0.000000000000000e+00
1.444824327881963e+00 2.169045869597673e+00 0.000000000000000e+00
1.463908339519382e+00 2.177088921639260e+00 0.000000000000000e+00
1.482227484775563e+00 2.184892908601094e+00 0.000000000000000e+00
1.501339397606383e+00 2.192834588406488e+00 0.000000000000000e+00
1.519593821939368e+00 2.200454105349426e+00 0.000000000000000e+00
1.538715949849583e+00 2.208054283394923e+00 0.000000000000000e+00
1.557961556800995e+00 2.214622139073266e+00 0.000000000000000e+00
1.576242352787250e+00 2.222697993139925e+00 0.000000000000000e+00
1.596068519955286e+00 2.228492647276449e+00 0.000000000000000e+00
1.615213657049723e+00 2.235083216132526e+00 0.000000000000000e+00
1.634116727255829e+00 2.241398119534618e+00 0.000000000000000e+00
1.654124279345815e+00 2.246262900719878e+00 0.000000000000000e+00
1.673649047082477e+00 2.251022484345294e+00 0.000000000000000e+00
1.692716789682269e+00 2.258321743140202e+00 0.000000000000000e+00
1.712979771470741e+00 2.259162359727920e+00 0.000000000000000e+00
1.732181851887203e+00 2.266150935094554e+00 0.000000000000000e+00
1.751703491509693e+00 2.271122679368618e+00 0.000000000000000e+00
1.771948357901220e+00 2.273989793409476e+00 0.000000000000000e+00
1.791351269997666e+00 2.278961143605471e+00 0.000000000000000e+00
1.811413289970288e+00 2.283673230253444e+00 0.000000000000000e+00
1.830975420178723e+00 2.287754689235668e+00 0.000000000000000e+00
1.850899474376276e+00 2.291897009468705e+00 0.000000000000000e+00
1.871020150616007e+00 2.294030071261573e+00 0.000000000000000e+00
1.889870467523213e+00 2.301389608913652e+00 0.000000000000000e+00
1.910254838706507e+00 2.303032877569505e+00 0.000000000000000e+00
1.929873806396458e+00 2.307065003437604e+00 0.000000000000000e+00
1.949935451797373e+00 2.310740655096583e+00 0.000000000000000e+00
1.969525617249140e+00 2.315685897348877e+00 0.000000000000000e+00
1.989594012815598e+00 2.317826504724857e+00 0.000000000000000e+00
2.009579151282280e+00 2.321401986641533e+00 0.000000000000000e+00
2.029465952938072e+00 2.325460647181483e+00 0.000000000000000e+00
2.048949849637915e+00 2.330737823322541e+00 0.000000000000000e+00
2.069129064209451e+00 2.332258741656539e+00 0.000000000000000e+00
2.089115069722411e+00 2.335588551639130e+00 0.000000000000000e+00
2.108340876664116e+00 2.341654349203686e+00 0.000000000000000e+00
2.128629049616699e+00 2.343961369467991e+00 0.000000000000000e+00
2.148443976080997e+00 2.346281959463417e+00 0.000000000000000e+00
2.168348822510439e+00 2.350738960230003e+00 0.000000000000000e+00
2.187400670867459e+00 2.356133639306204e+00 0.000000000000000e+00
2.207634586309609e+00 2.360025199998907e+00 0.000000000000000e+00
2.227439052365821e+00 2.361562441772515e+00 0.000000000000000e+00
2.247047331961790e+00 2.366414134423052e+00 0.000000000000000e+00
2.266527108090068e+00 2.371727008005994e+00 0.000000000000000e+00
2.286448052532551e+00 2.374329539256731e+00 0.000000000000000e+00
2.306043704188061e+00 2.377675719052595e+00 0.000000000000000e+00
2.325932622012108e+00 2.382323102193187e+00 0.000000000000000e+00
2.345207924486787e+00 2.387926911389986e+00 0.000000000000000e+00
2.364960797237938e+00 2.391267193881729e+00 0.000000000000000e+00
2.384649068891293e+00 2.394166124107860e+00 0.000000000000000e+00
2.404392144616843e+00 2.398746903760571e+00 0.000000000000000e+00
2.424308467301361e+00 2.402967747897770e+00 0.000000000000000e+00
2.443783233473804e+00 2.405891656577004e+00 0.000000000000000e+00
2.463788894718328e+00 2.408912771556287e+00 0.000000000000000e+00
2.483425679299584e+00 2.412971308294709e+00 0.000000000000000e+00
2.503397603144795e+00 2.416522463580643e+00 0.000000000000000e+00
2.523308236988422e+00 2.419578962739255e+00 0.000000000000000e+00
2.542789195484583e+00 2.422537055903472e+00 0.000000000000000e+00
2.563201461176547e+00 2.425663617113667e+00 0.000000000000000e+00
2.582651846675679e+00 2.430116708460845e+00 0.000000000000000e+00
2.602838791548636e+00 2.431778619254449e+00 0.000000000000000e+00
2.622907375035968e+00 2.433303057554713e+00 0.000000000000000e+00
2.642524175501795e+00 2.437882444208232e+00 0.000000000000000e+00
2.663008501035089e+00 2.440190272884049e+00 0.000000000000000e+00
2.682281326997964e+00 2.441102154816795e+00 0.000000000000000e+00
2.702564350535781e+00 2.442869718583364e+00 0.000000000000000e+00
2.723590273005560e+00 2.444873258304378e+00 0.000000000000000e+00
2.742787905892381e+00 2.443208855927441e+00 0.000000000000000e+00
2.763400795489131e+00 2.442088231035120e+00 0.000000000000000e+00
2.783295175447303e+00 2.439002209855054e+00 0.000000000000000e+00
2.802662730430195e+00 2.434073389688426e+00 0.000000000000000e+00
2.821633026999580e+00 2.426816458149231e+00 0.000000000000000e+00
2.839164008917474e+00 2.417184676872778e+00 0.000000000000000e+00
2.857258268785746e+00 2.408076597222691e+00 0.000000000000000e+00
2.875144019121282e+00 2.398153281724476e+00 0.000000000000000e+00
2.891034958321992e+00 2.386463616567426e+00 0.000000000000000e+00
2.908505806576167e+00 2.374484491331225e+00 0.000000000000000e+00
2.925451838557230e+00 2.363799656566322e+00 0.000000000000000e+00
2.943053286760637e+00 2.355161488343060e+00 0.000000000000000e+00
2.960872676642606e+00 2.346451242753735e+00 0.000000000000000e+00
2.978426166193390e+00 2.335070927535797e+00 0.000000000000000e+00
2.996730673533298e+00 2.326442241664593e+00 0.000000000000000e+00
3.016045185817170e+00 2.320049944850461e+00 0.000000000000000e+00
3.035100662108495e+00 2.316509044299961e+00 0.000000000000000e+00
3.055141902145468e+00 2.311865244693639e+00 0.000000000000000e+00
3.074293354119110e+00 2.303611747989985e+00 0.000000000000000e+00
3.092498513119944e+00 2.296415598218776e+00 0.000000000000000e+00
3.111169396487962e+00 2.288311089548428e+00 0.000000000000000e+00
3.129989210776353e+00 2.278802780504670e+00 0.000000000000000e+00
3.147587824199677e+00 2.270111910149562e+00 0.000000000000000e+00
3.165242939310447e+00 2.258694298806361e+00 0.000000000000000e+00
3.182128813787129e+00 2.247844859881425e+00 0.000000000000000e+00
3.198508560263530e+00 2.235531686336216e+00 0.000000000000000e+00
3.213548367237913e+00 2.220407626497237e+00 0.000000000000000e+00
3.226905339999720e+00 2.204838208154942e+00 0.000000000000000e+00
3.240031365571378e+00 2.187782813735859e+00 0.000000000000000e+00
3.253033710815884e+00 2.171813487933939e+00 0.000000000000000e+00
3.266972961364013e+00 2.155396260781302e+00 0.000000000000000e+00
3.282127238535922e+00 2.140433436084112e+00 0.000000000000000e+00
3.299502309638881e+00 2.128178579117897e+00 0.000000000000000e+00
3.318225071931389e+00 2.117698947456014e+00 0.000000000000000e+00
3.337062095263652e+00 2.108352814942894e+00 0.000000000000000e+00
3.356365740528424e+00 2.099427294474290e+00 0.000000000000000e+00
3.376631858731580e+00 2.092096312623264e+00 0.000000000000000e+00
3.396940296240457e+00 2.086286431451824e+00 0.000000000000000e+00
3.417679191623152e+00 2.079815679613022e+00 0.000000000000000e+00
3.437885736466205e+00 2.073262349802264e+00 0.000000000000000e+00
3.458805948784405e+00 2.070188365649162e+00 0.000000000000000e+00
3.479453636758842e+00 2.066085533894088e+00 0.000000000000000e+00
3.501005937219815e+00 2.061392237118079e+00 0.000000000000000e+00
3.520896136032513e+00 2.056156057628025e+00 0.000000000000000e+00
3.542183280292048e+00 2.051790152766018e+00 0.000000000000000e+00
3.563270516649570e+00 2.050141297578960e+00 0.000000000000000e+00
3.584072306147770e+00 2.045235824121093e+00 0.000000000000000e+00
3.605129361048772e+00 2.041836610623540e+00 0.000000000000000e+00
3.626130787309800e+00 2.039727917417215e+00 0.000000000000000e+00
3.647511391169381e+00 2.036962252188167e+00 0.000000000000000e+00
3.668460658236564e+00 2.034335517818567e+00 0.000000000000000e+00
3.689602724949991e+00 2.031848347209878e+00 0.000000000000000e+00
3.711024048355563e+00 2.030474840425413e+00 0.000000000000000e+00
3.732177051304209e+00 2.028302245696590e+00 0.000000000000000e+00
3.752782317206114e+00 2.025823264081887e+00 0.000000000000000e+00
3.774801337649147e+00 2.024471600482367e+00 0.000000000000000e+00
3.795764502543872e+00 2.022167628570793e+00 0.000000000000000e+00
3.816227387418231e+00 2.018654696530152e+00 0.000000000000000e+00
3.837600078874683e+00 2.018173591442718e+00 0.000000000000000e+00
3.859184656166016e+00 2.016387182145936e+00 0.000000000000000e+00
3.879617142038637e+00 2.012332686101687e+00 0.000000000000000e+00
3.900673279814628e+00 2.009291499893093e+00 0.000000000000000e+00
3.922039744390313e+00 2.009082166287294e+00 0.000000000000000e+00
3.942923858769845e+00 2.007853868000643e+00 0.000000000000000e+00
3.963368580694668e+00 2.001351248218840e+00 0.000000000000000e+00
3.984598947132812e+00 2.002264527170958e+00 0.000000000000000e+00
1.007782555004772e+00 2.997113967467472e+00 0.000000000000000e+00
1.027068741191580e+00 2.990212614836057e+00 0.000000000000000e+00
1.046136093512107e+00 2.983776348949779e+00 0.000000000000000e+00
1.065479976979380e+00 2.976903368149421e+00 0.000000000000000e+00
1.084263572565001e+00 2.969157324751540e+00 0.000000000000000e+00
1.103619112363193e+00 2.962415080385768e+00 0.000000000000000e+00
1.122748424450861e+00 2.956192087146805e+00 0.000000000000000e+00
1.141837889900920e+00 2.948501978990656e+00 0.000000000000000e+00
1.161044802532414e+00 2.942094622930294e+00 0.000000000000000e+00
1.179965760616791e+00 2.934220420756135e+00 0.000000000000000e+00
1.199355146086810e+00 2.928507995211751e+00 0.000000000000000e+00
1.218202545645249e+00 2.920503035638818e+00 0.000000000000000e+00
1.237474277007252e+00 2.914030215170590e+00 0.000000000000000e+00
1.256181269698071e+00 2.906190236858839e+00 0.000000000000000e+00
1.275634012665849e+00 2.899648308753280e+00 0.000000000000000e+00
1.294240312715814e+00 2.891978034093986e+00 0.000000000000000e+00
1.313469191122533e+00 2.884702418081612e+00 0.000000000000000e+00
1.332356957280180e+00 2.877532412738328e+00 0.000000000000000e+00
1.351140215007447e+00 2.869652076503463e+00 0.000000000000000e+00
1.370161538777352e+00 2.862533562914659e+00 0.000000000000000e+00
1.388829804136032e+00 2.854609278170738e+00 0.000000000000000e+00
1.407755549447803e+00 2.846910256915311e+00 0.000000000000000e+00
1.426359448827683e+00 2.838796321136691e+00 0.000000000000000e+00
1.444824327881971e+00 2.830954130402351e+00 0.000000000000000e+00
1.463908339519390e+00 2.822911078360763e+00 0.000000000000000e+00
1.482227484775576e+00 2.815107091398938e+00 0.000000000000000e+00
1.501339397606394e+00 2.807165411593544e+00 0.000000000000000e+00
1.519593821939380e+00 2.799545894650608e+00 0.000000000000000e+00
1.538715949849596e+00 2.791945716605115e+00 0.000000000000000e+00
1.557961556801008e+00 2.785377860926773e+00 0.000000000000000e+00
1.576242352787263e+00 2.777302006860116e+00 0.000000000000000e+00
1.596068519955300e+00 2.771507352723595e+00 0.000000000000000e+00
1.615213657049738e+00 2.764916783867520e+00 0.000000000000000e+00
1.634116727255844e+00 2.758601880465434e+00 0.000000000000000e+00
1.654124279345831e+00 2.753737099280173e+00 0.000000000000000e+00
1.673649047082493e+00 2.748977515654762e+00 0.000000000000000e+00
1.692716789682284e+00 2.741678256859854e+00 0.000000000000000e+00
1.712979771470758e+00 2.740837640272140e+00 0.000000000000000e+00
1.732181851887217e+00 2.733849064905500e+00 0.000000000000000e+00
1.751703491509709e+00 2.728877320631441e+00 0.000000000000000e+00
1.771948357901237e+00 2.726010206590588e+00 0.000000000000000e+00
1.791351269997682e+00 2.721038856394593e+00 0.000000000000000e+00
1.811413289970306e+00 2.716326769746623e+00 0.000000000000000e+00
1.830975420178740e+00 2.712245310764398e+00 0.000000000000000e+00
1.850899474376292e+00 2.708102990531356e+00 0.000000000000000e+00
1.871020150616025e+00 2.705969928738492e+00 0.000000000000000e+00
1.889870467523227e+00 2.698610391086404e+00 0.000000000000000e+00
1.910254838706521e+00 2.696967122430547e+00 0.000000000000000e+00
1.929873806396472e+00 2.692934996562450e+00 0.000000000000000e+00
1.949935451797387e+00 2.689259344903471e+00 0.000000000000000e+00
1.969525617249152e+00 2.684314102651168e+00 0.000000000000000e+00
1.989594012815611e+00 2.682173495275188e+00 0.000000000000000e+00
2.009579151282292e+00 2.678598013358511e+00 0.000000000000000e+00
2.029465952938083e+00 2.674539352818556e+00 0.000000000000000e+00
2.048949849637928e+00 2.669262176677503e+00 0.000000000000000e+00
2.069129064209463e+00 2.667741258343497e+00 0.000000000000000e+00
2.089115069722422e+00 2.664411448360902e+00 0.000000000000000e+00
2.108340876664129e+00 2.658345650796348e+00 0.000000000000000e+00
2.128629049616710e+00 2.656038630532034e+00 0.000000000000000e+00
2.148443976081012e+00 2.653718040536611e+00 0.000000000000000e+00
2.168348822510445e+00 2.649261039770016e+00 0.000000000000000e+00
2.187400670867473e+00 2.643866360693819e+00 0.000000000000000e+00
2.207634586309621e+00 2.639974800001121e+00 0.000000000000000e+00
2.227439052365835e+00 2.638437558227499e+00 0.000000000000000e+00
2.247047331961799e+00 2.633585865576952e+00 0.000000000000000e+00
2.266527108090083e+00 2.628272991994012e+00 0.000000000000000e+00
2.286448052532562e+00 2.625670460743279e+00 0.000000000000000e+00
2.306043704188074e+00 2.622324280947411e+00 0.000000000000000e+00
2.325932622012122e+00 2.617676897806815e+00 0.000000000000000e+00
2.345207924486798e+00 2.612073088610012e+00 0.000000000000000e+00
2.364960797237953e+00 2.608732806118269e+00 0.000000000000000e+00
2.384649068891303e+00 2.605833875892140e+00 0.000000000000000e+00
2.404392144616859e+00 2.601253096239422e+00 0.000000000000000e+00
2.424308467301371e+00 2.597032252102230e+00 0.000000000000000e+00
2.443783233473819e+00 2.594108343422981e+00 0.000000000000000e+00
2.463788894718336e+00 2.591087228443692e+00 0.000000000000000e+00
2.483425679299597e+00 2.587028691705273e+00 0.000000000000000e+00
2.503397603144807e+00 2.583477536419338e+00 0.000000000000000e+00
2.523308236988435e+00 2.580421037260721e+00 0.000000000000000e+00
2.542789195484595e+00 2.577462944096503e+00 0.000000000000000e+00
2.563201461176557e+00 2.574336382886310e+00 0.000000000000000e+00
2.582651846675691e+00 2.569883291539136e+00 0.000000000000000e+00
2.602838791548648e+00 2.568221380745543e+00 0.000000000000000e+00
2.622907375035982e+00 2.566696942445271e+00 0.000000000000000e+00
2.642524175501806e+00 2.562117555791753e+00 0.000000000000000e+00
2.663008501035099e+00 2.559809727115940e+00 0.000000000000000e+00
2.682281326997976e+00 2.558897845183212e+00 0.000000000000000e+00
2.702564350535795e+00 2.557130281416651e+00 0.000000000000000e+00
2.723590273005572e+00 2.555126741695631e+00 0.000000000000000e+00
2.742787905892398e+00 2.556791144072548e+00 0.000000000000000e+00
2.763400795489141e+00 2.557911768964873e+00 0.000000000000000e+00
2.783295175447316e+00 2.560997790144940e+00 0.000000000000000e+00
2.802662730430209e+00 2.565926610311576e+00 0.000000000000000e+00
2.821633026999583e+00 2.573183541850790e+00 0.000000000000000e+00
2.839164008917485e+00 2.582815323127242e+00 0.000000000000000e+00
2.857258268785754e+00 2.591923402777318e+00 0.000000000000000e+00
2.875144019121289e+00 2.601846718275535e+00 0.000000000000000e+00
2.891034958321988e+00 2.613536383432599e+00 0.000000000000000e+00
2.908505806576163e+00 2.625515508668814e+00 0.000000000000000e+00
2.925451838557219e+00 2.636200343433710e+00 0.000000000000000e+00
2.943053286760623e+00 2.644838511656976e+00 0.000000000000000e+00
2.960872676642589e+00 2.653548757246322e+00 0.000000000000000e+00
2.978426166193372e+00 2.664929072464261e+00 0.000000000000000e+00
2.996730673533283e+00 2.673557758335452e+00 0.000000000000000e+00
3.016045185817155e+00 2.679950055149584e+00 0.000000000000000e+00
3.035100662108481e+00 2.683490955700087e+00 0.000000000000000e+00
3.055141902145454e+00 2.688134755306424e+00 0.000000000000000e+00
3.074293354119093e+00 2.696388252010073e+00 0.000000000000000e+00
3.092498513119932e+00 2.703584401781263e+00 0.000000000000000e+00
3.111169396487961e+00 2.711688910451614e+00 0.000000000000000e+00
3.129989210776341e+00 2.721197219495382e+00 0.000000000000000e+00
3.147587824199661e+00 2.729888089850502e+00 0.000000000000000e+00
3.165242939310430e+00 2.741305701193706e+00 0.000000000000000e+00
3.182128813787116e+00 2.752155140118632e+00 0.000000000000000e+00
3.198508560263526e+00 2.764468313663833e+00 0.000000000000000e+00
3.213548367237903e+00 2.779592373502822e+00 0.000000000000000e+00
3.226905339999715e+00 2.795161791845108e+00 0.000000000000000e+00
3.240031365571369e+00 2.812217186264188e+00 0.000000000000000e+00
3.253033710815882e+00 2.828186512066114e+00 0.000000000000000e+00
3.266972961364002e+00 2.844603739218752e+00 0.000000000000000e+00
3.282127238535922e+00 2.859566563915932e+00 0.000000000000000e+00
3.299502309638882e+00 2.871821420882146e+00 0.000000000000000e+00
3.318225071931387e+00 2.882301052544022e+00 0.000000000000000e+00
3.337062095263655e+00 2.891647185057151e+00 0.000000000000000e+00
3.356365740528418e+00 2.900572705525755e+00 0.000000000000000e+00
3.376631858731582e+00 2.907903687376778e+00 0.000000000000000e+00
3.396940296240452e+00 2.913713568548215e+00 0.000000000000000e+00
3.417679191623149e+00 2.920184320387016e+00 0.000000000000000e+00
3.437885736466205e+00 2.926737650197769e+00 0.000000000000000e+00
3.458805948784401e+00 2.929811634350869e+00 0.000000000000000e+00
3.479453636758841e+00 2.933914466105950e+00 0.000000000000000e+00
3.501005937219809e+00 2.938607762881953e+00 0.000000000000000e+00
3.520896136032513e+00 2.943843942372004e+00 0.000000000000000e+00
3.542183280292045e+00 2.948209847234000e+00 0.000000000000000e+00
3.563270516649570e+00 2.949858702421069e+00 0.000000000000000e+00
3.584072306147767e+00 2.954764175878938e+00 0.000000000000000e+00
3.605129361048772e+00 2.958163389376486e+00 0.000000000000000e+00
3.626130787309796e+00 2.960272082582801e+00 0.000000000000000e+00
3.647511391169378e+00 2.963037747811853e+00 0.000000000000000e+00
3.668460658236564e+00 2.965664482181448e+00 0.000000000000000e+00
3.689602724949984e+00 2.968151652790138e+00 0.000000000000000e+00
3.711024048355567e+00 2.969525159574603e+00 0.000000000000000e+00
3.732177051304203e+00 2.971697754303423e+00 0.000000000000000e+00
3.752782317206118e+00 2.974176735918121e+00 0.000000000000000e+00
3.774801337649142e+00 2.975528399517636e+00 0.000000000000000e+00
3.795764502543878e+00 2.977832371429198e+00 0.000000000000000e+00
3.816227387418227e+00 2.981345303469844e+00 0.000000000000000e+00
3.837600078874683e+00 2.981826408557278e+00 0.000000000000000e+00
3.859184656166015e+00 2.983612817854060e+00 0.000000000000000e+00
3.879617142038642e+00 2.987667313898299e+00 0.000000000000000e+00
3.900673279814626e+00 2.990708500106890e+00 0.000000000000000e+00
3.922039744390315e+00 2.990917833712701e+00 0.000000000000000e+00
3.942923858769845e+00 2.992146131999351e+00 0.000000000000000e+00
3.963368580694670e+00 2.998648751781150e+00 0.000000000000000e+00
3.984598947132815e+00 2.997735472829041e+00 0.000000000000000e+00

POINT_DATA   310
SCALARS fNorm double
LOOKUP_TABLE default

9.287829e+01 
1.486388e+02 
1.715908e+02 
4.958445e+02 
5.397709e+02 
1.765307e+02 
6.207169e+02 
5.438093e+02 
6.097400e+02 
9.307146e+02 
9.908563e+02 
6.811231e+02 
5.655188e+02 
6.615841e+02 
5.504454e+02 
2.446370e+02 
1.722522e+01 
2.731967e+02 
3.337406e+02 
3.542948e+02 
1.095316e+02 
2.247971e+02 
5.845437e+01 
6.545924e+01 
7.826720e+01 
9.206018e+01 
2.420890e+01 
1.897901e+02 
4.782413e+02 
5.696391e+02 
1.127742e+03 
4.167646e+02 
8.458615e+01 
7.405213e+02 
4.027761e+01 
8.717404e+02 
2.784712e+03 
2.570359e+03 
7.480130e+02 
9.489739e+02 
2.671585e+03 
1.422558e+03 
1.138771e+03 
1.224198e+03 
4.321224e+02 
3.221267e+03 
1.620886e+03 
8.195545e+02 
6.660169e+01 
4.871582e+02 
1.096276e+03 
5.464217e+02 
3.123988e+02 
4.442620e+02 
1.494943e+03 
7.643854e+02 
1.133109e+03 
1.651667e+03 
2.759196e+01 
8.768890e+02 
3.960932e+02 
7.453837e+02 
9.254917e+02 
1.039575e+03 
2.202231e+02 
1.000124e+03 
1.743245e+02 
5.347986e+02 
4.221866e+02 
7.543484e+02 
1.545379e+02 
5.394304e+02 
1.558568e+02 
3.798010e+02 
9.779595e+00 
3.597801e+02 
2.149664e+02 
2.060235e+02 
6.694111e+00 
2.575116e+00 
5.880406e+02 
9.660927e+02 
1.487737e+01 
9.479489e+02 
1.044831e+03 
3.508099e+02 
1.098251e+02 
9.848628e+01 
1.311538e+03 
1.324772e+02 
1.018960e+03 
7.559620e+02 
9.697192e+02 
1.145412e+03 
1.493885e+02 
5.002661e+02 
9.248699e+02 
1.134366e+02 
6.135070e+02 
4.834599e+02 
4.274223e+01 
1.149309e+03 
1.690149e+03 
1.235565e+03 
6.255881e+02 
2.578731e+02 
2.389844e+03 
1.571793e+02 
2.451342e+02 
6.960498e+02 
2.876265e+01 
9.832436e+02 
1.444115e+02 
8.919932e+02 
2.629900e+03 
9.574877e+02 
9.294736e+02 
8.312939e+02 
7.872815e+02 
2.241338e+03 
3.506631e+03 
2.270035e+03 
8.018906e+02 
5.317583e+02 
1.778145e+03 
1.268189e+03 
5.438631e+02 
2.615805e+02 
2.863427e+03 
7.156209e+02 
5.064977e+02 
7.369899e+02 
9.546667e+02 
2.510425e+03 
2.734267e+03 
1.336305e+03 
1.143317e+03 
5.002493e+02 
9.441717e+01 
1.951586e+02 
1.025350e+03 
7.241551e+02 
2.761068e+02 
1.117845e+03 
1.013264e+03 
8.141989e+02 
2.356598e+03 
1.257736e+03 
2.057999e+03 
8.828440e+02 
2.547991e+03 
9.569295e+02 
4.127776e+03 
6.512112e+03 
3.023461e+03 
9.287829e+01 
1.486388e+02 
1.715908e+02 
4.958445e+02 
5.397709e+02 
1.765307e+02 
6.207169e+02 
5.438093e+02 
6.097400e+02 
9.307146e+02 
9.908563e+02 
6.811231e+02 
5.655188e+02 
6.615841e+02 
5.504454e+02 
2.446370e+02 
1.722522e+01 
2.731967e+02 
3.337406e+02 
3.542948e+02 
1.095316e+02 
2.247971e+02 
5.845437e+01 
6.545924e+01 
7.826720e+01 
9.206018e+01 
2.420890e+01 
1.897901e+02 
4.782413e+02 
5.696391e+02 
1.127742e+03 
4.167646e+02 
8.458615e+01 
7.405213e+02 
4.027761e+01 
8.717404e+02 
2.784712e+03 
2.570359e+03 
7.480130e+02 
9.489739e+02 
2.671585e+03 
1.422558e+03 
1.138771e+03 
1.224198e+03 
4.321224e+02 
3.221267e+03 
1.620886e+03 
8.195545e+02 
6.660169e+01 
4.871582e+02 
1.096276e+03 
5.464217e+02 
3.123988e+02 
4.442620e+02 
1.494943e+03 
7.643854e+02 
1.133109e+03 
1.651667e+03 
2.759196e+01 
8.768890e+02 
3.960932e+02 
7.453837e+02 
9.254917e+02 
1.039575e+03 
2.202231e+02 
1.000124e+03 
1.743245e+02 
5.347986e+02 
4.221866e+02 
7.543484e+02 
1.545379e+02 
5.394304e+02 
1.558568e+02 
3.798010e+02 
9.779595e+00 
3.597801e+02 
2.149664e+02 
2.060235e+02 
6.694111e+00 
2.575116e+00 
5.880406e+02 
9.660927e+02 
1.487737e+01 
9.479489e+02 
1.044831e+03 
3.508099e+02 
1.098251e+02 
9.848628e+01 
1.311538e+03 
1.324772e+02 
1.018960e+03 
7.559620e+02 
9.697192e+02 
1.145412e+03 
1.493885e+02 
5.002661e+02 
9.248699e+02 
1.134366e+02 
6.135070e+02 
4.834599e+02 
4.274223e+01 
1.149309e+03 
1.690149e+03 
1.235565e+03 
6.255881e+02 
2.578731e+02 
2.389844e+03 
1.571793e+02 
2.451342e+02 
6.960498e+02 
2.876265e+01 
9.832436e+02 
1.444115e+02 
8.919932e+02 
2.629900e+03 
9.574877e+02 
9.294736e+02 
8.312939e+02 
7.872815e+02 
2.241338e+03 
3.506631e+03 
2.270035e+03 
8.018906e+02 
5.317583e+02 
1.778145e+03 
1.268189e+03 
5.438631e+02 
2.615805e+02 
2.863427e+03 
7.156209e+02 
5.064977e+02 
7.369899e+02 
9.546667e+02 
2.510425e+03 
2.734267e+03 
1.336305e+03 
1.143317e+03 
5.002493e+02 
9.441717e+01 
1.951586e+02 
1.025350e+03 
7.241551e+02 
2.761068e+02 
1.117845e+03 
1.013264e+03 
8.141989e+02 
2.356598e+03 
1.257736e+03 
2.057999e+03 
8.828440e+02 
2.547991e+03 
9.569295e+02 
4.127776e+03 
6.512112e+03 
3.023461e+03 
