# vtk DataFile Version 2.0
fNorm
ASCII
DATASET UNSTRUCTURED_GRID

FIELD FieldData 1
TIME 1 1 double
0.05000000
POINTS 310 float
1.022133556883252e+00 2.013142332408318e+00 0.000000000000000e+00
1.042191529827351e+00 2.022257553501450e+00 0.000000000000000e+00
1.060002036766008e+00 2.034230985615955e+00 0.000000000000000e+00
1.079250343683420e+00 2.043901264699715e+00 0.000000000000000e+00
1.098010026208349e+00 2.055223453802262e+00 0.000000000000000e+00
1.117206458574649e+00 2.066759597037223e+00 0.000000000000000e+00
1.134363736391683e+00 2.078551057713888e+00 0.000000000000000e+00
1.153928430853092e+00 2.091394086793740e+00 0.000000000000000e+00
1.171866564559952e+00 2.102218115788583e+00 0.000000000000000e+00
1.191236444479042e+00 2.113355260490062e+00 0.000000000000000e+00
1.211367463498947e+00 2.122853835095865e+00 0.000000000000000e+00
1.231023912015126e+00 2.133335675317885e+00 0.000000000000000e+00
1.250386924413283e+00 2.144120035132585e+00 0.000000000000000e+00
1.269663839399500e+00 2.155475229139895e+00 0.000000000000000e+00
1.290343158139893e+00 2.164995962876312e+00 0.000000000000000e+00
1.309404338447638e+00 2.174007464075278e+00 0.000000000000000e+00
1.330821512644610e+00 2.182179262376967e+00 0.000000000000000e+00
1.352334673230658e+00 2.187569306073675e+00 0.000000000000000e+00
1.373879691499300e+00 2.192505375786832e+00 0.000000000000000e+00
1.395871193197548e+00 2.196781127163760e+00 0.000000000000000e+00
1.418113198938327e+00 2.199749236563096e+00 0.000000000000000e+00
1.440313446893770e+00 2.200825577951911e+00 0.000000000000000e+00
1.462327392172856e+00 2.201414689413762e+00 0.000000000000000e+00
1.484244624117181e+00 2.201826190224355e+00 0.000000000000000e+00
1.507156491698816e+00 2.200403537828501e+00 0.000000000000000e+00
1.528047683485271e+00 2.199394381292983e+00 0.000000000000000e+00
1.550908093068319e+00 2.198386032442941e+00 0.000000000000000e+00
1.571677385167543e+00 2.194258196372450e+00 0.000000000000000e+00
1.594964422039453e+00 2.190938288018295e+00 0.000000000000000e+00
1.615796624185304e+00 2.191253924254373e+00 0.000000000000000e+00
1.638990716954948e+00 2.191125280025198e+00 0.000000000000000e+00
1.660628652014226e+00 2.185233748243846e+00 0.000000000000000e+00
1.683762308293435e+00 2.185498434153029e+00 0.000000000000000e+00
1.703643034673594e+00 2.187630096555059e+00 0.000000000000000e+00
1.727416523262619e+00 2.186572347380966e+00 0.000000000000000e+00
1.748819402427078e+00 2.188432439712633e+00 0.000000000000000e+00
1.770563706113720e+00 2.194291283273665e+00 0.000000000000000e+00
1.792556987831071e+00 2.192532521743180e+00 0.000000000000000e+00
1.814014388885656e+00 2.199977809070881e+00 0.000000000000000e+00
1.834044616146267e+00 2.205052895853314e+00 0.000000000000000e+00
1.857154102330601e+00 2.207083198165219e+00 0.000000000000000e+00
1.875968776778199e+00 2.213929537752980e+00 0.000000000000000e+00
1.897491349298029e+00 2.221622919179403e+00 0.000000000000000e+00
1.919066532697416e+00 2.226743096146643e+00 0.000000000000000e+00
1.940485968029559e+00 2.229796463377754e+00 0.000000000000000e+00
1.962790228182467e+00 2.235271969857284e+00 0.000000000000000e+00
1.982048322258811e+00 2.247895170464463e+00 0.000000000000000e+00
2.003878292420410e+00 2.249830957477930e+00 0.000000000000000e+00
2.025235193752207e+00 2.257575749208985e+00 0.000000000000000e+00
2.045441662628504e+00 2.265043821413223e+00 0.000000000000000e+00
2.067025854069802e+00 2.272585336812913e+00 0.000000000000000e+00
2.088246279589481e+00 2.276249234179052e+00 0.000000000000000e+00
2.109499786727434e+00 2.279457841951916e+00 0.000000000000000e+00
2.131503000989904e+00 2.285149523288912e+00 0.000000000000000e+00
2.152887784585016e+00 2.290812465568433e+00 0.000000000000000e+00
2.174445576752730e+00 2.289109816757827e+00 0.000000000000000e+00
2.196837171956415e+00 2.291170208129248e+00 0.000000000000000e+00
2.217779143176120e+00 2.298551540167797e+00 0.000000000000000e+00
2.239768946899213e+00 2.299353840686892e+00 0.000000000000000e+00
2.261250539522001e+00 2.297437768526318e+00 0.000000000000000e+00
2.283527410028606e+00 2.298091626171565e+00 0.000000000000000e+00
2.305402460085687e+00 2.299629959365747e+00 0.000000000000000e+00
2.327468045199133e+00 2.298266548901790e+00 0.000000000000000e+00
2.348271276231543e+00 2.293924428299947e+00 0.000000000000000e+00
2.370515988458837e+00 2.293109347877410e+00 0.000000000000000e+00
2.391248484049422e+00 2.293427634226744e+00 0.000000000000000e+00
2.412763523895265e+00 2.291036440252592e+00 0.000000000000000e+00
2.434068830309101e+00 2.287910343579154e+00 0.000000000000000e+00
2.455797216039441e+00 2.283622086500658e+00 0.000000000000000e+00
2.476602502427173e+00 2.280551805361895e+00 0.000000000000000e+00
2.497426842827008e+00 2.274839150159807e+00 0.000000000000000e+00
2.517245715183819e+00 2.266236029108681e+00 0.000000000000000e+00
2.537098398420653e+00 2.257944710276214e+00 0.000000000000000e+00
2.556979037711767e+00 2.248385267589104e+00 0.000000000000000e+00
2.575388229983058e+00 2.237672680323150e+00 0.000000000000000e+00
2.593364695296769e+00 2.225705346588900e+00 0.000000000000000e+00
2.611520271879017e+00 2.213987473904099e+00 0.000000000000000e+00
2.629202491221625e+00 2.201482436595515e+00 0.000000000000000e+00
2.646333138442507e+00 2.188823770386330e+00 0.000000000000000e+00
2.663343018416851e+00 2.175886685196471e+00 0.000000000000000e+00
2.680365517170289e+00 2.163308191772308e+00 0.000000000000000e+00
2.697409613494476e+00 2.150639353322456e+00 0.000000000000000e+00
2.714177658070172e+00 2.136976057661746e+00 0.000000000000000e+00
2.730675232455810e+00 2.123954465830602e+00 0.000000000000000e+00
2.746639216299119e+00 2.109905105730095e+00 0.000000000000000e+00
2.762276246757452e+00 2.095470602333149e+00 0.000000000000000e+00
2.777706032896113e+00 2.081466316304609e+00 0.000000000000000e+00
2.793137117522795e+00 2.067108034289795e+00 0.000000000000000e+00
2.808505838894867e+00 2.053387905063911e+00 0.000000000000000e+00
2.824283800868534e+00 2.039075339692035e+00 0.000000000000000e+00
2.839897393862606e+00 2.025325900546505e+00 0.000000000000000e+00
2.855369224066566e+00 2.011797084023510e+00 0.000000000000000e+00
2.871229026376390e+00 1.997470300967869e+00 0.000000000000000e+00
2.886341121106732e+00 1.983867515413936e+00 0.000000000000000e+00
2.901860682072969e+00 1.969329311794090e+00 0.000000000000000e+00
2.917471854686324e+00 1.955962569981727e+00 0.000000000000000e+00
2.933178541147365e+00 1.942063832388929e+00 0.000000000000000e+00
2.948655147191862e+00 1.928345965985530e+00 0.000000000000000e+00
2.964816931079245e+00 1.915699648386864e+00 0.000000000000000e+00
2.981547907516344e+00 1.903047060127266e+00 0.000000000000000e+00
2.997548425519556e+00 1.891227868463564e+00 0.000000000000000e+00
3.014676984744769e+00 1.879527871273205e+00 0.000000000000000e+00
3.031808776308463e+00 1.868373901422181e+00 0.000000000000000e+00
3.049671450047317e+00 1.857749573531126e+00 0.000000000000000e+00
3.066791308403831e+00 1.847504343024191e+00 0.000000000000000e+00
3.084612533371445e+00 1.836885131334156e+00 0.000000000000000e+00
3.102308046000866e+00 1.826307738705179e+00 0.000000000000000e+00
3.119476570382666e+00 1.815573200995966e+00 0.000000000000000e+00
3.137018593141501e+00 1.804374165544358e+00 0.000000000000000e+00
3.154307880391403e+00 1.793759731372049e+00 0.000000000000000e+00
3.172578083495611e+00 1.783197262623363e+00 0.000000000000000e+00
3.190493287034582e+00 1.773962541899365e+00 0.000000000000000e+00
3.209454850486210e+00 1.765283595249010e+00 0.000000000000000e+00
3.228985733061211e+00 1.757888461402540e+00 0.000000000000000e+00
3.249075154569909e+00 1.751823463176661e+00 0.000000000000000e+00
3.268711099656460e+00 1.747289327534312e+00 0.000000000000000e+00
3.288757213722282e+00 1.744091101479352e+00 0.000000000000000e+00
3.310841076239477e+00 1.741496471149204e+00 0.000000000000000e+00
3.330598996445105e+00 1.739203096160444e+00 0.000000000000000e+00
3.351529199600030e+00 1.737860168882956e+00 0.000000000000000e+00
3.372192713489426e+00 1.737530590418811e+00 0.000000000000000e+00
3.393658766778956e+00 1.737325009304336e+00 0.000000000000000e+00
3.414491647929176e+00 1.736158896893407e+00 0.000000000000000e+00
3.434924611108730e+00 1.734947668708047e+00 0.000000000000000e+00
3.456232535747192e+00 1.734595883202774e+00 0.000000000000000e+00
3.477804241539169e+00 1.734844289111214e+00 0.000000000000000e+00
3.498613534637680e+00 1.734200742189371e+00 0.000000000000000e+00
3.519153461401659e+00 1.732930213102872e+00 0.000000000000000e+00
3.540187763587421e+00 1.732228189397146e+00 0.000000000000000e+00
3.561589786393109e+00 1.733163745919926e+00 0.000000000000000e+00
3.582163677913265e+00 1.733813582121990e+00 0.000000000000000e+00
3.603169966005193e+00 1.734075049216829e+00 0.000000000000000e+00
3.624106817447854e+00 1.735083319504354e+00 0.000000000000000e+00
3.644853105925372e+00 1.737775191273798e+00 0.000000000000000e+00
3.665106639118319e+00 1.742082135909444e+00 0.000000000000000e+00
3.685232515221592e+00 1.746974683595228e+00 0.000000000000000e+00
3.705165789774270e+00 1.752723585704327e+00 0.000000000000000e+00
3.725013884004388e+00 1.759809984890192e+00 0.000000000000000e+00
3.743985182462668e+00 1.768153289796691e+00 0.000000000000000e+00
3.762702701854196e+00 1.777516684954854e+00 0.000000000000000e+00
3.781084163341026e+00 1.787907502119602e+00 0.000000000000000e+00
3.799232519832931e+00 1.798730321358188e+00 0.000000000000000e+00
3.817261052459433e+00 1.809904560518857e+00 0.000000000000000e+00
3.834886406920159e+00 1.820856613255946e+00 0.000000000000000e+00
3.852473030561965e+00 1.832152226981343e+00 0.000000000000000e+00
3.869272071506190e+00 1.843990724395208e+00 0.000000000000000e+00
3.885610190225815e+00 1.856849112914658e+00 0.000000000000000e+00
3.901234175578231e+00 1.870093681951244e+00 0.000000000000000e+00
3.916885315099233e+00 1.884183308387040e+00 0.000000000000000e+00
3.932096309094987e+00 1.898827619306230e+00 0.000000000000000e+00
3.946231316059673e+00 1.914400088118630e+00 0.000000000000000e+00
3.958606251370033e+00 1.930965793598670e+00 0.000000000000000e+00
3.969514285539574e+00 1.948571553213658e+00 0.000000000000000e+00
3.980551702687853e+00 1.966847510331524e+00 0.000000000000000e+00
3.991477602353795e+00 1.984705506530221e+00 0.000000000000000e+00
1.022133556883256e+00 2.986857667591685e+00 0.000000000000000e+00
1.042191529827354e+00 2.977742446498560e+00 0.000000000000000e+00
1.060002036766013e+00 2.965769014384055e+00 0.000000000000000e+00
1.079250343683428e+00 2.956098735300301e+00 0.000000000000000e+00
1.098010026208356e+00 2.944776546197753e+00 0.000000000000000e+00
1.117206458574657e+00 2.933240402962795e+00 0.000000000000000e+00
1.134363736391692e+00 2.921448942286132e+00 0.000000000000000e+00
1.153928430853100e+00 2.908605913206285e+00 0.000000000000000e+00
1.171866564559960e+00 2.897781884211435e+00 0.000000000000000e+00
1.191236444479050e+00 2.886644739509961e+00 0.000000000000000e+00
1.211367463498956e+00 2.877146164904161e+00 0.000000000000000e+00
1.231023912015133e+00 2.866664324682137e+00 0.000000000000000e+00
1.250386924413286e+00 2.855879964867433e+00 0.000000000000000e+00
1.269663839399509e+00 2.844524770860123e+00 0.000000000000000e+00
1.290343158139896e+00 2.835004037123700e+00 0.000000000000000e+00
1.309404338447642e+00 2.825992535924732e+00 0.000000000000000e+00
1.330821512644614e+00 2.817820737623042e+00 0.000000000000000e+00
1.352334673230659e+00 2.812430693926333e+00 0.000000000000000e+00
1.373879691499305e+00 2.807494624213179e+00 0.000000000000000e+00
1.395871193197547e+00 2.803218872836254e+00 0.000000000000000e+00
1.418113198938329e+00 2.800250763436923e+00 0.000000000000000e+00
1.440313446893770e+00 2.799174422048109e+00 0.000000000000000e+00
1.462327392172855e+00 2.798585310586260e+00 0.000000000000000e+00
1.484244624117180e+00 2.798173809775668e+00 0.000000000000000e+00
1.507156491698813e+00 2.799596462171520e+00 0.000000000000000e+00
1.528047683485269e+00 2.800605618707035e+00 0.000000000000000e+00
1.550908093068317e+00 2.801613967557079e+00 0.000000000000000e+00
1.571677385167541e+00 2.805741803627574e+00 0.000000000000000e+00
1.594964422039450e+00 2.809061711981732e+00 0.000000000000000e+00
1.615796624185302e+00 2.808746075745653e+00 0.000000000000000e+00
1.638990716954946e+00 2.808874719974833e+00 0.000000000000000e+00
1.660628652014224e+00 2.814766251756191e+00 0.000000000000000e+00
1.683762308293435e+00 2.814501565847007e+00 0.000000000000000e+00
1.703643034673595e+00 2.812369903444986e+00 0.000000000000000e+00
1.727416523262621e+00 2.813427652619078e+00 0.000000000000000e+00
1.748819402427072e+00 2.811567560287406e+00 0.000000000000000e+00
1.770563706113716e+00 2.805708716726369e+00 0.000000000000000e+00
1.792556987831065e+00 2.807467478256862e+00 0.000000000000000e+00
1.814014388885648e+00 2.800022190929155e+00 0.000000000000000e+00
1.834044616146261e+00 2.794947104146718e+00 0.000000000000000e+00
1.857154102330595e+00 2.792916801834822e+00 0.000000000000000e+00
1.875968776778196e+00 2.786070462247071e+00 0.000000000000000e+00
1.897491349298027e+00 2.778377080820648e+00 0.000000000000000e+00
1.919066532697414e+00 2.773256903853413e+00 0.000000000000000e+00
1.940485968029562e+00 2.770203536622303e+00 0.000000000000000e+00
1.962790228182465e+00 2.764728030142771e+00 0.000000000000000e+00
1.982048322258816e+00 2.752104829535599e+00 0.000000000000000e+00
2.003878292420415e+00 2.750169042522126e+00 0.000000000000000e+00
2.025235193752212e+00 2.742424250791076e+00 0.000000000000000e+00
2.045441662628511e+00 2.734956178586842e+00 0.000000000000000e+00
2.067025854069805e+00 2.727414663187147e+00 0.000000000000000e+00
2.088246279589485e+00 2.723750765820999e+00 0.000000000000000e+00
2.109499786727436e+00 2.720542158048137e+00 0.000000000000000e+00
2.131503000989905e+00 2.714850476711135e+00 0.000000000000000e+00
2.152887784585015e+00 2.709187534431607e+00 0.000000000000000e+00
2.174445576752730e+00 2.710890183242208e+00 0.000000000000000e+00
2.196837171956414e+00 2.708829791870790e+00 0.000000000000000e+00
2.217779143176120e+00 2.701448459832236e+00 0.000000000000000e+00
2.239768946899212e+00 2.700646159313142e+00 0.000000000000000e+00
2.261250539522000e+00 2.702562231473721e+00 0.000000000000000e+00
2.283527410028606e+00 2.701908373828464e+00 0.000000000000000e+00
2.305402460085686e+00 2.700370040634285e+00 0.000000000000000e+00
2.327468045199132e+00 2.701733451098235e+00 0.000000000000000e+00
2.348271276231543e+00 2.706075571700080e+00 0.000000000000000e+00
2.370515988458835e+00 2.706890652122618e+00 0.000000000000000e+00
2.391248484049423e+00 2.706572365773279e+00 0.000000000000000e+00
2.412763523895265e+00 2.708963559747431e+00 0.000000000000000e+00
2.434068830309100e+00 2.712089656420862e+00 0.000000000000000e+00
2.455797216039444e+00 2.716377913499349e+00 0.000000000000000e+00
2.476602502427174e+00 2.719448194638107e+00 0.000000000000000e+00
2.497426842827010e+00 2.725160849840191e+00 0.000000000000000e+00
2.517245715183820e+00 2.733763970891314e+00 0.000000000000000e+00
2.537098398420659e+00 2.742055289723784e+00 0.000000000000000e+00
2.556979037711771e+00 2.751614732410884e+00 0.000000000000000e+00
2.575388229983066e+00 2.762327319676842e+00 0.000000000000000e+00
2.593364695296775e+00 2.774294653411089e+00 0.000000000000000e+00
2.611520271879026e+00 2.786012526095888e+00 0.000000000000000e+00
2.629202491221637e+00 2.798517563404472e+00 0.000000000000000e+00
2.646333138442519e+00 2.811176229613655e+00 0.000000000000000e+00
2.663343018416866e+00 2.824113314803513e+00 0.000000000000000e+00
2.680365517170304e+00 2.836691808227676e+00 0.000000000000000e+00
2.697409613494493e+00 2.849360646677525e+00 0.000000000000000e+00
2.714177658070190e+00 2.863023942338235e+00 0.000000000000000e+00
2.730675232455828e+00 2.876045534169376e+00 0.000000000000000e+00
2.746639216299136e+00 2.890094894269883e+00 0.000000000000000e+00
2.762276246757469e+00 2.904529397666830e+00 0.000000000000000e+00
2.777706032896133e+00 2.918533683695366e+00 0.000000000000000e+00
2.793137117522814e+00 2.932891965710183e+00 0.000000000000000e+00
2.808505838894885e+00 2.946612094936070e+00 0.000000000000000e+00
2.824283800868553e+00 2.960924660307942e+00 0.000000000000000e+00
2.839897393862624e+00 2.974674099453477e+00 0.000000000000000e+00
2.855369224066581e+00 2.988202915976469e+00 0.000000000000000e+00
2.871229026376409e+00 3.002529699032110e+00 0.000000000000000e+00
2.886341121106753e+00 3.016132484586035e+00 0.000000000000000e+00
2.901860682072991e+00 3.030670688205881e+00 0.000000000000000e+00
2.917471854686343e+00 3.044037430018245e+00 0.000000000000000e+00
2.933178541147383e+00 3.057936167611043e+00 0.000000000000000e+00
2.948655147191881e+00 3.071654034014442e+00 0.000000000000000e+00
2.964816931079259e+00 3.084300351613112e+00 0.000000000000000e+00
2.981547907516358e+00 3.096952939872717e+00 0.000000000000000e+00
2.997548425519567e+00 3.108772131536419e+00 0.000000000000000e+00
3.014676984744782e+00 3.120472128726780e+00 0.000000000000000e+00
3.031808776308471e+00 3.131626098577800e+00 0.000000000000000e+00
3.049671450047328e+00 3.142250426468857e+00 0.000000000000000e+00
3.066791308403844e+00 3.152495656975792e+00 0.000000000000000e+00
3.084612533371459e+00 3.163114868665827e+00 0.000000000000000e+00
3.102308046000880e+00 3.173692261294804e+00 0.000000000000000e+00
3.119476570382679e+00 3.184426799004017e+00 0.000000000000000e+00
3.137018593141518e+00 3.195625834455628e+00 0.000000000000000e+00
3.154307880391408e+00 3.206240268627938e+00 0.000000000000000e+00
3.172578083495615e+00 3.216802737376630e+00 0.000000000000000e+00
3.190493287034589e+00 3.226037458100628e+00 0.000000000000000e+00
3.209454850486224e+00 3.234716404750981e+00 0.000000000000000e+00
3.228985733061217e+00 3.242111538597450e+00 0.000000000000000e+00
3.249075154569917e+00 3.248176536823334e+00 0.000000000000000e+00
3.268711099656464e+00 3.252710672465693e+00 0.000000000000000e+00
3.288757213722290e+00 3.255908898520661e+00 0.000000000000000e+00
3.310841076239476e+00 3.258503528850805e+00 0.000000000000000e+00
3.330598996445123e+00 3.260796903839549e+00 0.000000000000000e+00
3.351529199600030e+00 3.262139831117036e+00 0.000000000000000e+00
3.372192713489433e+00 3.262469409581183e+00 0.000000000000000e+00
3.393658766778967e+00 3.262674990695668e+00 0.000000000000000e+00
3.414491647929178e+00 3.263841103106606e+00 0.000000000000000e+00
3.434924611108741e+00 3.265052331291962e+00 0.000000000000000e+00
3.456232535747198e+00 3.265404116797230e+00 0.000000000000000e+00
3.477804241539178e+00 3.265155710888793e+00 0.000000000000000e+00
3.498613534637688e+00 3.265799257810643e+00 0.000000000000000e+00
3.519153461401668e+00 3.267069786897144e+00 0.000000000000000e+00
3.540187763587431e+00 3.267771810602871e+00 0.000000000000000e+00
3.561589786393118e+00 3.266836254080088e+00 0.000000000000000e+00
3.582163677913271e+00 3.266186417878022e+00 0.000000000000000e+00
3.603169966005201e+00 3.265924950783186e+00 0.000000000000000e+00
3.624106817447863e+00 3.264916680495663e+00 0.000000000000000e+00
3.644853105925380e+00 3.262224808726217e+00 0.000000000000000e+00
3.665106639118324e+00 3.257917864090568e+00 0.000000000000000e+00
3.685232515221598e+00 3.253025316404782e+00 0.000000000000000e+00
3.705165789774277e+00 3.247276414295685e+00 0.000000000000000e+00
3.725013884004394e+00 3.240190015109821e+00 0.000000000000000e+00
3.743985182462673e+00 3.231846710203317e+00 0.000000000000000e+00
3.762702701854199e+00 3.222483315045154e+00 0.000000000000000e+00
3.781084163341032e+00 3.212092497880406e+00 0.000000000000000e+00
3.799232519832934e+00 3.201269678641822e+00 0.000000000000000e+00
3.817261052459442e+00 3.190095439481152e+00 0.000000000000000e+00
3.834886406920161e+00 3.179143386744063e+00 0.000000000000000e+00
3.852473030561972e+00 3.167847773018662e+00 0.000000000000000e+00
3.869272071506192e+00 3.156009275604796e+00 0.000000000000000e+00
3.885610190225816e+00 3.143150887085344e+00 0.000000000000000e+00
3.901234175578230e+00 3.129906318048755e+00 0.000000000000000e+00
3.916885315099228e+00 3.115816691612957e+00 0.000000000000000e+00
3.932096309094986e+00 3.101172380693766e+00 0.000000000000000e+00
3.946231316059669e+00 3.085599911881367e+00 0.000000000000000e+00
3.958606251370028e+00 3.069034206401325e+00 0.000000000000000e+00
3.969514285539571e+00 3.051428446786338e+00 0.000000000000000e+00
3.980551702687850e+00 3.033152489668471e+00 0.000000000000000e+00
3.991477602353794e+00 3.015294493469776e+00 0.000000000000000e+00

POINT_DATA   310
SCALARS fNorm double
LOOKUP_TABLE default

3.013164e+03 
3.357921e+03 
2.528009e+03 
1.612519e+03 
4.930507e+01 
1.268611e+03 
5.498863e+02 
1.035021e+03 
7.025797e+02 
2.538995e+03 
1.231019e+03 
5.378361e+02 
5.300654e+02 
3.272013e+03 
3.481800e+02 
2.697527e+03 
3.741905e+03 
3.690613e+02 
6.611038e+02 
1.773020e+03 
2.831772e+03 
8.626700e+02 
2.724186e+02 
2.469893e+03 
1.752773e+02 
7.500619e+01 
4.119247e+03 
1.966422e+03 
4.184322e+03 
9.160690e+02 
9.193644e+03 
9.383719e+03 
2.554644e+03 
3.534653e+03 
4.306918e+03 
4.296353e+03 
8.928730e+03 
1.174333e+04 
1.801637e+03 
2.801357e+03 
4.051364e+03 
3.201182e+02 
3.888365e+03 
2.409574e+03 
3.017198e+03 
1.198981e+04 
1.433537e+04 
7.128621e+03 
4.159129e+02 
9.323665e+02 
4.617588e+03 
4.796781e+02 
2.983241e+03 
3.658012e+02 
8.329253e+03 
4.711461e+03 
7.669213e+03 
8.435592e+03 
3.421585e+03 
2.712652e+03 
1.144298e+03 
3.454108e+03 
3.269692e+03 
4.121309e+03 
9.929741e+02 
2.274982e+03 
1.007483e+03 
5.082982e+01 
2.288576e+03 
1.282118e+03 
2.260236e+03 
1.304338e+03 
2.675888e+02 
5.390500e+02 
7.722588e+01 
2.789201e+02 
9.615996e+02 
4.233248e+02 
2.706131e+02 
3.051286e+02 
8.413675e+01 
9.654637e+02 
2.778826e+02 
9.816810e+02 
4.408903e+02 
1.622551e+02 
1.483839e+02 
2.978845e+02 
8.208070e+01 
2.172975e+02 
4.669407e+01 
2.244138e+02 
1.828210e+01 
1.800857e+02 
6.129745e+02 
9.938239e+01 
3.729367e+01 
6.807021e+02 
3.399469e+02 
7.382950e+01 
4.339405e+02 
1.902956e+02 
4.400093e+02 
6.931041e+01 
3.705824e+01 
3.161194e+01 
2.211360e+02 
1.036723e+02 
1.783715e+02 
3.897239e+02 
5.109633e+02 
5.345241e+02 
9.018673e+02 
9.845809e+02 
6.995826e+02 
5.468568e+02 
9.225177e+02 
1.109898e+02 
6.957928e+02 
6.819186e+02 
2.224086e+02 
9.924527e+02 
1.931942e+02 
4.465023e+02 
3.964200e+02 
6.883340e+02 
3.399910e+02 
4.380195e+02 
1.539966e+03 
3.518714e+00 
9.088183e+01 
7.231600e+02 
1.408465e+03 
1.161814e+03 
4.268507e+02 
6.044198e+02 
1.046235e+03 
1.208198e+03 
8.718243e+02 
8.245636e+02 
3.401524e+02 
3.090546e+02 
8.474691e+01 
2.609255e+02 
5.237830e+02 
5.814628e+02 
4.105980e+02 
2.675755e+02 
5.900322e+02 
1.184703e+03 
1.439788e+03 
1.078605e+03 
4.649784e+01 
1.517826e+02 
2.569203e+03 
3.013164e+03 
3.357921e+03 
2.528009e+03 
1.612519e+03 
4.930507e+01 
1.268611e+03 
5.498863e+02 
1.035021e+03 
7.025797e+02 
2.538995e+03 
1.231019e+03 
5.378361e+02 
5.300654e+02 
3.272013e+03 
3.481800e+02 
2.697527e+03 
3.741905e+03 
3.690613e+02 
6.611038e+02 
1.773020e+03 
2.831772e+03 
8.626700e+02 
2.724186e+02 
2.469893e+03 
1.752773e+02 
7.500619e+01 
4.119247e+03 
1.966422e+03 
4.184322e+03 
9.160690e+02 
9.193644e+03 
9.383719e+03 
2.554644e+03 
3.534653e+03 
4.306918e+03 
4.296353e+03 
8.928730e+03 
1.174333e+04 
1.801637e+03 
2.801357e+03 
4.051364e+03 
3.201182e+02 
3.888365e+03 
2.409574e+03 
3.017198e+03 
1.198981e+04 
1.433537e+04 
7.128621e+03 
4.159129e+02 
9.323665e+02 
4.617588e+03 
4.796781e+02 
2.983241e+03 
3.658012e+02 
8.329253e+03 
4.711461e+03 
7.669213e+03 
8.435592e+03 
3.421585e+03 
2.712652e+03 
1.144298e+03 
3.454108e+03 
3.269692e+03 
4.121309e+03 
9.929741e+02 
2.274982e+03 
1.007483e+03 
5.082982e+01 
2.288576e+03 
1.282118e+03 
2.260236e+03 
1.304338e+03 
2.675888e+02 
5.390500e+02 
7.722588e+01 
2.789201e+02 
9.615996e+02 
4.233248e+02 
2.706131e+02 
3.051286e+02 
8.413675e+01 
9.654637e+02 
2.778826e+02 
9.816810e+02 
4.408903e+02 
1.622551e+02 
1.483839e+02 
2.978845e+02 
8.208070e+01 
2.172975e+02 
4.669407e+01 
2.244138e+02 
1.828210e+01 
1.800857e+02 
6.129745e+02 
9.938239e+01 
3.729367e+01 
6.807021e+02 
3.399469e+02 
7.382950e+01 
4.339405e+02 
1.902956e+02 
4.400093e+02 
6.931041e+01 
3.705824e+01 
3.161194e+01 
2.211360e+02 
1.036723e+02 
1.783715e+02 
3.897239e+02 
5.109633e+02 
5.345241e+02 
9.018673e+02 
9.845809e+02 
6.995826e+02 
5.468568e+02 
9.225177e+02 
1.109898e+02 
6.957928e+02 
6.819186e+02 
2.224086e+02 
9.924527e+02 
1.931942e+02 
4.465023e+02 
3.964200e+02 
6.883340e+02 
3.399910e+02 
4.380195e+02 
1.539966e+03 
3.518714e+00 
9.088183e+01 
7.231600e+02 
1.408465e+03 
1.161814e+03 
4.268507e+02 
6.044198e+02 
1.046235e+03 
1.208198e+03 
8.718243e+02 
8.245636e+02 
3.401524e+02 
3.090546e+02 
8.474691e+01 
2.609255e+02 
5.237830e+02 
5.814628e+02 
4.105980e+02 
2.675755e+02 
5.900322e+02 
1.184703e+03 
1.439788e+03 
1.078605e+03 
4.649784e+01 
1.517826e+02 
2.569203e+03 
