# vtk DataFile Version 2.0
fNorm
ASCII
DATASET UNSTRUCTURED_GRID

FIELD FieldData 1
TIME 1 1 double
0.24500000
POINTS 310 float
1.004142397971294e+00 2.003682366673804e+00 0.000000000000000e+00
1.019926318967306e+00 2.016014451791720e+00 0.000000000000000e+00
1.035330976300015e+00 2.028979279222123e+00 0.000000000000000e+00
1.051031331238994e+00 2.041598826159368e+00 0.000000000000000e+00
1.066678501993687e+00 2.054023379456774e+00 0.000000000000000e+00
1.083161045178832e+00 2.065710181438945e+00 0.000000000000000e+00
1.099651628496621e+00 2.076890141591505e+00 0.000000000000000e+00
1.115903235214678e+00 2.088894633275822e+00 0.000000000000000e+00
1.133106558683396e+00 2.099146424970112e+00 0.000000000000000e+00
1.149650023075479e+00 2.110576348334296e+00 0.000000000000000e+00
1.167408775533746e+00 2.119790112064911e+00 0.000000000000000e+00
1.184216528640975e+00 2.130772524980987e+00 0.000000000000000e+00
1.202011214843114e+00 2.140086117615408e+00 0.000000000000000e+00
1.219252864300381e+00 2.150307878207002e+00 0.000000000000000e+00
1.237285608396848e+00 2.158991872051706e+00 0.000000000000000e+00
1.254844337059382e+00 2.168606159560904e+00 0.000000000000000e+00
1.272855912157650e+00 2.177579005610496e+00 0.000000000000000e+00
1.290822781798629e+00 2.186420781904778e+00 0.000000000000000e+00
1.308612348922619e+00 2.195582258473669e+00 0.000000000000000e+00
1.326896770383420e+00 2.203715050431898e+00 0.000000000000000e+00
1.345017197527361e+00 2.212415359003272e+00 0.000000000000000e+00
1.363253759889639e+00 2.220588072447273e+00 0.000000000000000e+00
1.381413191414417e+00 2.229166635646159e+00 0.000000000000000e+00
1.399516126151184e+00 2.237445186629044e+00 0.000000000000000e+00
1.418168597603345e+00 2.245383594717539e+00 0.000000000000000e+00
1.436396968723809e+00 2.252976424443284e+00 0.000000000000000e+00
1.455146217073170e+00 2.260757679980675e+00 0.000000000000000e+00
1.473188239691261e+00 2.268710723092966e+00 0.000000000000000e+00
1.492010329102584e+00 2.276198064935066e+00 0.000000000000000e+00
1.510795225406783e+00 2.282794059318549e+00 0.000000000000000e+00
1.528969989640441e+00 2.291120433816443e+00 0.000000000000000e+00
1.548189734435162e+00 2.297184461305571e+00 0.000000000000000e+00
1.567017971131213e+00 2.303715144315426e+00 0.000000000000000e+00
1.585744885325975e+00 2.310849819853434e+00 0.000000000000000e+00
1.605008588097801e+00 2.316391493753279e+00 0.000000000000000e+00
1.624217743981921e+00 2.321967690333142e+00 0.000000000000000e+00
1.642849164326159e+00 2.329384878041377e+00 0.000000000000000e+00
1.662730082454829e+00 2.331364670745543e+00 0.000000000000000e+00
1.681377519220577e+00 2.339035801701355e+00 0.000000000000000e+00
1.700524566849694e+00 2.344679383673150e+00 0.000000000000000e+00
1.720178228344450e+00 2.348912462669567e+00 0.000000000000000e+00
1.738996813180868e+00 2.355510064052516e+00 0.000000000000000e+00
1.758310794814656e+00 2.361590318368975e+00 0.000000000000000e+00
1.777451920065885e+00 2.366790686571639e+00 0.000000000000000e+00
1.797159410300231e+00 2.371823291054706e+00 0.000000000000000e+00
1.816855544199392e+00 2.373912383679160e+00 0.000000000000000e+00
1.835813973136432e+00 2.381238218428172e+00 0.000000000000000e+00
1.855855614128852e+00 2.382097677643342e+00 0.000000000000000e+00
1.875550447170055e+00 2.385592032323863e+00 0.000000000000000e+00
1.895518981273407e+00 2.388211244575510e+00 0.000000000000000e+00
1.915398334539743e+00 2.391668598733432e+00 0.000000000000000e+00
1.935381197627994e+00 2.391199300534824e+00 0.000000000000000e+00
1.955478757707660e+00 2.391757885854786e+00 0.000000000000000e+00
1.975522855467438e+00 2.392146460073586e+00 0.000000000000000e+00
1.995715034680416e+00 2.393381306630033e+00 0.000000000000000e+00
2.015578462788260e+00 2.390678777680983e+00 0.000000000000000e+00
2.035590518791191e+00 2.388754658908360e+00 0.000000000000000e+00
2.055603799762330e+00 2.389741142204581e+00 0.000000000000000e+00
2.075583844666344e+00 2.386383369440448e+00 0.000000000000000e+00
2.095260523985796e+00 2.382579251208742e+00 0.000000000000000e+00
2.115595982245861e+00 2.379967680842802e+00 0.000000000000000e+00
2.134973606326367e+00 2.377520134536242e+00 0.000000000000000e+00
2.154732040400905e+00 2.373199697803293e+00 0.000000000000000e+00
2.174413544053174e+00 2.366713751538598e+00 0.000000000000000e+00
2.194374368269249e+00 2.364444380169138e+00 0.000000000000000e+00
2.214040537937789e+00 2.362071945641008e+00 0.000000000000000e+00
2.233762131197437e+00 2.356752986977690e+00 0.000000000000000e+00
2.253610028842414e+00 2.352368284399354e+00 0.000000000000000e+00
2.274066440472814e+00 2.350298112312249e+00 0.000000000000000e+00
2.293528291805647e+00 2.349595276067839e+00 0.000000000000000e+00
2.313798873721742e+00 2.345521608005197e+00 0.000000000000000e+00
2.333814508422362e+00 2.341230355215330e+00 0.000000000000000e+00
2.353868287142047e+00 2.339049673316743e+00 0.000000000000000e+00
2.373984721921801e+00 2.337110905557661e+00 0.000000000000000e+00
2.393824152159172e+00 2.332508916555974e+00 0.000000000000000e+00
2.413749198368284e+00 2.326901939936298e+00 0.000000000000000e+00
2.433352528546133e+00 2.322702974216721e+00 0.000000000000000e+00
2.453122925196670e+00 2.317433948567032e+00 0.000000000000000e+00
2.472423463466873e+00 2.309542214630076e+00 0.000000000000000e+00
2.490746564215397e+00 2.301056042368302e+00 0.000000000000000e+00
2.509914859561560e+00 2.293220680549862e+00 0.000000000000000e+00
2.529456228949222e+00 2.286850024261016e+00 0.000000000000000e+00
2.548436247448089e+00 2.278642963507142e+00 0.000000000000000e+00
2.567848681428845e+00 2.271704373638022e+00 0.000000000000000e+00
2.588132750394086e+00 2.268561525427397e+00 0.000000000000000e+00
2.608339671408324e+00 2.263858470502942e+00 0.000000000000000e+00
2.628375910021472e+00 2.259279504652728e+00 0.000000000000000e+00
2.648781591754718e+00 2.256432270590369e+00 0.000000000000000e+00
2.669395491645123e+00 2.254486278854014e+00 0.000000000000000e+00
2.689682431333907e+00 2.250803664366233e+00 0.000000000000000e+00
2.710278045046927e+00 2.248000043930662e+00 0.000000000000000e+00
2.730493410106293e+00 2.245500656911728e+00 0.000000000000000e+00
2.751246878268869e+00 2.243693107135476e+00 0.000000000000000e+00
2.771883257651517e+00 2.241724030254975e+00 0.000000000000000e+00
2.792229369740804e+00 2.238297023406796e+00 0.000000000000000e+00
2.812541001022125e+00 2.236192750366405e+00 0.000000000000000e+00
2.833386735177445e+00 2.234802481256439e+00 0.000000000000000e+00
2.853900879351214e+00 2.232021336400482e+00 0.000000000000000e+00
2.874234105104522e+00 2.229351687666127e+00 0.000000000000000e+00
2.894563541806642e+00 2.226439096859476e+00 0.000000000000000e+00
2.915376289746658e+00 2.224370542303669e+00 0.000000000000000e+00
2.935762781415745e+00 2.222203666534234e+00 0.000000000000000e+00
2.956105716237675e+00 2.218263689796327e+00 0.000000000000000e+00
2.976233412302833e+00 2.215701633384251e+00 0.000000000000000e+00
2.997308372044966e+00 2.213385423000033e+00 0.000000000000000e+00
3.017401342404586e+00 2.211399168798850e+00 0.000000000000000e+00
3.038015635192343e+00 2.208696998686489e+00 0.000000000000000e+00
3.058320501635043e+00 2.205701377000141e+00 0.000000000000000e+00
3.079087560726442e+00 2.205473005874389e+00 0.000000000000000e+00
3.099446458353598e+00 2.205654824957200e+00 0.000000000000000e+00
3.120345416251751e+00 2.204761057369035e+00 0.000000000000000e+00
3.140505532285832e+00 2.205526908084978e+00 0.000000000000000e+00
3.161606350843202e+00 2.206238160242485e+00 0.000000000000000e+00
3.181944075308484e+00 2.208657601662803e+00 0.000000000000000e+00
3.202042206596580e+00 2.211076920373024e+00 0.000000000000000e+00
3.223272135882764e+00 2.212168607273705e+00 0.000000000000000e+00
3.243205333034668e+00 2.213389892558949e+00 0.000000000000000e+00
3.264393191290895e+00 2.215246201426162e+00 0.000000000000000e+00
3.284178646871555e+00 2.217368904908783e+00 0.000000000000000e+00
3.305401492168166e+00 2.217673865662243e+00 0.000000000000000e+00
3.325760397810930e+00 2.217210162909469e+00 0.000000000000000e+00
3.346455276461251e+00 2.216629253143182e+00 0.000000000000000e+00
3.366828473983582e+00 2.216000545363670e+00 0.000000000000000e+00
3.387741214649518e+00 2.213514432584846e+00 0.000000000000000e+00
3.407889480172327e+00 2.210349903030347e+00 0.000000000000000e+00
3.428315913752395e+00 2.206801948766035e+00 0.000000000000000e+00
3.448587208414537e+00 2.203609280008691e+00 0.000000000000000e+00
3.468980868833142e+00 2.199352574070780e+00 0.000000000000000e+00
3.488806933746297e+00 2.193316920944596e+00 0.000000000000000e+00
3.508933307594139e+00 2.189685536290562e+00 0.000000000000000e+00
3.528982407698949e+00 2.184796255575643e+00 0.000000000000000e+00
3.549378961903381e+00 2.179824795713918e+00 0.000000000000000e+00
3.568590781036591e+00 2.172919824698100e+00 0.000000000000000e+00
3.588493730463205e+00 2.166936268250013e+00 0.000000000000000e+00
3.608857898183869e+00 2.163006673580256e+00 0.000000000000000e+00
3.627914334572376e+00 2.155635324280159e+00 0.000000000000000e+00
3.647619872377358e+00 2.149500637119388e+00 0.000000000000000e+00
3.667773466943113e+00 2.143358241304944e+00 0.000000000000000e+00
3.686777042770953e+00 2.136408725328695e+00 0.000000000000000e+00
3.706299033746035e+00 2.129010051650121e+00 0.000000000000000e+00
3.725574209281537e+00 2.121989735685907e+00 0.000000000000000e+00
3.745255133188772e+00 2.115164823625240e+00 0.000000000000000e+00
3.764090616659161e+00 2.107090570055940e+00 0.000000000000000e+00
3.783026598070988e+00 2.098283324922626e+00 0.000000000000000e+00
3.802435449756172e+00 2.091122378591352e+00 0.000000000000000e+00
3.821236936841530e+00 2.083098618068122e+00 0.000000000000000e+00
3.839687980632080e+00 2.073539461141343e+00 0.000000000000000e+00
3.858987556325261e+00 2.066112115697650e+00 0.000000000000000e+00
3.877867217822581e+00 2.057828625735120e+00 0.000000000000000e+00
3.896247227606467e+00 2.048187437936419e+00 0.000000000000000e+00
3.914823076550739e+00 2.038964271138657e+00 0.000000000000000e+00
3.933902017370609e+00 2.031576705115655e+00 0.000000000000000e+00
3.953229296977963e+00 2.024209247321372e+00 0.000000000000000e+00
3.970374316016851e+00 2.012211229912388e+00 0.000000000000000e+00
3.989935198165034e+00 2.005642990575444e+00 0.000000000000000e+00
1.004142397971292e+00 2.996317633326198e+00 0.000000000000000e+00
1.019926318967302e+00 2.983985548208278e+00 0.000000000000000e+00
1.035330976300011e+00 2.971020720777878e+00 0.000000000000000e+00
1.051031331238987e+00 2.958401173840627e+00 0.000000000000000e+00
1.066678501993677e+00 2.945976620543219e+00 0.000000000000000e+00
1.083161045178822e+00 2.934289818561049e+00 0.000000000000000e+00
1.099651628496609e+00 2.923109858408488e+00 0.000000000000000e+00
1.115903235214665e+00 2.911105366724168e+00 0.000000000000000e+00
1.133106558683383e+00 2.900853575029882e+00 0.000000000000000e+00
1.149650023075466e+00 2.889423651665697e+00 0.000000000000000e+00
1.167408775533732e+00 2.880209887935079e+00 0.000000000000000e+00
1.184216528640960e+00 2.869227475019003e+00 0.000000000000000e+00
1.202011214843100e+00 2.859913882384582e+00 0.000000000000000e+00
1.219252864300366e+00 2.849692121792988e+00 0.000000000000000e+00
1.237285608396827e+00 2.841008127948274e+00 0.000000000000000e+00
1.254844337059365e+00 2.831393840439081e+00 0.000000000000000e+00
1.272855912157631e+00 2.822420994389489e+00 0.000000000000000e+00
1.290822781798610e+00 2.813579218095208e+00 0.000000000000000e+00
1.308612348922601e+00 2.804417741526318e+00 0.000000000000000e+00
1.326896770383401e+00 2.796284949568087e+00 0.000000000000000e+00
1.345017197527344e+00 2.787584640996717e+00 0.000000000000000e+00
1.363253759889616e+00 2.779411927552706e+00 0.000000000000000e+00
1.381413191414401e+00 2.770833364353831e+00 0.000000000000000e+00
1.399516126151162e+00 2.762554813370940e+00 0.000000000000000e+00
1.418168597603326e+00 2.754616405282446e+00 0.000000000000000e+00
1.436396968723791e+00 2.747023575556710e+00 0.000000000000000e+00
1.455146217073154e+00 2.739242320019319e+00 0.000000000000000e+00
1.473188239691244e+00 2.731289276907028e+00 0.000000000000000e+00
1.492010329102567e+00 2.723801935064929e+00 0.000000000000000e+00
1.510795225406766e+00 2.717205940681447e+00 0.000000000000000e+00
1.528969989640425e+00 2.708879566183553e+00 0.000000000000000e+00
1.548189734435146e+00 2.702815538694432e+00 0.000000000000000e+00
1.567017971131199e+00 2.696284855684576e+00 0.000000000000000e+00
1.585744885325961e+00 2.689150180146572e+00 0.000000000000000e+00
1.605008588097788e+00 2.683608506246725e+00 0.000000000000000e+00
1.624217743981908e+00 2.678032309666869e+00 0.000000000000000e+00
1.642849164326146e+00 2.670615121958630e+00 0.000000000000000e+00
1.662730082454816e+00 2.668635329254473e+00 0.000000000000000e+00
1.681377519220564e+00 2.660964198298657e+00 0.000000000000000e+00
1.700524566849682e+00 2.655320616326867e+00 0.000000000000000e+00
1.720178228344439e+00 2.651087537330454e+00 0.000000000000000e+00
1.738996813180856e+00 2.644489935947502e+00 0.000000000000000e+00
1.758310794814645e+00 2.638409681631047e+00 0.000000000000000e+00
1.777451920065874e+00 2.633209313428384e+00 0.000000000000000e+00
1.797159410300220e+00 2.628176708945316e+00 0.000000000000000e+00
1.816855544199384e+00 2.626087616320881e+00 0.000000000000000e+00
1.835813973136420e+00 2.618761781571861e+00 0.000000000000000e+00
1.855855614128840e+00 2.617902322356690e+00 0.000000000000000e+00
1.875550447170042e+00 2.614407967676176e+00 0.000000000000000e+00
1.895518981273395e+00 2.611788755424526e+00 0.000000000000000e+00
1.915398334539731e+00 2.608331401266603e+00 0.000000000000000e+00
1.935381197627981e+00 2.608800699465216e+00 0.000000000000000e+00
1.955478757707645e+00 2.608242114145255e+00 0.000000000000000e+00
1.975522855467426e+00 2.607853539926450e+00 0.000000000000000e+00
1.995715034680404e+00 2.606618693370011e+00 0.000000000000000e+00
2.015578462788246e+00 2.609321222319054e+00 0.000000000000000e+00
2.035590518791179e+00 2.611245341091680e+00 0.000000000000000e+00
2.055603799762318e+00 2.610258857795468e+00 0.000000000000000e+00
2.075583844666329e+00 2.613616630559596e+00 0.000000000000000e+00
2.095260523985786e+00 2.617420748791311e+00 0.000000000000000e+00
2.115595982245848e+00 2.620032319157243e+00 0.000000000000000e+00
2.134973606326354e+00 2.622479865463807e+00 0.000000000000000e+00
2.154732040400890e+00 2.626800302196764e+00 0.000000000000000e+00
2.174413544053163e+00 2.633286248461448e+00 0.000000000000000e+00
2.194374368269235e+00 2.635555619830899e+00 0.000000000000000e+00
2.214040537937779e+00 2.637928054359044e+00 0.000000000000000e+00
2.233762131197421e+00 2.643247013022366e+00 0.000000000000000e+00
2.253610028842403e+00 2.647631715600699e+00 0.000000000000000e+00
2.274066440472800e+00 2.649701887687797e+00 0.000000000000000e+00
2.293528291805635e+00 2.650404723932199e+00 0.000000000000000e+00
2.313798873721733e+00 2.654478391994837e+00 0.000000000000000e+00
2.333814508422348e+00 2.658769644784703e+00 0.000000000000000e+00
2.353868287142038e+00 2.660950326683286e+00 0.000000000000000e+00
2.373984721921789e+00 2.662889094442370e+00 0.000000000000000e+00
2.393824152159165e+00 2.667491083444050e+00 0.000000000000000e+00
2.413749198368275e+00 2.673098060063723e+00 0.000000000000000e+00
2.433352528546127e+00 2.677297025783299e+00 0.000000000000000e+00
2.453122925196665e+00 2.682566051432975e+00 0.000000000000000e+00
2.472423463466869e+00 2.690457785369930e+00 0.000000000000000e+00
2.490746564215395e+00 2.698943957631702e+00 0.000000000000000e+00
2.509914859561558e+00 2.706779319450141e+00 0.000000000000000e+00
2.529456228949222e+00 2.713149975738982e+00 0.000000000000000e+00
2.548436247448085e+00 2.721357036492863e+00 0.000000000000000e+00
2.567848681428846e+00 2.728295626361974e+00 0.000000000000000e+00
2.588132750394085e+00 2.731438474572601e+00 0.000000000000000e+00
2.608339671408324e+00 2.736141529497060e+00 0.000000000000000e+00
2.628375910021469e+00 2.740720495347277e+00 0.000000000000000e+00
2.648781591754717e+00 2.743567729409635e+00 0.000000000000000e+00
2.669395491645122e+00 2.745513721145993e+00 0.000000000000000e+00
2.689682431333905e+00 2.749196335633767e+00 0.000000000000000e+00
2.710278045046926e+00 2.751999956069351e+00 0.000000000000000e+00
2.730493410106292e+00 2.754499343088274e+00 0.000000000000000e+00
2.751246878268870e+00 2.756306892864516e+00 0.000000000000000e+00
2.771883257651516e+00 2.758275969745034e+00 0.000000000000000e+00
2.792229369740803e+00 2.761702976593211e+00 0.000000000000000e+00
2.812541001022125e+00 2.763807249633596e+00 0.000000000000000e+00
2.833386735177446e+00 2.765197518743555e+00 0.000000000000000e+00
2.853900879351209e+00 2.767978663599523e+00 0.000000000000000e+00
2.874234105104524e+00 2.770648312333881e+00 0.000000000000000e+00
2.894563541806642e+00 2.773560903140521e+00 0.000000000000000e+00
2.915376289746660e+00 2.775629457696326e+00 0.000000000000000e+00
2.935762781415745e+00 2.777796333465767e+00 0.000000000000000e+00
2.956105716237674e+00 2.781736310203673e+00 0.000000000000000e+00
2.976233412302836e+00 2.784298366615737e+00 0.000000000000000e+00
2.997308372044967e+00 2.786614576999953e+00 0.000000000000000e+00
3.017401342404589e+00 2.788600831201132e+00 0.000000000000000e+00
3.038015635192344e+00 2.791303001313497e+00 0.000000000000000e+00
3.058320501635047e+00 2.794298622999841e+00 0.000000000000000e+00
3.079087560726445e+00 2.794526994125581e+00 0.000000000000000e+00
3.099446458353607e+00 2.794345175042777e+00 0.000000000000000e+00
3.120345416251750e+00 2.795238942630957e+00 0.000000000000000e+00
3.140505532285840e+00 2.794473091915006e+00 0.000000000000000e+00
3.161606350843206e+00 2.793761839757494e+00 0.000000000000000e+00
3.181944075308489e+00 2.791342398337180e+00 0.000000000000000e+00
3.202042206596587e+00 2.788923079626968e+00 0.000000000000000e+00
3.223272135882772e+00 2.787831392726291e+00 0.000000000000000e+00
3.243205333034672e+00 2.786610107441031e+00 0.000000000000000e+00
3.264393191290901e+00 2.784753798573816e+00 0.000000000000000e+00
3.284178646871561e+00 2.782631095091201e+00 0.000000000000000e+00
3.305401492168175e+00 2.782326134337750e+00 0.000000000000000e+00
3.325760397810928e+00 2.782789837090511e+00 0.000000000000000e+00
3.346455276461263e+00 2.783370746856799e+00 0.000000000000000e+00
3.366828473983584e+00 2.783999454636305e+00 0.000000000000000e+00
3.387741214649526e+00 2.786485567415139e+00 0.000000000000000e+00
3.407889480172329e+00 2.789650096969631e+00 0.000000000000000e+00
3.428315913752403e+00 2.793198051233934e+00 0.000000000000000e+00
3.448587208414542e+00 2.796390719991285e+00 0.000000000000000e+00
3.468980868833146e+00 2.800647425929200e+00 0.000000000000000e+00
3.488806933746302e+00 2.806683079055377e+00 0.000000000000000e+00
3.508933307594146e+00 2.810314463709410e+00 0.000000000000000e+00
3.528982407698957e+00 2.815203744424337e+00 0.000000000000000e+00
3.549378961903384e+00 2.820175204286057e+00 0.000000000000000e+00
3.568590781036598e+00 2.827080175301873e+00 0.000000000000000e+00
3.588493730463214e+00 2.833063731749955e+00 0.000000000000000e+00
3.608857898183876e+00 2.836993326419723e+00 0.000000000000000e+00
3.627914334572379e+00 2.844364675719824e+00 0.000000000000000e+00
3.647619872377365e+00 2.850499362880592e+00 0.000000000000000e+00
3.667773466943115e+00 2.856641758695037e+00 0.000000000000000e+00
3.686777042770954e+00 2.863591274671290e+00 0.000000000000000e+00
3.706299033746042e+00 2.870989948349866e+00 0.000000000000000e+00
3.725574209281534e+00 2.878010264314082e+00 0.000000000000000e+00
3.745255133188775e+00 2.884835176374754e+00 0.000000000000000e+00
3.764090616659156e+00 2.892909429944056e+00 0.000000000000000e+00
3.783026598070989e+00 2.901716675077373e+00 0.000000000000000e+00
3.802435449756167e+00 2.908877621408651e+00 0.000000000000000e+00
3.821236936841530e+00 2.916901381931878e+00 0.000000000000000e+00
3.839687980632073e+00 2.926460538858662e+00 0.000000000000000e+00
3.858987556325256e+00 2.933887884302360e+00 0.000000000000000e+00
3.877867217822572e+00 2.942171374264890e+00 0.000000000000000e+00
3.896247227606464e+00 2.951812562063588e+00 0.000000000000000e+00
3.914823076550733e+00 2.961035728861348e+00 0.000000000000000e+00
3.933902017370603e+00 2.968423294884358e+00 0.000000000000000e+00
3.953229296977956e+00 2.975790752678635e+00 0.000000000000000e+00
3.970374316016849e+00 2.987788770087616e+00 0.000000000000000e+00
3.989935198165032e+00 2.994357009424560e+00 0.000000000000000e+00

POINT_DATA   310
SCALARS fNorm double
LOOKUP_TABLE default

4.940235e+02 
2.305155e+02 
1.441570e+02 
8.390603e+01 
3.931883e+02 
1.605518e+02 
1.988690e+02 
6.508518e+02 
3.130079e+02 
7.399009e+02 
5.085741e+02 
5.761563e+02 
2.386073e+02 
4.900348e+02 
2.333996e+02 
2.466844e+02 
4.330260e+01 
7.059571e+01 
3.203629e+02 
1.314519e+02 
1.199767e+02 
1.077044e+02 
5.664091e+01 
1.928013e+02 
3.920994e+01 
1.677826e+01 
1.071377e+02 
1.877336e+02 
2.546360e+02 
3.915056e+02 
7.308351e+02 
1.121641e+02 
1.382972e+02 
5.149947e+02 
8.041764e+00 
4.139497e+02 
1.431417e+03 
1.644537e+03 
5.351805e+02 
4.435510e+02 
6.944274e+02 
1.601348e+02 
2.676340e+02 
1.875966e+02 
7.889877e+02 
1.435737e+03 
2.278181e+03 
5.955943e+02 
1.850374e+02 
1.663594e+02 
1.260666e+03 
2.035367e+02 
1.398094e+01 
1.770202e+02 
1.389680e+03 
2.285877e+02 
8.680231e+02 
1.523897e+03 
2.847256e+02 
5.235663e+02 
2.367724e+01 
5.093660e+02 
1.077047e+03 
1.992599e+03 
1.931422e+01 
1.027302e+03 
4.576884e+02 
1.279502e+03 
3.836687e+02 
1.036190e+03 
1.875286e+02 
9.293639e+02 
6.803238e+01 
7.943965e+02 
1.251090e+02 
1.385423e+03 
7.659555e+01 
1.157208e+03 
9.341656e+01 
1.206058e+03 
9.028054e+02 
9.857173e+02 
8.696780e+02 
2.174187e+03 
7.894928e+02 
2.008709e+01 
1.005012e+03 
5.283445e+02 
1.026115e+03 
5.144454e+02 
1.899935e+02 
4.288293e+02 
1.556301e+02 
8.846646e+02 
6.970056e+02 
4.533381e+02 
9.279024e+02 
7.255852e+00 
9.799379e+01 
5.633049e+02 
1.073419e+02 
9.838491e+02 
6.572794e+02 
2.698961e+02 
1.241603e+02 
3.557869e+02 
1.335304e+02 
1.671451e+03 
2.740554e+02 
6.349071e+02 
8.988837e+02 
2.225026e+01 
1.232147e+03 
4.449411e+01 
9.727976e+02 
1.899797e+02 
2.800746e+02 
2.538653e+02 
1.061299e+03 
5.464708e+02 
5.364852e+01 
8.706755e+01 
1.140909e+03 
5.946320e+02 
1.794879e+02 
1.453125e+02 
6.699427e+02 
1.211208e+03 
1.255166e+03 
6.284322e+02 
1.287897e+02 
1.348154e+03 
6.290058e+02 
1.310660e+03 
1.991752e+03 
6.458913e+02 
1.072407e+02 
6.866627e+02 
1.462661e+02 
1.690216e+02 
1.523181e+02 
9.323020e+02 
3.920203e+02 
1.082495e+03 
5.811569e+02 
8.700687e+02 
1.409346e+03 
5.407248e+02 
9.022792e+02 
3.227673e+02 
1.117022e+03 
4.034521e+01 
3.287137e+03 
3.810246e+03 
1.992859e+03 
4.940235e+02 
2.305155e+02 
1.441570e+02 
8.390603e+01 
3.931883e+02 
1.605518e+02 
1.988690e+02 
6.508518e+02 
3.130079e+02 
7.399009e+02 
5.085741e+02 
5.761563e+02 
2.386073e+02 
4.900348e+02 
2.333996e+02 
2.466844e+02 
4.330260e+01 
7.059571e+01 
3.203629e+02 
1.314519e+02 
1.199767e+02 
1.077044e+02 
5.664091e+01 
1.928013e+02 
3.920994e+01 
1.677826e+01 
1.071377e+02 
1.877336e+02 
2.546360e+02 
3.915056e+02 
7.308351e+02 
1.121641e+02 
1.382972e+02 
5.149947e+02 
8.041764e+00 
4.139497e+02 
1.431417e+03 
1.644537e+03 
5.351805e+02 
4.435510e+02 
6.944274e+02 
1.601348e+02 
2.676340e+02 
1.875966e+02 
7.889877e+02 
1.435737e+03 
2.278181e+03 
5.955943e+02 
1.850374e+02 
1.663594e+02 
1.260666e+03 
2.035367e+02 
1.398094e+01 
1.770202e+02 
1.389680e+03 
2.285877e+02 
8.680231e+02 
1.523897e+03 
2.847256e+02 
5.235663e+02 
2.367724e+01 
5.093660e+02 
1.077047e+03 
1.992599e+03 
1.931422e+01 
1.027302e+03 
4.576884e+02 
1.279502e+03 
3.836687e+02 
1.036190e+03 
1.875286e+02 
9.293639e+02 
6.803238e+01 
7.943965e+02 
1.251090e+02 
1.385423e+03 
7.659555e+01 
1.157208e+03 
9.341656e+01 
1.206058e+03 
9.028054e+02 
9.857173e+02 
8.696780e+02 
2.174187e+03 
7.894928e+02 
2.008709e+01 
1.005012e+03 
5.283445e+02 
1.026115e+03 
5.144454e+02 
1.899935e+02 
4.288293e+02 
1.556301e+02 
8.846646e+02 
6.970056e+02 
4.533381e+02 
9.279024e+02 
7.255852e+00 
9.799379e+01 
5.633049e+02 
1.073419e+02 
9.838491e+02 
6.572794e+02 
2.698961e+02 
1.241603e+02 
3.557869e+02 
1.335304e+02 
1.671451e+03 
2.740554e+02 
6.349071e+02 
8.988837e+02 
2.225026e+01 
1.232147e+03 
4.449411e+01 
9.727976e+02 
1.899797e+02 
2.800746e+02 
2.538653e+02 
1.061299e+03 
5.464708e+02 
5.364852e+01 
8.706755e+01 
1.140909e+03 
5.946320e+02 
1.794879e+02 
1.453125e+02 
6.699427e+02 
1.211208e+03 
1.255166e+03 
6.284322e+02 
1.287897e+02 
1.348154e+03 
6.290058e+02 
1.310660e+03 
1.991752e+03 
6.458913e+02 
1.072407e+02 
6.866627e+02 
1.462661e+02 
1.690216e+02 
1.523181e+02 
9.323020e+02 
3.920203e+02 
1.082495e+03 
5.811569e+02 
8.700687e+02 
1.409346e+03 
5.407248e+02 
9.022792e+02 
3.227673e+02 
1.117022e+03 
4.034521e+01 
3.287137e+03 
3.810246e+03 
1.992859e+03 
