# vtk DataFile Version 2.0
fNorm
ASCII
DATASET UNSTRUCTURED_GRID

FIELD FieldData 1
TIME 1 1 double
0.08500000
POINTS 310 float
1.003816810877058e+00 2.002424531874663e+00 0.000000000000000e+00
1.021614505163977e+00 2.011504822346582e+00 0.000000000000000e+00
1.037942348705398e+00 2.023051307153688e+00 0.000000000000000e+00
1.056241228681989e+00 2.031300662209180e+00 0.000000000000000e+00
1.073652380414664e+00 2.041119727733402e+00 0.000000000000000e+00
1.091945971788012e+00 2.050262380499170e+00 0.000000000000000e+00
1.109402064358191e+00 2.058768899864462e+00 0.000000000000000e+00
1.128337044176447e+00 2.067104929537839e+00 0.000000000000000e+00
1.146148048064189e+00 2.074938601158179e+00 0.000000000000000e+00
1.164726543201849e+00 2.084064904191524e+00 0.000000000000000e+00
1.182797464552632e+00 2.091881918901497e+00 0.000000000000000e+00
1.201309731264660e+00 2.100401332511881e+00 0.000000000000000e+00
1.219503883415671e+00 2.108265873873322e+00 0.000000000000000e+00
1.237715607162723e+00 2.117110367675942e+00 0.000000000000000e+00
1.256245210263838e+00 2.124700665594540e+00 0.000000000000000e+00
1.274377944181276e+00 2.133103743773957e+00 0.000000000000000e+00
1.293127955547154e+00 2.140422857595276e+00 0.000000000000000e+00
1.311815803837785e+00 2.146953360599136e+00 0.000000000000000e+00
1.330482918463040e+00 2.154538145534783e+00 0.000000000000000e+00
1.349122498890998e+00 2.161690811316221e+00 0.000000000000000e+00
1.368143986968664e+00 2.167529059625695e+00 0.000000000000000e+00
1.387193249077662e+00 2.173182027888836e+00 0.000000000000000e+00
1.406151765559599e+00 2.180132905239851e+00 0.000000000000000e+00
1.424559714900175e+00 2.186354062370699e+00 0.000000000000000e+00
1.444209450523389e+00 2.191390112199258e+00 0.000000000000000e+00
1.462654447134954e+00 2.196518428666993e+00 0.000000000000000e+00
1.482408583003415e+00 2.202841114477902e+00 0.000000000000000e+00
1.500956824358511e+00 2.206306761802504e+00 0.000000000000000e+00
1.521038895715611e+00 2.211217930440945e+00 0.000000000000000e+00
1.538796292339700e+00 2.217321979805292e+00 0.000000000000000e+00
1.558068039621263e+00 2.223498927823600e+00 0.000000000000000e+00
1.577708699043937e+00 2.224480616551819e+00 0.000000000000000e+00
1.597075315704896e+00 2.229832667082340e+00 0.000000000000000e+00
1.615496318630575e+00 2.234641970106868e+00 0.000000000000000e+00
1.635798640809415e+00 2.237932637380057e+00 0.000000000000000e+00
1.654268183810005e+00 2.242315599672743e+00 0.000000000000000e+00
1.672649529371120e+00 2.249040177457802e+00 0.000000000000000e+00
1.692710634986452e+00 2.247280489363695e+00 0.000000000000000e+00
1.710687019420111e+00 2.255613659092929e+00 0.000000000000000e+00
1.728953645014644e+00 2.261152560892611e+00 0.000000000000000e+00
1.748904863242742e+00 2.264292508254823e+00 0.000000000000000e+00
1.766718977094968e+00 2.271515317851167e+00 0.000000000000000e+00
1.785302344853573e+00 2.279177755939364e+00 0.000000000000000e+00
1.803641352718106e+00 2.284739352236244e+00 0.000000000000000e+00
1.822807407868710e+00 2.287441486424692e+00 0.000000000000000e+00
1.842394267656625e+00 2.291455646878792e+00 0.000000000000000e+00
1.858155388344686e+00 2.302918617680495e+00 0.000000000000000e+00
1.877463064894941e+00 2.301521095923289e+00 0.000000000000000e+00
1.896786063015131e+00 2.304708656445647e+00 0.000000000000000e+00
1.915978708565960e+00 2.308114009372080e+00 0.000000000000000e+00
1.935110772901348e+00 2.312550204330436e+00 0.000000000000000e+00
1.954807850845627e+00 2.312963472180592e+00 0.000000000000000e+00
1.974287763373148e+00 2.312350717190175e+00 0.000000000000000e+00
1.993736045101712e+00 2.313903269544029e+00 0.000000000000000e+00
2.013142799333108e+00 2.316298137312262e+00 0.000000000000000e+00
2.032476887004342e+00 2.312459589290650e+00 0.000000000000000e+00
2.051899853039696e+00 2.311306316824237e+00 0.000000000000000e+00
2.071301585747808e+00 2.313835179332318e+00 0.000000000000000e+00
2.090739392853125e+00 2.311365475968017e+00 0.000000000000000e+00
2.110071874647761e+00 2.308652112178382e+00 0.000000000000000e+00
2.129861148126363e+00 2.308143238827581e+00 0.000000000000000e+00
2.148896945661821e+00 2.309172417455444e+00 0.000000000000000e+00
2.168766599073312e+00 2.308580207172213e+00 0.000000000000000e+00
2.187969302216426e+00 2.305194815003556e+00 0.000000000000000e+00
2.207386387568483e+00 2.305477839361906e+00 0.000000000000000e+00
2.226880927350104e+00 2.306429900051155e+00 0.000000000000000e+00
2.246814676447547e+00 2.303958089003187e+00 0.000000000000000e+00
2.265831734404149e+00 2.302121821461819e+00 0.000000000000000e+00
2.285395471855792e+00 2.299549155652694e+00 0.000000000000000e+00
2.304824029041784e+00 2.296655424954252e+00 0.000000000000000e+00
2.324296392883618e+00 2.292642901147891e+00 0.000000000000000e+00
2.343438901207956e+00 2.288052948383845e+00 0.000000000000000e+00
2.362507469607122e+00 2.284151229352390e+00 0.000000000000000e+00
2.381711925000505e+00 2.278912678813099e+00 0.000000000000000e+00
2.400744885756920e+00 2.272808226388282e+00 0.000000000000000e+00
2.419765229470342e+00 2.267064166221896e+00 0.000000000000000e+00
2.438352725700935e+00 2.261724581405193e+00 0.000000000000000e+00
2.456900796469855e+00 2.254434669863784e+00 0.000000000000000e+00
2.475521234821529e+00 2.247284872783996e+00 0.000000000000000e+00
2.494076086050577e+00 2.240634394143134e+00 0.000000000000000e+00
2.512710696006093e+00 2.232864205762158e+00 0.000000000000000e+00
2.530968584802665e+00 2.225832799250881e+00 0.000000000000000e+00
2.549482516048094e+00 2.217206132135488e+00 0.000000000000000e+00
2.567759308938511e+00 2.209647988560080e+00 0.000000000000000e+00
2.585840895560108e+00 2.203830254513825e+00 0.000000000000000e+00
2.605092072268136e+00 2.196467881141614e+00 0.000000000000000e+00
2.623448841926065e+00 2.189547107899391e+00 0.000000000000000e+00
2.642965264838026e+00 2.182720528117281e+00 0.000000000000000e+00
2.661736344768363e+00 2.178587521176869e+00 0.000000000000000e+00
2.682299419883335e+00 2.177109761071169e+00 0.000000000000000e+00
2.701621421984780e+00 2.180329812110897e+00 0.000000000000000e+00
2.720280024399069e+00 2.186804574968082e+00 0.000000000000000e+00
2.737647779447300e+00 2.197438931664015e+00 0.000000000000000e+00
2.752951475825716e+00 2.209460379651772e+00 0.000000000000000e+00
2.769802889088850e+00 2.220729563741966e+00 0.000000000000000e+00
2.786906933345303e+00 2.229394441095223e+00 0.000000000000000e+00
2.806529876148040e+00 2.234534632025293e+00 0.000000000000000e+00
2.826216537782883e+00 2.235872943143530e+00 0.000000000000000e+00
2.845955424874238e+00 2.234453675759226e+00 0.000000000000000e+00
2.866336666629956e+00 2.229652996513606e+00 0.000000000000000e+00
2.885221714798263e+00 2.223005338646800e+00 0.000000000000000e+00
2.903776480658556e+00 2.215133735207110e+00 0.000000000000000e+00
2.921604539396657e+00 2.204897224803573e+00 0.000000000000000e+00
2.938701408450750e+00 2.193321372911039e+00 0.000000000000000e+00
2.954895931419204e+00 2.180776747267985e+00 0.000000000000000e+00
2.970645672887612e+00 2.167825555973794e+00 0.000000000000000e+00
2.986580171226832e+00 2.152651088301668e+00 0.000000000000000e+00
3.000484685933354e+00 2.136951744598611e+00 0.000000000000000e+00
3.013180445923549e+00 2.119496822571356e+00 0.000000000000000e+00
3.024768726743295e+00 2.100745719356301e+00 0.000000000000000e+00
3.036744853768887e+00 2.081899808219819e+00 0.000000000000000e+00
3.048835132441457e+00 2.064373291908542e+00 0.000000000000000e+00
3.061964758960044e+00 2.045352388659791e+00 0.000000000000000e+00
3.075021838044643e+00 2.027787304499793e+00 0.000000000000000e+00
3.089047143033446e+00 2.010420760819651e+00 0.000000000000000e+00
3.103788497772778e+00 1.993611216088851e+00 0.000000000000000e+00
3.119491319609013e+00 1.977527732371194e+00 0.000000000000000e+00
3.136763119679427e+00 1.963338018030925e+00 0.000000000000000e+00
3.154645623712328e+00 1.951137827570056e+00 0.000000000000000e+00
3.174198236735834e+00 1.939480021206164e+00 0.000000000000000e+00
3.193665423029194e+00 1.929474944616157e+00 0.000000000000000e+00
3.214619113589955e+00 1.921510284619472e+00 0.000000000000000e+00
3.235985277843439e+00 1.915213981204442e+00 0.000000000000000e+00
3.257904716320437e+00 1.909706909310225e+00 0.000000000000000e+00
3.279463501949065e+00 1.905451171165848e+00 0.000000000000000e+00
3.301578607086660e+00 1.902995388948253e+00 0.000000000000000e+00
3.324525555946708e+00 1.902217158966068e+00 0.000000000000000e+00
3.347119481839968e+00 1.901370502286251e+00 0.000000000000000e+00
3.368990865858122e+00 1.900243682095283e+00 0.000000000000000e+00
3.392375182971424e+00 1.901717359952746e+00 0.000000000000000e+00
3.415354541589853e+00 1.904043991783886e+00 0.000000000000000e+00
3.437627508355465e+00 1.906135696174212e+00 0.000000000000000e+00
3.460056588655275e+00 1.908700680548188e+00 0.000000000000000e+00
3.483270945701204e+00 1.912337034256169e+00 0.000000000000000e+00
3.505904117165759e+00 1.916559500473030e+00 0.000000000000000e+00
3.528133100816606e+00 1.920971964261141e+00 0.000000000000000e+00
3.550845723616395e+00 1.925835661482887e+00 0.000000000000000e+00
3.573703552041350e+00 1.930952121565295e+00 0.000000000000000e+00
3.596300572654445e+00 1.936430898625854e+00 0.000000000000000e+00
3.618579785661102e+00 1.941792638185195e+00 0.000000000000000e+00
3.641284773567820e+00 1.947698170358231e+00 0.000000000000000e+00
3.663396876366363e+00 1.953769027996070e+00 0.000000000000000e+00
3.685955278338537e+00 1.960153789767061e+00 0.000000000000000e+00
3.708718373919903e+00 1.966297020995048e+00 0.000000000000000e+00
3.731277973784529e+00 1.971541507254041e+00 0.000000000000000e+00
3.753727829948990e+00 1.976339536941470e+00 0.000000000000000e+00
3.776550891569671e+00 1.981395316818142e+00 0.000000000000000e+00
3.799637140423372e+00 1.986029509797121e+00 0.000000000000000e+00
3.822962855960476e+00 1.989434991602263e+00 0.000000000000000e+00
3.845789573159180e+00 1.992382456830912e+00 0.000000000000000e+00
3.869100429909036e+00 1.995539727999267e+00 0.000000000000000e+00
3.892489400771589e+00 1.997052231909685e+00 0.000000000000000e+00
3.915544268416894e+00 1.997417587877345e+00 0.000000000000000e+00
3.939175141695607e+00 2.000990088252427e+00 0.000000000000000e+00
3.962376647166110e+00 2.000382655687971e+00 0.000000000000000e+00
1.003816810877054e+00 2.997575468125340e+00 0.000000000000000e+00
1.021614505163972e+00 2.988495177653424e+00 0.000000000000000e+00
1.037942348705392e+00 2.976948692846312e+00 0.000000000000000e+00
1.056241228681984e+00 2.968699337790826e+00 0.000000000000000e+00
1.073652380414660e+00 2.958880272266605e+00 0.000000000000000e+00
1.091945971788008e+00 2.949737619500837e+00 0.000000000000000e+00
1.109402064358187e+00 2.941231100135548e+00 0.000000000000000e+00
1.128337044176443e+00 2.932895070462174e+00 0.000000000000000e+00
1.146148048064184e+00 2.925061398841831e+00 0.000000000000000e+00
1.164726543201845e+00 2.915935095808489e+00 0.000000000000000e+00
1.182797464552630e+00 2.908118081098519e+00 0.000000000000000e+00
1.201309731264656e+00 2.899598667488134e+00 0.000000000000000e+00
1.219503883415667e+00 2.891734126126692e+00 0.000000000000000e+00
1.237715607162719e+00 2.882889632324078e+00 0.000000000000000e+00
1.256245210263835e+00 2.875299334405477e+00 0.000000000000000e+00
1.274377944181272e+00 2.866896256226063e+00 0.000000000000000e+00
1.293127955547153e+00 2.859577142404749e+00 0.000000000000000e+00
1.311815803837783e+00 2.853046639400892e+00 0.000000000000000e+00
1.330482918463040e+00 2.845461854465249e+00 0.000000000000000e+00
1.349122498890999e+00 2.838309188683815e+00 0.000000000000000e+00
1.368143986968666e+00 2.832470940374346e+00 0.000000000000000e+00
1.387193249077665e+00 2.826817972111205e+00 0.000000000000000e+00
1.406151765559603e+00 2.819867094760195e+00 0.000000000000000e+00
1.424559714900179e+00 2.813645937629347e+00 0.000000000000000e+00
1.444209450523393e+00 2.808609887800789e+00 0.000000000000000e+00
1.462654447134960e+00 2.803481571333058e+00 0.000000000000000e+00
1.482408583003421e+00 2.797158885522150e+00 0.000000000000000e+00
1.500956824358517e+00 2.793693238197544e+00 0.000000000000000e+00
1.521038895715615e+00 2.788782069559106e+00 0.000000000000000e+00
1.538796292339704e+00 2.782678020194754e+00 0.000000000000000e+00
1.558068039621266e+00 2.776501072176445e+00 0.000000000000000e+00
1.577708699043939e+00 2.775519383448226e+00 0.000000000000000e+00
1.597075315704900e+00 2.770167332917705e+00 0.000000000000000e+00
1.615496318630578e+00 2.765358029893195e+00 0.000000000000000e+00
1.635798640809424e+00 2.762067362620006e+00 0.000000000000000e+00
1.654268183810009e+00 2.757684400327320e+00 0.000000000000000e+00
1.672649529371123e+00 2.750959822542257e+00 0.000000000000000e+00
1.692710634986456e+00 2.752719510636373e+00 0.000000000000000e+00
1.710687019420108e+00 2.744386340907126e+00 0.000000000000000e+00
1.728953645014642e+00 2.738847439107435e+00 0.000000000000000e+00
1.748904863242738e+00 2.735707491745230e+00 0.000000000000000e+00
1.766718977094966e+00 2.728484682148892e+00 0.000000000000000e+00
1.785302344853572e+00 2.720822244060696e+00 0.000000000000000e+00
1.803641352718104e+00 2.715260647763818e+00 0.000000000000000e+00
1.822807407868711e+00 2.712558513575368e+00 0.000000000000000e+00
1.842394267656624e+00 2.708544353121268e+00 0.000000000000000e+00
1.858155388344686e+00 2.697081382319565e+00 0.000000000000000e+00
1.877463064894943e+00 2.698478904076754e+00 0.000000000000000e+00
1.896786063015129e+00 2.695291343554395e+00 0.000000000000000e+00
1.915978708565960e+00 2.691885990627962e+00 0.000000000000000e+00
1.935110772901345e+00 2.687449795669602e+00 0.000000000000000e+00
1.954807850845624e+00 2.687036527819444e+00 0.000000000000000e+00
1.974287763373147e+00 2.687649282809862e+00 0.000000000000000e+00
1.993736045101709e+00 2.686096730455996e+00 0.000000000000000e+00
2.013142799333107e+00 2.683701862687763e+00 0.000000000000000e+00
2.032476887004339e+00 2.687540410709373e+00 0.000000000000000e+00
2.051899853039693e+00 2.688693683175794e+00 0.000000000000000e+00
2.071301585747807e+00 2.686164820667711e+00 0.000000000000000e+00
2.090739392853123e+00 2.688634524032015e+00 0.000000000000000e+00
2.110071874647759e+00 2.691347887821660e+00 0.000000000000000e+00
2.129861148126361e+00 2.691856761172461e+00 0.000000000000000e+00
2.148896945661821e+00 2.690827582544609e+00 0.000000000000000e+00
2.168766599073310e+00 2.691419792827842e+00 0.000000000000000e+00
2.187969302216426e+00 2.694805184996506e+00 0.000000000000000e+00
2.207386387568480e+00 2.694522160638150e+00 0.000000000000000e+00
2.226880927350102e+00 2.693570099948890e+00 0.000000000000000e+00
2.246814676447545e+00 2.696041910996859e+00 0.000000000000000e+00
2.265831734404146e+00 2.697878178538223e+00 0.000000000000000e+00
2.285395471855790e+00 2.700450844347342e+00 0.000000000000000e+00
2.304824029041781e+00 2.703344575045784e+00 0.000000000000000e+00
2.324296392883618e+00 2.707357098852144e+00 0.000000000000000e+00
2.343438901207951e+00 2.711947051616190e+00 0.000000000000000e+00
2.362507469607122e+00 2.715848770647648e+00 0.000000000000000e+00
2.381711925000502e+00 2.721087321186938e+00 0.000000000000000e+00
2.400744885756922e+00 2.727191773611757e+00 0.000000000000000e+00
2.419765229470340e+00 2.732935833778140e+00 0.000000000000000e+00
2.438352725700934e+00 2.738275418594844e+00 0.000000000000000e+00
2.456900796469854e+00 2.745565330136255e+00 0.000000000000000e+00
2.475521234821530e+00 2.752715127216043e+00 0.000000000000000e+00
2.494076086050576e+00 2.759365605856907e+00 0.000000000000000e+00
2.512710696006092e+00 2.767135794237881e+00 0.000000000000000e+00
2.530968584802666e+00 2.774167200749156e+00 0.000000000000000e+00
2.549482516048096e+00 2.782793867864553e+00 0.000000000000000e+00
2.567759308938511e+00 2.790352011439956e+00 0.000000000000000e+00
2.585840895560110e+00 2.796169745486207e+00 0.000000000000000e+00
2.605092072268142e+00 2.803532118858414e+00 0.000000000000000e+00
2.623448841926072e+00 2.810452892100628e+00 0.000000000000000e+00
2.642965264838034e+00 2.817279471882736e+00 0.000000000000000e+00
2.661736344768372e+00 2.821412478823148e+00 0.000000000000000e+00
2.682299419883344e+00 2.822890238928847e+00 0.000000000000000e+00
2.701621421984786e+00 2.819670187889119e+00 0.000000000000000e+00
2.720280024399078e+00 2.813195425031935e+00 0.000000000000000e+00
2.737647779447309e+00 2.802561068336003e+00 0.000000000000000e+00
2.752951475825726e+00 2.790539620348243e+00 0.000000000000000e+00
2.769802889088859e+00 2.779270436258050e+00 0.000000000000000e+00
2.786906933345306e+00 2.770605558904786e+00 0.000000000000000e+00
2.806529876148043e+00 2.765465367974701e+00 0.000000000000000e+00
2.826216537782881e+00 2.764127056856458e+00 0.000000000000000e+00
2.845955424874237e+00 2.765546324240757e+00 0.000000000000000e+00
2.866336666629958e+00 2.770347003486374e+00 0.000000000000000e+00
2.885221714798266e+00 2.776994661353185e+00 0.000000000000000e+00
2.903776480658560e+00 2.784866264792875e+00 0.000000000000000e+00
2.921604539396655e+00 2.795102775196412e+00 0.000000000000000e+00
2.938701408450751e+00 2.806678627088951e+00 0.000000000000000e+00
2.954895931419200e+00 2.819223252732001e+00 0.000000000000000e+00
2.970645672887610e+00 2.832174444026197e+00 0.000000000000000e+00
2.986580171226827e+00 2.847348911698320e+00 0.000000000000000e+00
3.000484685933351e+00 2.863048255401384e+00 0.000000000000000e+00
3.013180445923544e+00 2.880503177428634e+00 0.000000000000000e+00
3.024768726743289e+00 2.899254280643695e+00 0.000000000000000e+00
3.036744853768884e+00 2.918100191780177e+00 0.000000000000000e+00
3.048835132441452e+00 2.935626708091451e+00 0.000000000000000e+00
3.061964758960039e+00 2.954647611340202e+00 0.000000000000000e+00
3.075021838044633e+00 2.972212695500208e+00 0.000000000000000e+00
3.089047143033436e+00 2.989579239180352e+00 0.000000000000000e+00
3.103788497772763e+00 3.006388783911147e+00 0.000000000000000e+00
3.119491319609002e+00 3.022472267628811e+00 0.000000000000000e+00
3.136763119679406e+00 3.036661981969083e+00 0.000000000000000e+00
3.154645623712313e+00 3.048862172429952e+00 0.000000000000000e+00
3.174198236735814e+00 3.060519978793845e+00 0.000000000000000e+00
3.193665423029181e+00 3.070525055383857e+00 0.000000000000000e+00
3.214619113589932e+00 3.078489715380547e+00 0.000000000000000e+00
3.235985277843420e+00 3.084786018795577e+00 0.000000000000000e+00
3.257904716320420e+00 3.090293090689791e+00 0.000000000000000e+00
3.279463501949041e+00 3.094548828834174e+00 0.000000000000000e+00
3.301578607086642e+00 3.097004611051772e+00 0.000000000000000e+00
3.324525555946684e+00 3.097782841033955e+00 0.000000000000000e+00
3.347119481839950e+00 3.098629497713769e+00 0.000000000000000e+00
3.368990865858098e+00 3.099756317904740e+00 0.000000000000000e+00
3.392375182971405e+00 3.098282640047279e+00 0.000000000000000e+00
3.415354541589832e+00 3.095956008216138e+00 0.000000000000000e+00
3.437627508355449e+00 3.093864303825805e+00 0.000000000000000e+00
3.460056588655253e+00 3.091299319451831e+00 0.000000000000000e+00
3.483270945701183e+00 3.087662965743851e+00 0.000000000000000e+00
3.505904117165741e+00 3.083440499526990e+00 0.000000000000000e+00
3.528133100816588e+00 3.079028035738874e+00 0.000000000000000e+00
3.550845723616379e+00 3.074164338517127e+00 0.000000000000000e+00
3.573703552041331e+00 3.069047878434723e+00 0.000000000000000e+00
3.596300572654431e+00 3.063569101374163e+00 0.000000000000000e+00
3.618579785661085e+00 3.058207361814823e+00 0.000000000000000e+00
3.641284773567805e+00 3.052301829641784e+00 0.000000000000000e+00
3.663396876366349e+00 3.046230972003943e+00 0.000000000000000e+00
3.685955278338522e+00 3.039846210232955e+00 0.000000000000000e+00
3.708718373919892e+00 3.033702979004962e+00 0.000000000000000e+00
3.731277973784517e+00 3.028458492745969e+00 0.000000000000000e+00
3.753727829948978e+00 3.023660463058535e+00 0.000000000000000e+00
3.776550891569657e+00 3.018604683181865e+00 0.000000000000000e+00
3.799637140423362e+00 3.013970490202879e+00 0.000000000000000e+00
3.822962855960464e+00 3.010565008397737e+00 0.000000000000000e+00
3.845789573159170e+00 3.007617543169085e+00 0.000000000000000e+00
3.869100429909026e+00 3.004460272000731e+00 0.000000000000000e+00
3.892489400771579e+00 3.002947768090312e+00 0.000000000000000e+00
3.915544268416883e+00 3.002582412122651e+00 0.000000000000000e+00
3.939175141695599e+00 2.999009911747572e+00 0.000000000000000e+00
3.962376647166102e+00 2.999617344312027e+00 0.000000000000000e+00

POINT_DATA   310
SCALARS fNorm double
LOOKUP_TABLE default

3.804850e+02 
7.986546e+02 
1.181887e+03 
4.755573e+02 
4.138460e+02 
8.894793e+01 
3.195338e+02 
4.509980e+01 
2.676731e+02 
3.533245e+02 
1.231682e+02 
1.573461e+02 
2.341549e+02 
4.543912e+02 
2.259323e+02 
4.303081e+02 
2.275588e+02 
2.776573e+02 
1.372321e+02 
4.059037e+02 
5.316602e+01 
3.990049e+02 
1.259639e+02 
4.072041e+02 
6.603178e+01 
1.691070e+02 
4.599452e+02 
1.753943e+02 
3.376781e+02 
1.526086e+02 
1.440564e+03 
1.019713e+03 
9.214701e+00 
1.893458e+02 
1.327518e+02 
2.486768e+02 
1.884650e+03 
3.007057e+03 
2.526287e+01 
1.662526e+02 
4.937425e+02 
1.197646e+02 
3.129985e+02 
1.751329e+02 
2.648894e+02 
1.267943e+03 
4.329148e+02 
2.848368e+02 
1.687972e+02 
5.478150e+01 
5.561744e+02 
1.227148e+02 
5.010527e+01 
8.881179e+01 
5.087188e+02 
1.951496e+02 
1.187884e+02 
3.037455e+02 
8.896200e+01 
2.828342e+02 
1.371549e+01 
1.008928e+02 
3.811908e+02 
1.054073e+02 
2.243014e+01 
6.795648e+02 
1.393876e+01 
3.196675e+01 
8.981149e+01 
2.399923e+02 
1.225930e+02 
2.095250e+01 
1.930631e+02 
2.574663e+02 
7.217078e+01 
3.308068e+01 
1.185678e+02 
2.060868e+01 
4.512504e+01 
2.131894e+02 
1.911607e+00 
2.216805e+02 
2.214284e+02 
1.042129e+02 
3.143619e+01 
8.367583e+01 
4.026628e+02 
4.633763e+02 
1.292963e+03 
1.595201e+03 
6.804152e+02 
1.476842e+03 
1.951138e+02 
3.140231e+02 
2.266820e+02 
1.115160e+03 
1.087609e+03 
7.863957e+02 
2.571965e+03 
6.147199e+02 
9.304419e+02 
1.181752e+02 
5.783368e+02 
9.793558e+02 
1.461363e+03 
4.935151e+02 
3.960845e+02 
1.955953e+02 
3.564735e+02 
2.883381e+02 
1.120166e+03 
1.372525e+02 
1.349499e+03 
1.413783e+03 
1.622662e+03 
2.117412e+03 
3.676329e+03 
2.428810e+03 
2.177625e+03 
1.679943e+03 
3.345596e+03 
2.253064e+03 
1.184954e+03 
1.338240e+03 
2.376103e+03 
2.657744e+03 
2.355100e+02 
4.544786e+02 
3.769987e+03 
1.575202e+03 
2.002578e+02 
6.334031e+02 
1.498228e+03 
1.271188e+03 
5.216273e+02 
4.699581e+02 
2.990641e+02 
7.730953e+02 
2.692396e+02 
1.019099e+03 
3.479173e+02 
9.866332e+01 
4.717443e+02 
1.241810e+03 
5.278573e+02 
2.566519e+02 
9.705476e+02 
2.271159e+03 
7.373370e+02 
2.372136e+02 
2.960167e+03 
1.942981e+03 
5.172774e+03 
7.321138e+03 
4.552027e+02 
3.804850e+02 
7.986546e+02 
1.181887e+03 
4.755573e+02 
4.138460e+02 
8.894793e+01 
3.195338e+02 
4.509980e+01 
2.676731e+02 
3.533245e+02 
1.231682e+02 
1.573461e+02 
2.341549e+02 
4.543912e+02 
2.259323e+02 
4.303081e+02 
2.275588e+02 
2.776573e+02 
1.372321e+02 
4.059037e+02 
5.316602e+01 
3.990049e+02 
1.259639e+02 
4.072041e+02 
6.603178e+01 
1.691070e+02 
4.599452e+02 
1.753943e+02 
3.376781e+02 
1.526086e+02 
1.440564e+03 
1.019713e+03 
9.214701e+00 
1.893458e+02 
1.327518e+02 
2.486768e+02 
1.884650e+03 
3.007057e+03 
2.526287e+01 
1.662526e+02 
4.937425e+02 
1.197646e+02 
3.129985e+02 
1.751329e+02 
2.648894e+02 
1.267943e+03 
4.329148e+02 
2.848368e+02 
1.687972e+02 
5.478150e+01 
5.561744e+02 
1.227148e+02 
5.010527e+01 
8.881179e+01 
5.087188e+02 
1.951496e+02 
1.187884e+02 
3.037455e+02 
8.896200e+01 
2.828342e+02 
1.371549e+01 
1.008928e+02 
3.811908e+02 
1.054073e+02 
2.243014e+01 
6.795648e+02 
1.393876e+01 
3.196675e+01 
8.981149e+01 
2.399923e+02 
1.225930e+02 
2.095250e+01 
1.930631e+02 
2.574663e+02 
7.217078e+01 
3.308068e+01 
1.185678e+02 
2.060868e+01 
4.512504e+01 
2.131894e+02 
1.911607e+00 
2.216805e+02 
2.214284e+02 
1.042129e+02 
3.143619e+01 
8.367583e+01 
4.026628e+02 
4.633763e+02 
1.292963e+03 
1.595201e+03 
6.804152e+02 
1.476842e+03 
1.951138e+02 
3.140231e+02 
2.266820e+02 
1.115160e+03 
1.087609e+03 
7.863957e+02 
2.571965e+03 
6.147199e+02 
9.304419e+02 
1.181752e+02 
5.783368e+02 
9.793558e+02 
1.461363e+03 
4.935151e+02 
3.960845e+02 
1.955953e+02 
3.564735e+02 
2.883381e+02 
1.120166e+03 
1.372525e+02 
1.349499e+03 
1.413783e+03 
1.622662e+03 
2.117412e+03 
3.676329e+03 
2.428810e+03 
2.177625e+03 
1.679943e+03 
3.345596e+03 
2.253064e+03 
1.184954e+03 
1.338240e+03 
2.376103e+03 
2.657744e+03 
2.355100e+02 
4.544786e+02 
3.769987e+03 
1.575202e+03 
2.002578e+02 
6.334031e+02 
1.498228e+03 
1.271188e+03 
5.216273e+02 
4.699581e+02 
2.990641e+02 
7.730953e+02 
2.692396e+02 
1.019099e+03 
3.479173e+02 
9.866332e+01 
4.717443e+02 
1.241810e+03 
5.278573e+02 
2.566519e+02 
9.705476e+02 
2.271159e+03 
7.373370e+02 
2.372136e+02 
2.960167e+03 
1.942981e+03 
5.172774e+03 
7.321138e+03 
4.552027e+02 
