# vtk DataFile Version 2.0
fNorm
ASCII
DATASET UNSTRUCTURED_GRID

FIELD FieldData 1
TIME 1 1 double
0.16500000
POINTS 310 float
1.000844759597445e+00 2.000344278509896e+00 0.000000000000000e+00
1.019410311797242e+00 2.006379291332165e+00 0.000000000000000e+00
1.038483154516393e+00 2.010743436663053e+00 0.000000000000000e+00
1.057755185675317e+00 2.015501891589060e+00 0.000000000000000e+00
1.075970785584995e+00 2.021237446654239e+00 0.000000000000000e+00
1.095364860427561e+00 2.025452310783865e+00 0.000000000000000e+00
1.114724993032027e+00 2.028409123634876e+00 0.000000000000000e+00
1.133791781712588e+00 2.032189579476166e+00 0.000000000000000e+00
1.153276752437330e+00 2.035324649794309e+00 0.000000000000000e+00
1.172043224494570e+00 2.040352479522243e+00 0.000000000000000e+00
1.191555209170065e+00 2.042954538532533e+00 0.000000000000000e+00
1.210532305418285e+00 2.047313214880772e+00 0.000000000000000e+00
1.229910280086707e+00 2.050126660026684e+00 0.000000000000000e+00
1.248951193518986e+00 2.054734848089139e+00 0.000000000000000e+00
1.268441240963988e+00 2.057638656825008e+00 0.000000000000000e+00
1.287271876991997e+00 2.061735182414028e+00 0.000000000000000e+00
1.306850658897902e+00 2.065691259563175e+00 0.000000000000000e+00
1.325656066632120e+00 2.069643216405775e+00 0.000000000000000e+00
1.344877656495751e+00 2.074681286558743e+00 0.000000000000000e+00
1.363899177702630e+00 2.078820659046382e+00 0.000000000000000e+00
1.382922898465397e+00 2.083851459723039e+00 0.000000000000000e+00
1.401863046454293e+00 2.088834094647684e+00 0.000000000000000e+00
1.420779746659106e+00 2.094703562319164e+00 0.000000000000000e+00
1.439360043449017e+00 2.100042054085275e+00 0.000000000000000e+00
1.458605659834794e+00 2.105541207216278e+00 0.000000000000000e+00
1.476961005915633e+00 2.111354986975342e+00 0.000000000000000e+00
1.496065225713033e+00 2.117456899091160e+00 0.000000000000000e+00
1.514363490911774e+00 2.123005184192713e+00 0.000000000000000e+00
1.533731890589894e+00 2.128573486553419e+00 0.000000000000000e+00
1.552450299916108e+00 2.133018089601903e+00 0.000000000000000e+00
1.571543868548808e+00 2.139135397423286e+00 0.000000000000000e+00
1.590676448592325e+00 2.142588757843063e+00 0.000000000000000e+00
1.609627454137892e+00 2.148670103888491e+00 0.000000000000000e+00
1.627954691362657e+00 2.155424103409237e+00 0.000000000000000e+00
1.647288435206789e+00 2.160307533200613e+00 0.000000000000000e+00
1.666313753734485e+00 2.164926718114728e+00 0.000000000000000e+00
1.684910126298170e+00 2.172023697910368e+00 0.000000000000000e+00
1.704822085555569e+00 2.171839903339016e+00 0.000000000000000e+00
1.723239120545056e+00 2.179247975754256e+00 0.000000000000000e+00
1.741892189119476e+00 2.185565233239792e+00 0.000000000000000e+00
1.761574546008974e+00 2.189284265062474e+00 0.000000000000000e+00
1.780357806038436e+00 2.194978550372579e+00 0.000000000000000e+00
1.799825731425637e+00 2.200923780783597e+00 0.000000000000000e+00
1.818709833493217e+00 2.206301680422870e+00 0.000000000000000e+00
1.837814288934367e+00 2.212071248591091e+00 0.000000000000000e+00
1.857383351760596e+00 2.216292358584679e+00 0.000000000000000e+00
1.874986479309530e+00 2.226004110147937e+00 0.000000000000000e+00
1.894878919804464e+00 2.229006455218074e+00 0.000000000000000e+00
1.913690341290810e+00 2.235123903756261e+00 0.000000000000000e+00
1.932817099977307e+00 2.241945571634980e+00 0.000000000000000e+00
1.951103279485852e+00 2.249874420326757e+00 0.000000000000000e+00
1.970618868166768e+00 2.254493892578161e+00 0.000000000000000e+00
1.989840231051013e+00 2.260337113687738e+00 0.000000000000000e+00
2.008783722138383e+00 2.267020041316059e+00 0.000000000000000e+00
2.027211121559852e+00 2.275297913154771e+00 0.000000000000000e+00
2.046784172082466e+00 2.279077153704143e+00 0.000000000000000e+00
2.066185009179994e+00 2.284712469366614e+00 0.000000000000000e+00
2.084346395714858e+00 2.293701354393481e+00 0.000000000000000e+00
2.103721248114400e+00 2.298534945898155e+00 0.000000000000000e+00
2.122933085749959e+00 2.303607055593908e+00 0.000000000000000e+00
2.142182405518009e+00 2.310877485822826e+00 0.000000000000000e+00
2.160515430173527e+00 2.318538507872723e+00 0.000000000000000e+00
2.179986592628369e+00 2.324456967118724e+00 0.000000000000000e+00
2.199400879132145e+00 2.328024879965955e+00 0.000000000000000e+00
2.218670922280161e+00 2.334787316597827e+00 0.000000000000000e+00
2.237507108200862e+00 2.341451115695388e+00 0.000000000000000e+00
2.257459529617753e+00 2.345051212849586e+00 0.000000000000000e+00
2.277083269341922e+00 2.349697298733306e+00 0.000000000000000e+00
2.296692598171578e+00 2.355060361554169e+00 0.000000000000000e+00
2.315650403914780e+00 2.360086454094224e+00 0.000000000000000e+00
2.336310810595844e+00 2.362630760925291e+00 0.000000000000000e+00
2.356415414363706e+00 2.364714763962235e+00 0.000000000000000e+00
2.375831817741680e+00 2.367904425817433e+00 0.000000000000000e+00
2.396129724989581e+00 2.369629637184162e+00 0.000000000000000e+00
2.416826816696598e+00 2.369991852680198e+00 0.000000000000000e+00
2.437173301390506e+00 2.370716772540974e+00 0.000000000000000e+00
2.456754721385810e+00 2.372711611665759e+00 0.000000000000000e+00
2.477246598154918e+00 2.373751614101193e+00 0.000000000000000e+00
2.498032298489577e+00 2.373695973528740e+00 0.000000000000000e+00
2.517828149693782e+00 2.374374371641235e+00 0.000000000000000e+00
2.538458575713376e+00 2.375514850526941e+00 0.000000000000000e+00
2.558756773029436e+00 2.377808125090257e+00 0.000000000000000e+00
2.579539277168276e+00 2.377940978415457e+00 0.000000000000000e+00
2.600084570130325e+00 2.379150693539744e+00 0.000000000000000e+00
2.619192257383818e+00 2.382888397340412e+00 0.000000000000000e+00
2.640551577975812e+00 2.385045849706625e+00 0.000000000000000e+00
2.661107939784702e+00 2.386070872128825e+00 0.000000000000000e+00
2.681640673384165e+00 2.387822356912987e+00 0.000000000000000e+00
2.701585667161241e+00 2.390682234121584e+00 0.000000000000000e+00
2.722890666934078e+00 2.390942862415590e+00 0.000000000000000e+00
2.743594469141475e+00 2.391728444770306e+00 0.000000000000000e+00
2.764044047198431e+00 2.391807728251957e+00 0.000000000000000e+00
2.784498158468122e+00 2.392012038504995e+00 0.000000000000000e+00
2.805376951111992e+00 2.392102345159286e+00 0.000000000000000e+00
2.826563195972279e+00 2.390997581204894e+00 0.000000000000000e+00
2.846923991812936e+00 2.391316354378269e+00 0.000000000000000e+00
2.868166485171987e+00 2.391824018735489e+00 0.000000000000000e+00
2.888582953429665e+00 2.391056980505458e+00 0.000000000000000e+00
2.910119052134293e+00 2.391191358524877e+00 0.000000000000000e+00
2.930302153674182e+00 2.390903006786810e+00 0.000000000000000e+00
2.950951515662463e+00 2.390931455652656e+00 0.000000000000000e+00
2.972741959450980e+00 2.390948316451444e+00 0.000000000000000e+00
2.992340811331541e+00 2.389297052035583e+00 0.000000000000000e+00
3.013490127082340e+00 2.388622953063860e+00 0.000000000000000e+00
3.034429148947523e+00 2.387745616316560e+00 0.000000000000000e+00
3.054707442118478e+00 2.386232040695826e+00 0.000000000000000e+00
3.076024044097609e+00 2.383431503421922e+00 0.000000000000000e+00
3.094593460542033e+00 2.379335661448184e+00 0.000000000000000e+00
3.116626508570224e+00 2.376360424519115e+00 0.000000000000000e+00
3.136814458809201e+00 2.372799556094575e+00 0.000000000000000e+00
3.156083302455469e+00 2.368859394080065e+00 0.000000000000000e+00
3.177593586951183e+00 2.365158462491076e+00 0.000000000000000e+00
3.197212838115611e+00 2.360726172722399e+00 0.000000000000000e+00
3.217681580343943e+00 2.356237445213094e+00 0.000000000000000e+00
3.237531689807051e+00 2.350575004635148e+00 0.000000000000000e+00
3.257078315847131e+00 2.344308617523284e+00 0.000000000000000e+00
3.277764425395235e+00 2.338314950606572e+00 0.000000000000000e+00
3.297016410346055e+00 2.332166948842245e+00 0.000000000000000e+00
3.316333934737053e+00 2.325837431634841e+00 0.000000000000000e+00
3.336602564895354e+00 2.318399742814050e+00 0.000000000000000e+00
3.355401641839300e+00 2.311084345701233e+00 0.000000000000000e+00
3.374942067028224e+00 2.304036738799049e+00 0.000000000000000e+00
3.394389777990571e+00 2.296981553542779e+00 0.000000000000000e+00
3.414450797584283e+00 2.289551663522698e+00 0.000000000000000e+00
3.433865963810431e+00 2.281371043581709e+00 0.000000000000000e+00
3.452282631946368e+00 2.273658690479806e+00 0.000000000000000e+00
3.472047084487943e+00 2.266622652840010e+00 0.000000000000000e+00
3.491886516745021e+00 2.258357704973352e+00 0.000000000000000e+00
3.510376364691616e+00 2.249004596903303e+00 0.000000000000000e+00
3.530141114428910e+00 2.242418858756497e+00 0.000000000000000e+00
3.548461842490418e+00 2.234186195044090e+00 0.000000000000000e+00
3.568850885645979e+00 2.225532396658237e+00 0.000000000000000e+00
3.586624533402023e+00 2.217705865109823e+00 0.000000000000000e+00
3.606660306727591e+00 2.209690521833015e+00 0.000000000000000e+00
3.626714756199880e+00 2.203882642554633e+00 0.000000000000000e+00
3.645240514105807e+00 2.194413371107377e+00 0.000000000000000e+00
3.664516697574370e+00 2.186588399983552e+00 0.000000000000000e+00
3.684353226327695e+00 2.179732815046795e+00 0.000000000000000e+00
3.703837800574601e+00 2.171434745379917e+00 0.000000000000000e+00
3.722601133980594e+00 2.162333735940462e+00 0.000000000000000e+00
3.741643807115411e+00 2.154064077003265e+00 0.000000000000000e+00
3.761367043718172e+00 2.146568189476593e+00 0.000000000000000e+00
3.779649641443316e+00 2.137254807736892e+00 0.000000000000000e+00
3.797366313467713e+00 2.126717027369560e+00 0.000000000000000e+00
3.816485749980726e+00 2.117294464512436e+00 0.000000000000000e+00
3.834608612653253e+00 2.106970025552963e+00 0.000000000000000e+00
3.851841152391934e+00 2.094595000424532e+00 0.000000000000000e+00
3.869881248286991e+00 2.085081573667112e+00 0.000000000000000e+00
3.887862630129737e+00 2.073668337913342e+00 0.000000000000000e+00
3.903922945842102e+00 2.060237388258623e+00 0.000000000000000e+00
3.921027092865473e+00 2.048314253966046e+00 0.000000000000000e+00
3.939800692427765e+00 2.038955052580969e+00 0.000000000000000e+00
3.956443197463114e+00 2.027996239789074e+00 0.000000000000000e+00
3.971896676191252e+00 2.013048541370255e+00 0.000000000000000e+00
3.991790392590126e+00 2.005092689203630e+00 0.000000000000000e+00
1.000844759597445e+00 2.999655721490104e+00 0.000000000000000e+00
1.019410311797242e+00 2.993620708667839e+00 0.000000000000000e+00
1.038483154516395e+00 2.989256563336956e+00 0.000000000000000e+00
1.057755185675320e+00 2.984498108410947e+00 0.000000000000000e+00
1.075970785584996e+00 2.978762553345771e+00 0.000000000000000e+00
1.095364860427567e+00 2.974547689216150e+00 0.000000000000000e+00
1.114724993032028e+00 2.971590876365140e+00 0.000000000000000e+00
1.133791781712594e+00 2.967810420523855e+00 0.000000000000000e+00
1.153276752437336e+00 2.964675350205719e+00 0.000000000000000e+00
1.172043224494578e+00 2.959647520477787e+00 0.000000000000000e+00
1.191555209170074e+00 2.957045461467497e+00 0.000000000000000e+00
1.210532305418294e+00 2.952686785119259e+00 0.000000000000000e+00
1.229910280086718e+00 2.949873339973347e+00 0.000000000000000e+00
1.248951193518993e+00 2.945265151910893e+00 0.000000000000000e+00
1.268441240963998e+00 2.942361343175013e+00 0.000000000000000e+00
1.287271876992006e+00 2.938264817585998e+00 0.000000000000000e+00
1.306850658897911e+00 2.934308740436850e+00 0.000000000000000e+00
1.325656066632129e+00 2.930356783594253e+00 0.000000000000000e+00
1.344877656495760e+00 2.925318713441284e+00 0.000000000000000e+00
1.363899177702640e+00 2.921179340953652e+00 0.000000000000000e+00
1.382922898465412e+00 2.916148540277003e+00 0.000000000000000e+00
1.401863046454301e+00 2.911165905352350e+00 0.000000000000000e+00
1.420779746659119e+00 2.905296437680878e+00 0.000000000000000e+00
1.439360043449025e+00 2.899957945914758e+00 0.000000000000000e+00
1.458605659834801e+00 2.894458792783751e+00 0.000000000000000e+00
1.476961005915643e+00 2.888645013024690e+00 0.000000000000000e+00
1.496065225713041e+00 2.882543100908868e+00 0.000000000000000e+00
1.514363490911782e+00 2.876994815807313e+00 0.000000000000000e+00
1.533731890589899e+00 2.871426513446599e+00 0.000000000000000e+00
1.552450299916111e+00 2.866981910398106e+00 0.000000000000000e+00
1.571543868548812e+00 2.860864602576721e+00 0.000000000000000e+00
1.590676448592327e+00 2.857411242156941e+00 0.000000000000000e+00
1.609627454137896e+00 2.851329896111514e+00 0.000000000000000e+00
1.627954691362660e+00 2.844575896590768e+00 0.000000000000000e+00
1.647288435206792e+00 2.839692466799388e+00 0.000000000000000e+00
1.666313753734487e+00 2.835073281885280e+00 0.000000000000000e+00
1.684910126298174e+00 2.827976302089640e+00 0.000000000000000e+00
1.704822085555573e+00 2.828160096660998e+00 0.000000000000000e+00
1.723239120545056e+00 2.820752024245751e+00 0.000000000000000e+00
1.741892189119476e+00 2.814434766760210e+00 0.000000000000000e+00
1.761574546008974e+00 2.810715734937533e+00 0.000000000000000e+00
1.780357806038434e+00 2.805021449627426e+00 0.000000000000000e+00
1.799825731425639e+00 2.799076219216415e+00 0.000000000000000e+00
1.818709833493218e+00 2.793698319577144e+00 0.000000000000000e+00
1.837814288934371e+00 2.787928751408930e+00 0.000000000000000e+00
1.857383351760600e+00 2.783707641415349e+00 0.000000000000000e+00
1.874986479309534e+00 2.773995889852091e+00 0.000000000000000e+00
1.894878919804468e+00 2.770993544781953e+00 0.000000000000000e+00
1.913690341290818e+00 2.764876096243782e+00 0.000000000000000e+00
1.932817099977320e+00 2.758054428365071e+00 0.000000000000000e+00
1.951103279485861e+00 2.750125579673288e+00 0.000000000000000e+00
1.970618868166778e+00 2.745506107421885e+00 0.000000000000000e+00
1.989840231051026e+00 2.739662886312318e+00 0.000000000000000e+00
2.008783722138396e+00 2.732979958683997e+00 0.000000000000000e+00
2.027211121559867e+00 2.724702086845292e+00 0.000000000000000e+00
2.046784172082480e+00 2.720922846295911e+00 0.000000000000000e+00
2.066185009180008e+00 2.715287530633438e+00 0.000000000000000e+00
2.084346395714874e+00 2.706298645606575e+00 0.000000000000000e+00
2.103721248114412e+00 2.701465054101900e+00 0.000000000000000e+00
2.122933085749975e+00 2.696392944406156e+00 0.000000000000000e+00
2.142182405518018e+00 2.689122514177225e+00 0.000000000000000e+00
2.160515430173537e+00 2.681461492127330e+00 0.000000000000000e+00
2.179986592628380e+00 2.675543032881334e+00 0.000000000000000e+00
2.199400879132156e+00 2.671975120034095e+00 0.000000000000000e+00
2.218670922280168e+00 2.665212683402216e+00 0.000000000000000e+00
2.237507108200869e+00 2.658548884304655e+00 0.000000000000000e+00
2.257459529617761e+00 2.654948787150463e+00 0.000000000000000e+00
2.277083269341929e+00 2.650302701266738e+00 0.000000000000000e+00
2.296692598171584e+00 2.644939638445869e+00 0.000000000000000e+00
2.315650403914783e+00 2.639913545905817e+00 0.000000000000000e+00
2.336310810595851e+00 2.637369239074752e+00 0.000000000000000e+00
2.356415414363707e+00 2.635285236037801e+00 0.000000000000000e+00
2.375831817741685e+00 2.632095574182598e+00 0.000000000000000e+00
2.396129724989581e+00 2.630370362815877e+00 0.000000000000000e+00
2.416826816696604e+00 2.630008147319838e+00 0.000000000000000e+00
2.437173301390505e+00 2.629283227459060e+00 0.000000000000000e+00
2.456754721385818e+00 2.627288388334281e+00 0.000000000000000e+00
2.477246598154921e+00 2.626248385898852e+00 0.000000000000000e+00
2.498032298489582e+00 2.626304026471305e+00 0.000000000000000e+00
2.517828149693788e+00 2.625625628358814e+00 0.000000000000000e+00
2.538458575713382e+00 2.624485149473105e+00 0.000000000000000e+00
2.558756773029443e+00 2.622191874909794e+00 0.000000000000000e+00
2.579539277168284e+00 2.622059021584600e+00 0.000000000000000e+00
2.600084570130333e+00 2.620849306460310e+00 0.000000000000000e+00
2.619192257383826e+00 2.617111602659639e+00 0.000000000000000e+00
2.640551577975820e+00 2.614954150293428e+00 0.000000000000000e+00
2.661107939784712e+00 2.613929127871232e+00 0.000000000000000e+00
2.681640673384174e+00 2.612177643087069e+00 0.000000000000000e+00
2.701585667161251e+00 2.609317765878471e+00 0.000000000000000e+00
2.722890666934087e+00 2.609057137584463e+00 0.000000000000000e+00
2.743594469141486e+00 2.608271555229756e+00 0.000000000000000e+00
2.764044047198441e+00 2.608192271748099e+00 0.000000000000000e+00
2.784498158468130e+00 2.607987961495053e+00 0.000000000000000e+00
2.805376951111999e+00 2.607897654840765e+00 0.000000000000000e+00
2.826563195972291e+00 2.609002418795158e+00 0.000000000000000e+00
2.846923991812940e+00 2.608683645621776e+00 0.000000000000000e+00
2.868166485171994e+00 2.608175981264550e+00 0.000000000000000e+00
2.888582953429666e+00 2.608943019494585e+00 0.000000000000000e+00
2.910119052134298e+00 2.608808641475171e+00 0.000000000000000e+00
2.930302153674181e+00 2.609096993213238e+00 0.000000000000000e+00
2.950951515662466e+00 2.609068544347387e+00 0.000000000000000e+00
2.972741959450979e+00 2.609051683548601e+00 0.000000000000000e+00
2.992340811331544e+00 2.610702947964464e+00 0.000000000000000e+00
3.013490127082344e+00 2.611377046936187e+00 0.000000000000000e+00
3.034429148947521e+00 2.612254383683486e+00 0.000000000000000e+00
3.054707442118488e+00 2.613767959304217e+00 0.000000000000000e+00
3.076024044097610e+00 2.616568496578121e+00 0.000000000000000e+00
3.094593460542042e+00 2.620664338551863e+00 0.000000000000000e+00
3.116626508570230e+00 2.623639575480925e+00 0.000000000000000e+00
3.136814458809208e+00 2.627200443905469e+00 0.000000000000000e+00
3.156083302455469e+00 2.631140605919986e+00 0.000000000000000e+00
3.177593586951183e+00 2.634841537508980e+00 0.000000000000000e+00
3.197212838115622e+00 2.639273827277655e+00 0.000000000000000e+00
3.217681580343945e+00 2.643762554786959e+00 0.000000000000000e+00
3.237531689807060e+00 2.649424995364906e+00 0.000000000000000e+00
3.257078315847129e+00 2.655691382476780e+00 0.000000000000000e+00
3.277764425395244e+00 2.661685049393494e+00 0.000000000000000e+00
3.297016410346048e+00 2.667833051157821e+00 0.000000000000000e+00
3.316333934737058e+00 2.674162568365230e+00 0.000000000000000e+00
3.336602564895348e+00 2.681600257186021e+00 0.000000000000000e+00
3.355401641839309e+00 2.688915654298832e+00 0.000000000000000e+00
3.374942067028225e+00 2.695963261201014e+00 0.000000000000000e+00
3.394389777990572e+00 2.703018446457282e+00 0.000000000000000e+00
3.414450797584293e+00 2.710448336477371e+00 0.000000000000000e+00
3.433865963810426e+00 2.718628956418366e+00 0.000000000000000e+00
3.452282631946368e+00 2.726341309520267e+00 0.000000000000000e+00
3.472047084487936e+00 2.733377347160066e+00 0.000000000000000e+00
3.491886516745016e+00 2.741642295026729e+00 0.000000000000000e+00
3.510376364691610e+00 2.750995403096769e+00 0.000000000000000e+00
3.530141114428907e+00 2.757581141243563e+00 0.000000000000000e+00
3.548461842490423e+00 2.765813804955972e+00 0.000000000000000e+00
3.568850885645979e+00 2.774467603341817e+00 0.000000000000000e+00
3.586624533402029e+00 2.782294134890218e+00 0.000000000000000e+00
3.606660306727600e+00 2.790309478167019e+00 0.000000000000000e+00
3.626714756199890e+00 2.796117357445411e+00 0.000000000000000e+00
3.645240514105803e+00 2.805586628892671e+00 0.000000000000000e+00
3.664516697574378e+00 2.813411600016492e+00 0.000000000000000e+00
3.684353226327699e+00 2.820267184953234e+00 0.000000000000000e+00
3.703837800574612e+00 2.828565254620115e+00 0.000000000000000e+00
3.722601133980603e+00 2.837666264059566e+00 0.000000000000000e+00
3.741643807115421e+00 2.845935922996760e+00 0.000000000000000e+00
3.761367043718185e+00 2.853431810523428e+00 0.000000000000000e+00
3.779649641443323e+00 2.862745192263126e+00 0.000000000000000e+00
3.797366313467727e+00 2.873282972630459e+00 0.000000000000000e+00
3.816485749980733e+00 2.882705535487581e+00 0.000000000000000e+00
3.834608612653269e+00 2.893029974447046e+00 0.000000000000000e+00
3.851841152391943e+00 2.905404999575478e+00 0.000000000000000e+00
3.869881248286999e+00 2.914918426332899e+00 0.000000000000000e+00
3.887862630129743e+00 2.926331662086672e+00 0.000000000000000e+00
3.903922945842115e+00 2.939762611741389e+00 0.000000000000000e+00
3.921027092865483e+00 2.951685746033955e+00 0.000000000000000e+00
3.939800692427775e+00 2.961044947419044e+00 0.000000000000000e+00
3.956443197463117e+00 2.972003760210940e+00 0.000000000000000e+00
3.971896676191260e+00 2.986951458629758e+00 0.000000000000000e+00
3.991790392590135e+00 2.994907310796381e+00 0.000000000000000e+00

POINT_DATA   310
SCALARS fNorm double
LOOKUP_TABLE default

9.672493e+01 
9.965195e+01 
2.302307e+01 
2.386129e+00 
4.881524e+01 
1.990664e+02 
1.542515e+01 
1.578368e+01 
7.605077e+01 
6.843187e+01 
2.912504e+01 
2.343208e+01 
4.970495e+01 
1.123638e+02 
7.192490e+00 
6.441647e+00 
3.857268e+01 
2.866485e+01 
4.619396e+01 
3.721073e+01 
4.952647e+01 
1.136447e+02 
4.942126e+00 
6.545521e+00 
5.318890e+01 
3.166974e+01 
5.164009e+01 
3.799788e+01 
1.239198e+02 
1.175989e+02 
3.393452e+02 
2.908753e+02 
1.160730e+02 
3.198027e+02 
1.986410e+01 
2.117465e+02 
1.511631e+03 
1.494110e+03 
6.929916e+01 
5.893154e+02 
3.656838e+02 
1.011578e+02 
1.276400e+02 
4.085150e+00 
2.877010e+02 
1.622483e+03 
2.222451e+03 
6.976766e+02 
3.097127e+02 
3.752888e+02 
9.468303e+02 
3.286570e+02 
3.825314e+02 
5.028026e+02 
1.370242e+03 
5.790380e+02 
1.392119e+03 
1.402797e+03 
4.022038e+00 
8.605510e+02 
2.789372e+02 
7.096278e+02 
6.602686e+02 
9.807745e+02 
6.480971e+00 
1.124104e+03 
3.391598e+02 
2.804652e+02 
1.119734e+02 
1.138967e+03 
2.246447e+02 
2.840757e+02 
5.184537e+02 
8.209089e+02 
2.128672e+02 
4.201073e+02 
3.795580e+02 
6.873813e+02 
3.668765e+02 
2.046151e+02 
6.458462e+02 
1.136330e+03 
6.749651e+02 
7.187714e+02 
8.448327e+02 
8.401268e+02 
4.834379e+02 
5.314177e+02 
1.560033e+03 
3.187215e+02 
3.576754e+02 
6.708958e+01 
1.502514e+02 
9.678144e+02 
9.443689e+02 
6.890278e+01 
7.947616e+02 
5.898936e+02 
1.825578e+02 
1.751477e+02 
1.682396e+00 
1.149321e+03 
5.092358e+02 
1.906108e+02 
4.796100e+02 
9.228209e+02 
6.807487e+02 
9.491313e+02 
8.029182e+02 
2.369649e+02 
4.314896e+02 
8.251418e+02 
1.159848e+02 
9.449754e+02 
4.348568e+02 
5.546298e+02 
5.870891e+02 
1.505379e+02 
6.153760e+02 
3.257013e+02 
2.704282e+02 
3.538195e+01 
6.884835e+01 
8.733748e+02 
3.635466e+01 
6.081317e+02 
1.005897e+03 
1.294151e+03 
1.888973e+03 
9.334685e+02 
4.295550e+02 
2.741156e+02 
5.915521e+02 
1.585158e+03 
2.670282e+03 
1.106105e+03 
8.321966e+02 
1.092530e+03 
7.685170e+02 
6.182555e+02 
7.261776e+02 
1.613218e+03 
7.691442e+02 
1.220897e+03 
1.082121e+03 
1.739878e+03 
1.658693e+03 
1.204634e+03 
2.292920e+03 
1.152331e+03 
1.903678e+03 
1.006845e+03 
2.753279e+03 
7.994407e+03 
6.445099e+02 
9.672493e+01 
9.965195e+01 
2.302307e+01 
2.386129e+00 
4.881524e+01 
1.990664e+02 
1.542515e+01 
1.578368e+01 
7.605077e+01 
6.843187e+01 
2.912504e+01 
2.343208e+01 
4.970495e+01 
1.123638e+02 
7.192490e+00 
6.441647e+00 
3.857268e+01 
2.866485e+01 
4.619396e+01 
3.721073e+01 
4.952647e+01 
1.136447e+02 
4.942126e+00 
6.545521e+00 
5.318890e+01 
3.166974e+01 
5.164009e+01 
3.799788e+01 
1.239198e+02 
1.175989e+02 
3.393452e+02 
2.908753e+02 
1.160730e+02 
3.198027e+02 
1.986410e+01 
2.117465e+02 
1.511631e+03 
1.494110e+03 
6.929916e+01 
5.893154e+02 
3.656838e+02 
1.011578e+02 
1.276400e+02 
4.085150e+00 
2.877010e+02 
1.622483e+03 
2.222451e+03 
6.976766e+02 
3.097127e+02 
3.752888e+02 
9.468303e+02 
3.286570e+02 
3.825314e+02 
5.028026e+02 
1.370242e+03 
5.790380e+02 
1.392119e+03 
1.402797e+03 
4.022038e+00 
8.605510e+02 
2.789372e+02 
7.096278e+02 
6.602686e+02 
9.807745e+02 
6.480971e+00 
1.124104e+03 
3.391598e+02 
2.804652e+02 
1.119734e+02 
1.138967e+03 
2.246447e+02 
2.840757e+02 
5.184537e+02 
8.209089e+02 
2.128672e+02 
4.201073e+02 
3.795580e+02 
6.873813e+02 
3.668765e+02 
2.046151e+02 
6.458462e+02 
1.136330e+03 
6.749651e+02 
7.187714e+02 
8.448327e+02 
8.401268e+02 
4.834379e+02 
5.314177e+02 
1.560033e+03 
3.187215e+02 
3.576754e+02 
6.708958e+01 
1.502514e+02 
9.678144e+02 
9.443689e+02 
6.890278e+01 
7.947616e+02 
5.898936e+02 
1.825578e+02 
1.751477e+02 
1.682396e+00 
1.149321e+03 
5.092358e+02 
1.906108e+02 
4.796100e+02 
9.228209e+02 
6.807487e+02 
9.491313e+02 
8.029182e+02 
2.369649e+02 
4.314896e+02 
8.251418e+02 
1.159848e+02 
9.449754e+02 
4.348568e+02 
5.546298e+02 
5.870891e+02 
1.505379e+02 
6.153760e+02 
3.257013e+02 
2.704282e+02 
3.538195e+01 
6.884835e+01 
8.733748e+02 
3.635466e+01 
6.081317e+02 
1.005897e+03 
1.294151e+03 
1.888973e+03 
9.334685e+02 
4.295550e+02 
2.741156e+02 
5.915521e+02 
1.585158e+03 
2.670282e+03 
1.106105e+03 
8.321966e+02 
1.092530e+03 
7.685170e+02 
6.182555e+02 
7.261776e+02 
1.613218e+03 
7.691442e+02 
1.220897e+03 
1.082121e+03 
1.739878e+03 
1.658693e+03 
1.204634e+03 
2.292920e+03 
1.152331e+03 
1.903678e+03 
1.006845e+03 
2.753279e+03 
7.994407e+03 
6.445099e+02 
