# vtk DataFile Version 2.0
fNorm
ASCII
DATASET UNSTRUCTURED_GRID

FIELD FieldData 1
TIME 1 1 double
0.07000000
POINTS 310 float
1.020991243477107e+00 2.006467206130344e+00 0.000000000000000e+00
1.042148930598291e+00 2.011310686349764e+00 0.000000000000000e+00
1.062803282267250e+00 2.018855251677272e+00 0.000000000000000e+00
1.084370855836392e+00 2.022237210764563e+00 0.000000000000000e+00
1.105325141205108e+00 2.027814955422995e+00 0.000000000000000e+00
1.126711809496872e+00 2.034172394132072e+00 0.000000000000000e+00
1.146980686536554e+00 2.040845962829141e+00 0.000000000000000e+00
1.168713272594831e+00 2.047287469451519e+00 0.000000000000000e+00
1.188565521705302e+00 2.053520083775666e+00 0.000000000000000e+00
1.209504197572066e+00 2.061900672267449e+00 0.000000000000000e+00
1.229651975648080e+00 2.069265657624389e+00 0.000000000000000e+00
1.250299834836298e+00 2.077537091589036e+00 0.000000000000000e+00
1.270216660489391e+00 2.086291981536105e+00 0.000000000000000e+00
1.289345271513922e+00 2.096570694521081e+00 0.000000000000000e+00
1.309609763230890e+00 2.106009458529001e+00 0.000000000000000e+00
1.328663905463821e+00 2.116303640829745e+00 0.000000000000000e+00
1.348254423467903e+00 2.126432009506913e+00 0.000000000000000e+00
1.367788537274130e+00 2.135949124214096e+00 0.000000000000000e+00
1.387081550714410e+00 2.146537022225576e+00 0.000000000000000e+00
1.406339523205655e+00 2.157279002212876e+00 0.000000000000000e+00
1.425793036466964e+00 2.166754209682327e+00 0.000000000000000e+00
1.445799806073702e+00 2.175888606142686e+00 0.000000000000000e+00
1.465358326624830e+00 2.185981414047901e+00 0.000000000000000e+00
1.484126323382997e+00 2.195728098466214e+00 0.000000000000000e+00
1.504691793130097e+00 2.204818260801916e+00 0.000000000000000e+00
1.523540985329691e+00 2.213636843948815e+00 0.000000000000000e+00
1.543910520104894e+00 2.223412152071583e+00 0.000000000000000e+00
1.563747930338030e+00 2.230024680356004e+00 0.000000000000000e+00
1.584316541145818e+00 2.237956878689426e+00 0.000000000000000e+00
1.602902852950556e+00 2.246924635274107e+00 0.000000000000000e+00
1.623812771637872e+00 2.255190771485251e+00 0.000000000000000e+00
1.643947018688939e+00 2.257731189476935e+00 0.000000000000000e+00
1.664544819385303e+00 2.266367962597196e+00 0.000000000000000e+00
1.683314651108823e+00 2.274786968401241e+00 0.000000000000000e+00
1.704403447848418e+00 2.280543072965767e+00 0.000000000000000e+00
1.724263216813440e+00 2.286750366833957e+00 0.000000000000000e+00
1.744533016362960e+00 2.294940145410798e+00 0.000000000000000e+00
1.764930916929939e+00 2.294192566698793e+00 0.000000000000000e+00
1.785329140460370e+00 2.303331642218621e+00 0.000000000000000e+00
1.804941622287113e+00 2.309836166061382e+00 0.000000000000000e+00
1.826573572698544e+00 2.312891592744078e+00 0.000000000000000e+00
1.845956901843177e+00 2.318643389735414e+00 0.000000000000000e+00
1.867368908802081e+00 2.323633484855385e+00 0.000000000000000e+00
1.888094057922691e+00 2.325903483906711e+00 0.000000000000000e+00
1.908824929276862e+00 2.325508140238711e+00 0.000000000000000e+00
1.930622340471547e+00 2.326380582938340e+00 0.000000000000000e+00
1.949688085626726e+00 2.334548725189516e+00 0.000000000000000e+00
1.970623093275906e+00 2.330102373375885e+00 0.000000000000000e+00
1.991909769951355e+00 2.329561400723390e+00 0.000000000000000e+00
2.012797182688598e+00 2.328425560463797e+00 0.000000000000000e+00
2.033720606933521e+00 2.327607395719308e+00 0.000000000000000e+00
2.054489433866746e+00 2.323490966262514e+00 0.000000000000000e+00
2.075312891832664e+00 2.319078852940534e+00 0.000000000000000e+00
2.096317523275456e+00 2.317403514874618e+00 0.000000000000000e+00
2.117031665200908e+00 2.317159668486516e+00 0.000000000000000e+00
2.137562678748706e+00 2.310400601282217e+00 0.000000000000000e+00
2.158007233192262e+00 2.305748972539007e+00 0.000000000000000e+00
2.178822228604643e+00 2.304776496337610e+00 0.000000000000000e+00
2.199510560865136e+00 2.299436667071676e+00 0.000000000000000e+00
2.219694797965357e+00 2.294080640897856e+00 0.000000000000000e+00
2.240466111407164e+00 2.290222838232697e+00 0.000000000000000e+00
2.260856081511084e+00 2.287142594493963e+00 0.000000000000000e+00
2.281894280364306e+00 2.282881529635036e+00 0.000000000000000e+00
2.301255440132649e+00 2.276906414943620e+00 0.000000000000000e+00
2.322307972444638e+00 2.274066708957518e+00 0.000000000000000e+00
2.343167216628185e+00 2.271910091589289e+00 0.000000000000000e+00
2.363605889323556e+00 2.266955995559381e+00 0.000000000000000e+00
2.384012163959177e+00 2.263444313328254e+00 0.000000000000000e+00
2.405135729769568e+00 2.260909738587688e+00 0.000000000000000e+00
2.426099955251084e+00 2.259160075396804e+00 0.000000000000000e+00
2.446986169439766e+00 2.256338020746349e+00 0.000000000000000e+00
2.467900701496454e+00 2.253707870873687e+00 0.000000000000000e+00
2.489349943164594e+00 2.252253679498321e+00 0.000000000000000e+00
2.510516387004790e+00 2.249861396910565e+00 0.000000000000000e+00
2.531370277813783e+00 2.248504521923369e+00 0.000000000000000e+00
2.552899624857826e+00 2.248804346394210e+00 0.000000000000000e+00
2.574098239867956e+00 2.249657123474357e+00 0.000000000000000e+00
2.595227556666741e+00 2.249166624682030e+00 0.000000000000000e+00
2.616686345395185e+00 2.247986512427411e+00 0.000000000000000e+00
2.638034361292699e+00 2.248245574664308e+00 0.000000000000000e+00
2.659196619889201e+00 2.250678802121697e+00 0.000000000000000e+00
2.680193851132313e+00 2.253859167026564e+00 0.000000000000000e+00
2.701732833413235e+00 2.255614166296063e+00 0.000000000000000e+00
2.722891862893729e+00 2.255228882987085e+00 0.000000000000000e+00
2.743469823078165e+00 2.251334190729749e+00 0.000000000000000e+00
2.764259731747199e+00 2.244264187690023e+00 0.000000000000000e+00
2.783531353924243e+00 2.236231586040053e+00 0.000000000000000e+00
2.802856177837871e+00 2.225105236966059e+00 0.000000000000000e+00
2.820162408684123e+00 2.213335087905643e+00 0.000000000000000e+00
2.836878258903788e+00 2.198670208157387e+00 0.000000000000000e+00
2.852504090694574e+00 2.182980294222382e+00 0.000000000000000e+00
2.867256453905323e+00 2.166596346045452e+00 0.000000000000000e+00
2.882546970155213e+00 2.149578553825437e+00 0.000000000000000e+00
2.897281576299860e+00 2.133984846382416e+00 0.000000000000000e+00
2.912893326868208e+00 2.117013885955718e+00 0.000000000000000e+00
2.927877827828147e+00 2.101704862438453e+00 0.000000000000000e+00
2.943720284877746e+00 2.085538780398976e+00 0.000000000000000e+00
2.959263355033277e+00 2.069707203255130e+00 0.000000000000000e+00
2.974893357119586e+00 2.054422614307258e+00 0.000000000000000e+00
2.990501444488330e+00 2.038437548003666e+00 0.000000000000000e+00
3.005620919644350e+00 2.022863605000884e+00 0.000000000000000e+00
3.021447691479441e+00 2.007067266953492e+00 0.000000000000000e+00
3.036358829017166e+00 1.991207484304691e+00 0.000000000000000e+00
3.051822770069081e+00 1.975211158120769e+00 0.000000000000000e+00
3.066985956474024e+00 1.959334139731731e+00 0.000000000000000e+00
3.082405903559828e+00 1.943735608430980e+00 0.000000000000000e+00
3.098029193108021e+00 1.928026388579557e+00 0.000000000000000e+00
3.113484198363286e+00 1.913097557797707e+00 0.000000000000000e+00
3.130130098142914e+00 1.898062998940845e+00 0.000000000000000e+00
3.146184231965580e+00 1.884210293268656e+00 0.000000000000000e+00
3.163244129564872e+00 1.870245881328853e+00 0.000000000000000e+00
3.180461907217985e+00 1.857257417961872e+00 0.000000000000000e+00
3.198162680280624e+00 1.844024941599893e+00 0.000000000000000e+00
3.215920749058190e+00 1.831596109204630e+00 0.000000000000000e+00
3.234303612780759e+00 1.819733245029339e+00 0.000000000000000e+00
3.252810272039913e+00 1.808286960314932e+00 0.000000000000000e+00
3.271485904178352e+00 1.796799523152992e+00 0.000000000000000e+00
3.290828800270925e+00 1.786065659673610e+00 0.000000000000000e+00
3.309878999553052e+00 1.776807245273642e+00 0.000000000000000e+00
3.330003271021566e+00 1.767684826296558e+00 0.000000000000000e+00
3.349824757034356e+00 1.758646104215215e+00 0.000000000000000e+00
3.370682297838449e+00 1.751141813994895e+00 0.000000000000000e+00
3.391311597511523e+00 1.745200893913013e+00 0.000000000000000e+00
3.412447793903666e+00 1.739482927601817e+00 0.000000000000000e+00
3.433719709943256e+00 1.734161835360597e+00 0.000000000000000e+00
3.455298258207171e+00 1.730085021330839e+00 0.000000000000000e+00
3.476838976647085e+00 1.728214473036389e+00 0.000000000000000e+00
3.498595336253053e+00 1.726985636055096e+00 0.000000000000000e+00
3.520640483880354e+00 1.725515913672035e+00 0.000000000000000e+00
3.542142529280292e+00 1.726646229869429e+00 0.000000000000000e+00
3.563848455115527e+00 1.728664610896498e+00 0.000000000000000e+00
3.585960912068733e+00 1.731381615917738e+00 0.000000000000000e+00
3.607253027910504e+00 1.735354265353961e+00 0.000000000000000e+00
3.628524130279663e+00 1.740561691375899e+00 0.000000000000000e+00
3.649692519969409e+00 1.746389750074868e+00 0.000000000000000e+00
3.670551913868482e+00 1.752443054283858e+00 0.000000000000000e+00
3.691240428921883e+00 1.758954373522761e+00 0.000000000000000e+00
3.711821793515416e+00 1.765827244706776e+00 0.000000000000000e+00
3.732168165114930e+00 1.773247515986406e+00 0.000000000000000e+00
3.752282124930536e+00 1.781243306308584e+00 0.000000000000000e+00
3.772149249253227e+00 1.790136059284138e+00 0.000000000000000e+00
3.791500122640751e+00 1.799620345509912e+00 0.000000000000000e+00
3.810408829056218e+00 1.810270176034906e+00 0.000000000000000e+00
3.828479993709048e+00 1.822053267405599e+00 0.000000000000000e+00
3.846112877743218e+00 1.834963008384104e+00 0.000000000000000e+00
3.862915464960120e+00 1.848228248950250e+00 0.000000000000000e+00
3.878946226881518e+00 1.862646043267322e+00 0.000000000000000e+00
3.894075689291566e+00 1.877958949279251e+00 0.000000000000000e+00
3.909061174742580e+00 1.893092620842534e+00 0.000000000000000e+00
3.923458978451675e+00 1.908439137069768e+00 0.000000000000000e+00
3.937791586677529e+00 1.925391767881406e+00 0.000000000000000e+00
3.951924209719380e+00 1.940837411216102e+00 0.000000000000000e+00
3.965143280431773e+00 1.955660230441962e+00 0.000000000000000e+00
3.977012293306758e+00 1.974420308800568e+00 0.000000000000000e+00
3.993316235487426e+00 1.988739904945516e+00 0.000000000000000e+00
1.020991243477110e+00 2.993532793869661e+00 0.000000000000000e+00
1.042148930598294e+00 2.988689313650243e+00 0.000000000000000e+00
1.062803282267254e+00 2.981144748322736e+00 0.000000000000000e+00
1.084370855836398e+00 2.977762789235448e+00 0.000000000000000e+00
1.105325141205115e+00 2.972185044577017e+00 0.000000000000000e+00
1.126711809496877e+00 2.965827605867942e+00 0.000000000000000e+00
1.146980686536564e+00 2.959154037170877e+00 0.000000000000000e+00
1.168713272594841e+00 2.952712530548506e+00 0.000000000000000e+00
1.188565521705313e+00 2.946479916224360e+00 0.000000000000000e+00
1.209504197572077e+00 2.938099327732580e+00 0.000000000000000e+00
1.229651975648093e+00 2.930734342375642e+00 0.000000000000000e+00
1.250299834836311e+00 2.922462908410997e+00 0.000000000000000e+00
1.270216660489404e+00 2.913708018463929e+00 0.000000000000000e+00
1.289345271513938e+00 2.903429305478959e+00 0.000000000000000e+00
1.309609763230904e+00 2.893990541471035e+00 0.000000000000000e+00
1.328663905463835e+00 2.883696359170290e+00 0.000000000000000e+00
1.348254423467920e+00 2.873567990493126e+00 0.000000000000000e+00
1.367788537274144e+00 2.864050875785940e+00 0.000000000000000e+00
1.387081550714427e+00 2.853462977774460e+00 0.000000000000000e+00
1.406339523205668e+00 2.842720997787159e+00 0.000000000000000e+00
1.425793036466982e+00 2.833245790317712e+00 0.000000000000000e+00
1.445799806073719e+00 2.824111393857354e+00 0.000000000000000e+00
1.465358326624848e+00 2.814018585952140e+00 0.000000000000000e+00
1.484126323383013e+00 2.804271901533824e+00 0.000000000000000e+00
1.504691793130114e+00 2.795181739198122e+00 0.000000000000000e+00
1.523540985329711e+00 2.786363156051224e+00 0.000000000000000e+00
1.543910520104911e+00 2.776587847928456e+00 0.000000000000000e+00
1.563747930338046e+00 2.769975319644032e+00 0.000000000000000e+00
1.584316541145836e+00 2.762043121310612e+00 0.000000000000000e+00
1.602902852950575e+00 2.753075364725932e+00 0.000000000000000e+00
1.623812771637892e+00 2.744809228514792e+00 0.000000000000000e+00
1.643947018688960e+00 2.742268810523107e+00 0.000000000000000e+00
1.664544819385327e+00 2.733632037402843e+00 0.000000000000000e+00
1.683314651108849e+00 2.725213031598814e+00 0.000000000000000e+00
1.704403447848448e+00 2.719456927034291e+00 0.000000000000000e+00
1.724263216813467e+00 2.713249633166100e+00 0.000000000000000e+00
1.744533016362991e+00 2.705059854589258e+00 0.000000000000000e+00
1.764930916929968e+00 2.705807433301275e+00 0.000000000000000e+00
1.785329140460397e+00 2.696668357781443e+00 0.000000000000000e+00
1.804941622287142e+00 2.690163833938678e+00 0.000000000000000e+00
1.826573572698570e+00 2.687108407255984e+00 0.000000000000000e+00
1.845956901843204e+00 2.681356610264648e+00 0.000000000000000e+00
1.867368908802108e+00 2.676366515144674e+00 0.000000000000000e+00
1.888094057922716e+00 2.674096516093347e+00 0.000000000000000e+00
1.908824929276890e+00 2.674491859761343e+00 0.000000000000000e+00
1.930622340471573e+00 2.673619417061712e+00 0.000000000000000e+00
1.949688085626754e+00 2.665451274810541e+00 0.000000000000000e+00
1.970623093275938e+00 2.669897626624160e+00 0.000000000000000e+00
1.991909769951383e+00 2.670438599276654e+00 0.000000000000000e+00
2.012797182688627e+00 2.671574439536248e+00 0.000000000000000e+00
2.033720606933549e+00 2.672392604280732e+00 0.000000000000000e+00
2.054489433866776e+00 2.676509033737519e+00 0.000000000000000e+00
2.075312891832695e+00 2.680921147059503e+00 0.000000000000000e+00
2.096317523275484e+00 2.682596485125412e+00 0.000000000000000e+00
2.117031665200935e+00 2.682840331513515e+00 0.000000000000000e+00
2.137562678748737e+00 2.689599398717812e+00 0.000000000000000e+00
2.158007233192289e+00 2.694251027461027e+00 0.000000000000000e+00
2.178822228604672e+00 2.695223503662418e+00 0.000000000000000e+00
2.199510560865166e+00 2.700563332928349e+00 0.000000000000000e+00
2.219694797965384e+00 2.705919359102173e+00 0.000000000000000e+00
2.240466111407192e+00 2.709777161767327e+00 0.000000000000000e+00
2.260856081511112e+00 2.712857405506064e+00 0.000000000000000e+00
2.281894280364333e+00 2.717118470364984e+00 0.000000000000000e+00
2.301255440132675e+00 2.723093585056402e+00 0.000000000000000e+00
2.322307972444662e+00 2.725933291042502e+00 0.000000000000000e+00
2.343167216628214e+00 2.728089908410726e+00 0.000000000000000e+00
2.363605889323580e+00 2.733044004440640e+00 0.000000000000000e+00
2.384012163959202e+00 2.736555686671764e+00 0.000000000000000e+00
2.405135729769596e+00 2.739090261412326e+00 0.000000000000000e+00
2.426099955251110e+00 2.740839924603212e+00 0.000000000000000e+00
2.446986169439792e+00 2.743661979253669e+00 0.000000000000000e+00
2.467900701496478e+00 2.746292129126330e+00 0.000000000000000e+00
2.489349943164621e+00 2.747746320501699e+00 0.000000000000000e+00
2.510516387004813e+00 2.750138603089453e+00 0.000000000000000e+00
2.531370277813811e+00 2.751495478076650e+00 0.000000000000000e+00
2.552899624857849e+00 2.751195653605805e+00 0.000000000000000e+00
2.574098239867978e+00 2.750342876525656e+00 0.000000000000000e+00
2.595227556666763e+00 2.750833375317983e+00 0.000000000000000e+00
2.616686345395206e+00 2.752013487572603e+00 0.000000000000000e+00
2.638034361292720e+00 2.751754425335704e+00 0.000000000000000e+00
2.659196619889221e+00 2.749321197878315e+00 0.000000000000000e+00
2.680193851132334e+00 2.746140832973451e+00 0.000000000000000e+00
2.701732833413256e+00 2.744385833703954e+00 0.000000000000000e+00
2.722891862893750e+00 2.744771117012932e+00 0.000000000000000e+00
2.743469823078184e+00 2.748665809270270e+00 0.000000000000000e+00
2.764259731747216e+00 2.755735812310003e+00 0.000000000000000e+00
2.783531353924260e+00 2.763768413959974e+00 0.000000000000000e+00
2.802856177837886e+00 2.774894763033971e+00 0.000000000000000e+00
2.820162408684137e+00 2.786664912094387e+00 0.000000000000000e+00
2.836878258903803e+00 2.801329791842643e+00 0.000000000000000e+00
2.852504090694587e+00 2.817019705777650e+00 0.000000000000000e+00
2.867256453905337e+00 2.833403653954579e+00 0.000000000000000e+00
2.882546970155225e+00 2.850421446174594e+00 0.000000000000000e+00
2.897281576299875e+00 2.866015153617613e+00 0.000000000000000e+00
2.912893326868226e+00 2.882986114044311e+00 0.000000000000000e+00
2.927877827828164e+00 2.898295137561571e+00 0.000000000000000e+00
2.943720284877768e+00 2.914461219601048e+00 0.000000000000000e+00
2.959263355033298e+00 2.930292796744893e+00 0.000000000000000e+00
2.974893357119607e+00 2.945577385692764e+00 0.000000000000000e+00
2.990501444488356e+00 2.961562451996354e+00 0.000000000000000e+00
3.005620919644374e+00 2.977136394999135e+00 0.000000000000000e+00
3.021447691479470e+00 2.992932733046527e+00 0.000000000000000e+00
3.036358829017193e+00 3.008792515695320e+00 0.000000000000000e+00
3.051822770069113e+00 3.024788841879246e+00 0.000000000000000e+00
3.066985956474054e+00 3.040665860268278e+00 0.000000000000000e+00
3.082405903559861e+00 3.056264391569030e+00 0.000000000000000e+00
3.098029193108055e+00 3.071973611420451e+00 0.000000000000000e+00
3.113484198363318e+00 3.086902442202306e+00 0.000000000000000e+00
3.130130098142947e+00 3.101937001059166e+00 0.000000000000000e+00
3.146184231965611e+00 3.115789706731353e+00 0.000000000000000e+00
3.163244129564906e+00 3.129754118671155e+00 0.000000000000000e+00
3.180461907218018e+00 3.142742582038133e+00 0.000000000000000e+00
3.198162680280663e+00 3.155975058400108e+00 0.000000000000000e+00
3.215920749058228e+00 3.168403890795368e+00 0.000000000000000e+00
3.234303612780805e+00 3.180266754970658e+00 0.000000000000000e+00
3.252810272039953e+00 3.191713039685055e+00 0.000000000000000e+00
3.271485904178400e+00 3.203200476846993e+00 0.000000000000000e+00
3.290828800270967e+00 3.213934340326377e+00 0.000000000000000e+00
3.309878999553103e+00 3.223192754726345e+00 0.000000000000000e+00
3.330003271021608e+00 3.232315173703423e+00 0.000000000000000e+00
3.349824757034406e+00 3.241353895784769e+00 0.000000000000000e+00
3.370682297838491e+00 3.248858186005092e+00 0.000000000000000e+00
3.391311597511568e+00 3.254799106086980e+00 0.000000000000000e+00
3.412447793903710e+00 3.260517072398173e+00 0.000000000000000e+00
3.433719709943294e+00 3.265838164639397e+00 0.000000000000000e+00
3.455298258207213e+00 3.269914978669158e+00 0.000000000000000e+00
3.476838976647124e+00 3.271785526963610e+00 0.000000000000000e+00
3.498595336253090e+00 3.273014363944903e+00 0.000000000000000e+00
3.520640483880389e+00 3.274484086327969e+00 0.000000000000000e+00
3.542142529280329e+00 3.273353770130579e+00 0.000000000000000e+00
3.563848455115560e+00 3.271335389103512e+00 0.000000000000000e+00
3.585960912068769e+00 3.268618384082270e+00 0.000000000000000e+00
3.607253027910539e+00 3.264645734646050e+00 0.000000000000000e+00
3.628524130279695e+00 3.259438308624111e+00 0.000000000000000e+00
3.649692519969442e+00 3.253610249925141e+00 0.000000000000000e+00
3.670551913868512e+00 3.247556945716149e+00 0.000000000000000e+00
3.691240428921914e+00 3.241045626477244e+00 0.000000000000000e+00
3.711821793515442e+00 3.234172755293229e+00 0.000000000000000e+00
3.732168165114958e+00 3.226752484013594e+00 0.000000000000000e+00
3.752282124930561e+00 3.218756693691416e+00 0.000000000000000e+00
3.772149249253252e+00 3.209863940715860e+00 0.000000000000000e+00
3.791500122640773e+00 3.200379654490084e+00 0.000000000000000e+00
3.810408829056242e+00 3.189729823965090e+00 0.000000000000000e+00
3.828479993709067e+00 3.177946732594397e+00 0.000000000000000e+00
3.846112877743241e+00 3.165036991615892e+00 0.000000000000000e+00
3.862915464960138e+00 3.151771751049746e+00 0.000000000000000e+00
3.878946226881536e+00 3.137353956732676e+00 0.000000000000000e+00
3.894075689291583e+00 3.122041050720743e+00 0.000000000000000e+00
3.909061174742594e+00 3.106907379157463e+00 0.000000000000000e+00
3.923458978451688e+00 3.091560862930228e+00 0.000000000000000e+00
3.937791586677540e+00 3.074608232118589e+00 0.000000000000000e+00
3.951924209719389e+00 3.059162588783892e+00 0.000000000000000e+00
3.965143280431779e+00 3.044339769558031e+00 0.000000000000000e+00
3.977012293306764e+00 3.025579691199425e+00 0.000000000000000e+00
3.993316235487431e+00 3.011260095054477e+00 0.000000000000000e+00

POINT_DATA   310
SCALARS fNorm double
LOOKUP_TABLE default

1.289191e+03 
2.979922e+03 
4.577819e+03 
2.331817e+03 
8.943183e+02 
7.443142e+02 
7.104218e+02 
3.730959e+02 
1.721420e+03 
7.076199e+02 
8.233068e+02 
1.017383e+03 
1.901700e+03 
1.307478e+03 
1.414847e+03 
5.082395e+02 
7.236477e+02 
1.105368e+03 
7.498428e+01 
1.486040e+03 
7.177973e+02 
1.337442e+03 
2.196042e+02 
1.535839e+03 
4.651374e+02 
4.097356e+01 
2.720217e+03 
1.001415e+03 
1.491891e+03 
1.655414e+03 
4.644680e+03 
4.933219e+03 
6.195097e+02 
2.582094e+03 
5.370436e+02 
1.324654e+03 
6.792812e+03 
8.279138e+03 
1.941417e+03 
3.323354e+03 
2.163557e+03 
1.091328e+03 
2.367239e+03 
1.684191e+03 
1.232997e+03 
6.188728e+03 
9.254105e+03 
3.126151e+03 
3.411342e+02 
6.924972e+01 
2.541150e+03 
2.199718e+02 
2.434722e+03 
9.789243e+02 
5.307865e+03 
1.627363e+03 
2.562688e+03 
3.431021e+03 
1.745818e+02 
1.303308e+03 
5.049291e+02 
7.855731e+02 
1.440531e+03 
2.288455e+03 
5.210018e+02 
2.101359e+03 
9.779762e+02 
9.814661e+02 
5.795358e+02 
9.685601e+02 
7.483471e+01 
1.159687e+03 
7.649400e+02 
8.170469e+02 
1.413866e+03 
3.804887e+02 
1.171636e+03 
4.307710e+02 
1.589418e+03 
2.075454e+03 
4.257287e+02 
1.915553e+03 
3.160467e+02 
2.054396e+03 
4.220932e+02 
9.568891e+02 
1.027386e+03 
3.272280e+02 
7.825809e+02 
5.358056e+02 
1.218129e+03 
1.044744e+02 
5.914692e+02 
2.162020e+02 
7.737276e+02 
2.009651e+02 
1.412184e+01 
4.642118e+02 
6.081671e+02 
1.404108e+02 
4.628725e+02 
8.924007e+02 
3.810405e+02 
1.843670e+02 
4.250240e+02 
4.718211e+01 
4.388074e+02 
8.480423e+02 
5.569291e+02 
5.798437e+02 
9.821781e+02 
1.337571e+02 
8.220552e+02 
8.912708e+02 
4.989677e+02 
8.567714e+01 
1.183167e+03 
1.380190e+03 
5.985057e+02 
5.737506e+01 
2.096932e+03 
1.664861e+03 
3.583107e+02 
5.307591e+02 
1.576965e+03 
2.536391e+03 
7.735480e+02 
1.218048e+02 
3.116575e+03 
1.134514e+03 
1.047677e+03 
1.826255e+03 
1.523361e+03 
8.528622e+02 
3.572425e+02 
5.939798e+02 
5.062448e+02 
6.944726e+02 
6.976251e+02 
1.021433e+03 
7.678520e+02 
1.292379e+03 
1.499094e+03 
1.339064e+03 
8.919294e+02 
1.412311e+03 
1.285473e+03 
6.075163e+01 
5.670360e+02 
1.305680e+03 
8.847942e+02 
1.222837e+02 
2.557140e+03 
7.214700e+03 
6.656844e+03 
1.289191e+03 
2.979922e+03 
4.577819e+03 
2.331817e+03 
8.943183e+02 
7.443142e+02 
7.104218e+02 
3.730959e+02 
1.721420e+03 
7.076199e+02 
8.233068e+02 
1.017383e+03 
1.901700e+03 
1.307478e+03 
1.414847e+03 
5.082395e+02 
7.236477e+02 
1.105368e+03 
7.498428e+01 
1.486040e+03 
7.177973e+02 
1.337442e+03 
2.196042e+02 
1.535839e+03 
4.651374e+02 
4.097356e+01 
2.720217e+03 
1.001415e+03 
1.491891e+03 
1.655414e+03 
4.644680e+03 
4.933219e+03 
6.195097e+02 
2.582094e+03 
5.370436e+02 
1.324654e+03 
6.792812e+03 
8.279138e+03 
1.941417e+03 
3.323354e+03 
2.163557e+03 
1.091328e+03 
2.367239e+03 
1.684191e+03 
1.232997e+03 
6.188728e+03 
9.254105e+03 
3.126151e+03 
3.411342e+02 
6.924972e+01 
2.541150e+03 
2.199718e+02 
2.434722e+03 
9.789243e+02 
5.307865e+03 
1.627363e+03 
2.562688e+03 
3.431021e+03 
1.745818e+02 
1.303308e+03 
5.049291e+02 
7.855731e+02 
1.440531e+03 
2.288455e+03 
5.210018e+02 
2.101359e+03 
9.779762e+02 
9.814661e+02 
5.795358e+02 
9.685601e+02 
7.483471e+01 
1.159687e+03 
7.649400e+02 
8.170469e+02 
1.413866e+03 
3.804887e+02 
1.171636e+03 
4.307710e+02 
1.589418e+03 
2.075454e+03 
4.257287e+02 
1.915553e+03 
3.160467e+02 
2.054396e+03 
4.220932e+02 
9.568891e+02 
1.027386e+03 
3.272280e+02 
7.825809e+02 
5.358056e+02 
1.218129e+03 
1.044744e+02 
5.914692e+02 
2.162020e+02 
7.737276e+02 
2.009651e+02 
1.412184e+01 
4.642118e+02 
6.081671e+02 
1.404108e+02 
4.628725e+02 
8.924007e+02 
3.810405e+02 
1.843670e+02 
4.250240e+02 
4.718211e+01 
4.388074e+02 
8.480423e+02 
5.569291e+02 
5.798437e+02 
9.821781e+02 
1.337571e+02 
8.220552e+02 
8.912708e+02 
4.989677e+02 
8.567714e+01 
1.183167e+03 
1.380190e+03 
5.985057e+02 
5.737506e+01 
2.096932e+03 
1.664861e+03 
3.583107e+02 
5.307591e+02 
1.576965e+03 
2.536391e+03 
7.735480e+02 
1.218048e+02 
3.116575e+03 
1.134514e+03 
1.047677e+03 
1.826255e+03 
1.523361e+03 
8.528622e+02 
3.572425e+02 
5.939798e+02 
5.062448e+02 
6.944726e+02 
6.976251e+02 
1.021433e+03 
7.678520e+02 
1.292379e+03 
1.499094e+03 
1.339064e+03 
8.919294e+02 
1.412311e+03 
1.285473e+03 
6.075163e+01 
5.670360e+02 
1.305680e+03 
8.847942e+02 
1.222837e+02 
2.557140e+03 
7.214700e+03 
6.656844e+03 
