# vtk DataFile Version 2.0
fTan
ASCII
DATASET UNSTRUCTURED_GRID

FIELD FieldData 1
TIME 1 1 double
0.12500000
POINTS 310 float
1.007565138345295e+00 2.002900626103737e+00 0.000000000000000e+00
1.026450245330537e+00 2.010659120556533e+00 0.000000000000000e+00
1.044164378222260e+00 2.020758873902071e+00 0.000000000000000e+00
1.063064457402416e+00 2.028793749605509e+00 0.000000000000000e+00
1.081639354750998e+00 2.037100095563361e+00 0.000000000000000e+00
1.100857810655345e+00 2.045148986784226e+00 0.000000000000000e+00
1.119892035411623e+00 2.052109785464619e+00 0.000000000000000e+00
1.139232086572281e+00 2.059353615511248e+00 0.000000000000000e+00
1.158846369508306e+00 2.064660282973132e+00 0.000000000000000e+00
1.178543133590298e+00 2.071450365976973e+00 0.000000000000000e+00
1.198426490722949e+00 2.075781090372422e+00 0.000000000000000e+00
1.218536421577263e+00 2.080988001271322e+00 0.000000000000000e+00
1.238625527321263e+00 2.083931503549462e+00 0.000000000000000e+00
1.258512013206834e+00 2.088571005669214e+00 0.000000000000000e+00
1.279279850778795e+00 2.091593086660254e+00 0.000000000000000e+00
1.299045435005166e+00 2.095363922152729e+00 0.000000000000000e+00
1.319771576486673e+00 2.098515691446285e+00 0.000000000000000e+00
1.339838877396356e+00 2.101618744875362e+00 0.000000000000000e+00
1.360354096108831e+00 2.105953137712059e+00 0.000000000000000e+00
1.380329128364076e+00 2.109758861295422e+00 0.000000000000000e+00
1.400211901202997e+00 2.115142480068483e+00 0.000000000000000e+00
1.419761538878743e+00 2.122127527567861e+00 0.000000000000000e+00
1.439022842103190e+00 2.130934800966100e+00 0.000000000000000e+00
1.457651555461316e+00 2.138909100591793e+00 0.000000000000000e+00
1.477263929037037e+00 2.147687695293182e+00 0.000000000000000e+00
1.495448590591642e+00 2.156647907927145e+00 0.000000000000000e+00
1.514678187017609e+00 2.165948433965065e+00 0.000000000000000e+00
1.533679036390550e+00 2.172589298073387e+00 0.000000000000000e+00
1.554487291573576e+00 2.178866742559712e+00 0.000000000000000e+00
1.574371767620075e+00 2.184729789031553e+00 0.000000000000000e+00
1.593839920400802e+00 2.191293845367301e+00 0.000000000000000e+00
1.614967074542815e+00 2.193579399595338e+00 0.000000000000000e+00
1.635369178435871e+00 2.199185921204978e+00 0.000000000000000e+00
1.654974484658567e+00 2.205769203556930e+00 0.000000000000000e+00
1.676079036954292e+00 2.209427992003286e+00 0.000000000000000e+00
1.696508111424004e+00 2.213894404267521e+00 0.000000000000000e+00
1.716724037306920e+00 2.221368258631895e+00 0.000000000000000e+00
1.737618287219498e+00 2.219160834273805e+00 0.000000000000000e+00
1.758476764533364e+00 2.224659248797023e+00 0.000000000000000e+00
1.779035542642629e+00 2.227962427491010e+00 0.000000000000000e+00
1.800598479361865e+00 2.228188886892830e+00 0.000000000000000e+00
1.821325056182496e+00 2.232270282953723e+00 0.000000000000000e+00
1.842291516259028e+00 2.237211088182645e+00 0.000000000000000e+00
1.862920433894203e+00 2.239759571747941e+00 0.000000000000000e+00
1.884283082672447e+00 2.239974788773364e+00 0.000000000000000e+00
1.906135743306876e+00 2.240421803239883e+00 0.000000000000000e+00
1.925458079128614e+00 2.248325046416973e+00 0.000000000000000e+00
1.947523183847150e+00 2.248539626580732e+00 0.000000000000000e+00
1.968851853414789e+00 2.250759042196295e+00 0.000000000000000e+00
1.990294659160012e+00 2.253151194984703e+00 0.000000000000000e+00
2.011065291611953e+00 2.256431538879471e+00 0.000000000000000e+00
2.033314932363968e+00 2.256282995035947e+00 0.000000000000000e+00
2.054998053346025e+00 2.258134443519231e+00 0.000000000000000e+00
2.076037841842181e+00 2.261913432274393e+00 0.000000000000000e+00
2.096980961483935e+00 2.266692703404598e+00 0.000000000000000e+00
2.119336596116998e+00 2.265673121714131e+00 0.000000000000000e+00
2.140991550168937e+00 2.264424684872363e+00 0.000000000000000e+00
2.162374004059859e+00 2.265186956557815e+00 0.000000000000000e+00
2.184490593600034e+00 2.261632386008797e+00 0.000000000000000e+00
2.206017205081981e+00 2.256800642981547e+00 0.000000000000000e+00
2.227390050404674e+00 2.251773336960467e+00 0.000000000000000e+00
2.248390444411319e+00 2.247681547400379e+00 0.000000000000000e+00
2.270602982419309e+00 2.242698446916102e+00 0.000000000000000e+00
2.291574533359797e+00 2.235719102347330e+00 0.000000000000000e+00
2.313297912913053e+00 2.232044540181230e+00 0.000000000000000e+00
2.335087615804671e+00 2.229367946533237e+00 0.000000000000000e+00
2.357301220056951e+00 2.224205191151690e+00 0.000000000000000e+00
2.378766266533487e+00 2.220522832459610e+00 0.000000000000000e+00
2.400849474443526e+00 2.217965294540484e+00 0.000000000000000e+00
2.422993683975035e+00 2.216312365876486e+00 0.000000000000000e+00
2.445280673592078e+00 2.213847200557419e+00 0.000000000000000e+00
2.467196476129120e+00 2.212216792960479e+00 0.000000000000000e+00
2.489646924791043e+00 2.212949101129625e+00 0.000000000000000e+00
2.511960382399070e+00 2.213375879120348e+00 0.000000000000000e+00
2.534242614573986e+00 2.213392391214840e+00 0.000000000000000e+00
2.556507197819389e+00 2.214226463384930e+00 0.000000000000000e+00
2.578745989912731e+00 2.216192259016384e+00 0.000000000000000e+00
2.600935672704884e+00 2.218203187415758e+00 0.000000000000000e+00
2.623379592658022e+00 2.220382787665663e+00 0.000000000000000e+00
2.645418772925053e+00 2.222982835857350e+00 0.000000000000000e+00
2.667366237713882e+00 2.225773531673810e+00 0.000000000000000e+00
2.689832365197562e+00 2.230363623943506e+00 0.000000000000000e+00
2.711470074534773e+00 2.233635154773805e+00 0.000000000000000e+00
2.733247798675318e+00 2.237854463794417e+00 0.000000000000000e+00
2.754889856227055e+00 2.244194771701174e+00 0.000000000000000e+00
2.776752573862451e+00 2.250092348662462e+00 0.000000000000000e+00
2.797083361639165e+00 2.256106442676660e+00 0.000000000000000e+00
2.819415430015574e+00 2.263905905415682e+00 0.000000000000000e+00
2.839213729609539e+00 2.272285787550606e+00 0.000000000000000e+00
2.860881352955423e+00 2.280178313587881e+00 0.000000000000000e+00
2.880811905977282e+00 2.287794710152750e+00 0.000000000000000e+00
2.902041332723585e+00 2.295251284731835e+00 0.000000000000000e+00
2.923427515145629e+00 2.303504925268053e+00 0.000000000000000e+00
2.943655945883751e+00 2.311420649920041e+00 0.000000000000000e+00
2.965839042822175e+00 2.318775256579803e+00 0.000000000000000e+00
2.986270196065250e+00 2.325969549235915e+00 0.000000000000000e+00
3.007790491542774e+00 2.332797737397633e+00 0.000000000000000e+00
3.029532360107570e+00 2.337860685914011e+00 0.000000000000000e+00
3.050816814199308e+00 2.343249888352051e+00 0.000000000000000e+00
3.073111630207121e+00 2.347857319073988e+00 0.000000000000000e+00
3.095146885928514e+00 2.351411970654608e+00 0.000000000000000e+00
3.117064818626349e+00 2.355158216742193e+00 0.000000000000000e+00
3.139736018386153e+00 2.357479115987528e+00 0.000000000000000e+00
3.161398853807397e+00 2.359064642082425e+00 0.000000000000000e+00
3.184474263939720e+00 2.360172662151423e+00 0.000000000000000e+00
3.206402977352825e+00 2.361319404865773e+00 0.000000000000000e+00
3.229131802897244e+00 2.362294719224110e+00 0.000000000000000e+00
3.251622267634357e+00 2.362330355912698e+00 0.000000000000000e+00
3.273892451444705e+00 2.363163903012034e+00 0.000000000000000e+00
3.296719219466281e+00 2.363178552577493e+00 0.000000000000000e+00
3.319176147824851e+00 2.363938001015093e+00 0.000000000000000e+00
3.341475519786236e+00 2.365310237470838e+00 0.000000000000000e+00
3.364702781058666e+00 2.366194012955735e+00 0.000000000000000e+00
3.386474924430062e+00 2.368384599160791e+00 0.000000000000000e+00
3.409229384936828e+00 2.370937740965285e+00 0.000000000000000e+00
3.431581942773437e+00 2.373106286686343e+00 0.000000000000000e+00
3.454067104094785e+00 2.376041282468627e+00 0.000000000000000e+00
3.476738190870429e+00 2.379520453197518e+00 0.000000000000000e+00
3.498071897529078e+00 2.383082300304348e+00 0.000000000000000e+00
3.521021133490487e+00 2.386799450990396e+00 0.000000000000000e+00
3.542845666459590e+00 2.390493214684055e+00 0.000000000000000e+00
3.565237066856591e+00 2.394461779430816e+00 0.000000000000000e+00
3.586930804220052e+00 2.398258158107525e+00 0.000000000000000e+00
3.609112885333349e+00 2.402485753645147e+00 0.000000000000000e+00
3.631307347384225e+00 2.406461151292506e+00 0.000000000000000e+00
3.653365268686703e+00 2.409607903299566e+00 0.000000000000000e+00
3.675283621868033e+00 2.413021317875497e+00 0.000000000000000e+00
3.698386657885017e+00 2.415813478046952e+00 0.000000000000000e+00
3.719552934186596e+00 2.416967015832193e+00 0.000000000000000e+00
3.743166502432054e+00 2.418196643295597e+00 0.000000000000000e+00
3.764173550753800e+00 2.417584715194827e+00 0.000000000000000e+00
3.786174857405986e+00 2.415811004451272e+00 0.000000000000000e+00
3.807934995203034e+00 2.412710513378914e+00 0.000000000000000e+00
3.828793212917178e+00 2.407883812874350e+00 0.000000000000000e+00
3.850024723980009e+00 2.400720947225265e+00 0.000000000000000e+00
3.867863993383254e+00 2.391783317421779e+00 0.000000000000000e+00
3.886857665320446e+00 2.380085911304177e+00 0.000000000000000e+00
3.903143146346175e+00 2.367165429461927e+00 0.000000000000000e+00
3.918163585362130e+00 2.351852737487251e+00 0.000000000000000e+00
3.932614548525632e+00 2.335484156785597e+00 0.000000000000000e+00
3.945157975969040e+00 2.317724149595978e+00 0.000000000000000e+00
3.956004164627700e+00 2.298569542259154e+00 0.000000000000000e+00
3.965162470587517e+00 2.279348231527424e+00 0.000000000000000e+00
3.975096648665206e+00 2.259251262225048e+00 0.000000000000000e+00
3.982717345437088e+00 2.239401116165287e+00 0.000000000000000e+00
3.989074369551325e+00 2.218406920969348e+00 0.000000000000000e+00
3.996070631606828e+00 2.196443353653972e+00 0.000000000000000e+00
4.002259995717048e+00 2.175890387481652e+00 0.000000000000000e+00
4.004291456102986e+00 2.154680550621911e+00 0.000000000000000e+00
4.005443080162657e+00 2.132112473343969e+00 0.000000000000000e+00
4.008961021780202e+00 2.109750376387139e+00 0.000000000000000e+00
4.010789875565679e+00 2.089304420816557e+00 0.000000000000000e+00
4.007442951699711e+00 2.067417375467631e+00 0.000000000000000e+00
4.004495541105983e+00 2.044447466829313e+00 0.000000000000000e+00
4.007564991460133e+00 2.023683966689743e+00 0.000000000000000e+00
1.007565138345292e+00 2.997099373896261e+00 0.000000000000000e+00
1.026450245330535e+00 2.989340879443469e+00 0.000000000000000e+00
1.044164378222260e+00 2.979241126097934e+00 0.000000000000000e+00
1.063064457402416e+00 2.971206250394493e+00 0.000000000000000e+00
1.081639354750995e+00 2.962899904436642e+00 0.000000000000000e+00
1.100857810655346e+00 2.954851013215779e+00 0.000000000000000e+00
1.119892035411619e+00 2.947890214535387e+00 0.000000000000000e+00
1.139232086572281e+00 2.940646384488761e+00 0.000000000000000e+00
1.158846369508304e+00 2.935339717026877e+00 0.000000000000000e+00
1.178543133590298e+00 2.928549634023042e+00 0.000000000000000e+00
1.198426490722952e+00 2.924218909627594e+00 0.000000000000000e+00
1.218536421577262e+00 2.919011998728695e+00 0.000000000000000e+00
1.238625527321264e+00 2.916068496450551e+00 0.000000000000000e+00
1.258512013206833e+00 2.911428994330800e+00 0.000000000000000e+00
1.279279850778796e+00 2.908406913339755e+00 0.000000000000000e+00
1.299045435005168e+00 2.904636077847286e+00 0.000000000000000e+00
1.319771576486675e+00 2.901484308553731e+00 0.000000000000000e+00
1.339838877396359e+00 2.898381255124651e+00 0.000000000000000e+00
1.360354096108835e+00 2.894046862287952e+00 0.000000000000000e+00
1.380329128364079e+00 2.890241138704588e+00 0.000000000000000e+00
1.400211901203003e+00 2.884857519931527e+00 0.000000000000000e+00
1.419761538878745e+00 2.877872472432142e+00 0.000000000000000e+00
1.439022842103196e+00 2.869065199033911e+00 0.000000000000000e+00
1.457651555461320e+00 2.861090899408215e+00 0.000000000000000e+00
1.477263929037043e+00 2.852312304706827e+00 0.000000000000000e+00
1.495448590591655e+00 2.843352092072875e+00 0.000000000000000e+00
1.514678187017618e+00 2.834051566034955e+00 0.000000000000000e+00
1.533679036390559e+00 2.827410701926630e+00 0.000000000000000e+00
1.554487291573586e+00 2.821133257440307e+00 0.000000000000000e+00
1.574371767620087e+00 2.815270210968467e+00 0.000000000000000e+00
1.593839920400813e+00 2.808706154632726e+00 0.000000000000000e+00
1.614967074542823e+00 2.806420600404683e+00 0.000000000000000e+00
1.635369178435883e+00 2.800814078795042e+00 0.000000000000000e+00
1.654974484658574e+00 2.794230796443095e+00 0.000000000000000e+00
1.676079036954301e+00 2.790572007996731e+00 0.000000000000000e+00
1.696508111424010e+00 2.786105595732495e+00 0.000000000000000e+00
1.716724037306926e+00 2.778631741368122e+00 0.000000000000000e+00
1.737618287219506e+00 2.780839165726221e+00 0.000000000000000e+00
1.758476764533367e+00 2.775340751202997e+00 0.000000000000000e+00
1.779035542642631e+00 2.772037572509002e+00 0.000000000000000e+00
1.800598479361868e+00 2.771811113107189e+00 0.000000000000000e+00
1.821325056182497e+00 2.767729717046296e+00 0.000000000000000e+00
1.842291516259032e+00 2.762788911817379e+00 0.000000000000000e+00
1.862920433894202e+00 2.760240428252089e+00 0.000000000000000e+00
1.884283082672448e+00 2.760025211226671e+00 0.000000000000000e+00
1.906135743306877e+00 2.759578196760156e+00 0.000000000000000e+00
1.925458079128613e+00 2.751674953583064e+00 0.000000000000000e+00
1.947523183847148e+00 2.751460373419298e+00 0.000000000000000e+00
1.968851853414784e+00 2.749240957803740e+00 0.000000000000000e+00
1.990294659160008e+00 2.746848805015332e+00 0.000000000000000e+00
2.011065291611947e+00 2.743568461120561e+00 0.000000000000000e+00
2.033314932363964e+00 2.743717004964088e+00 0.000000000000000e+00
2.054998053346020e+00 2.741865556480808e+00 0.000000000000000e+00
2.076037841842172e+00 2.738086567725643e+00 0.000000000000000e+00
2.096980961483930e+00 2.733307296595442e+00 0.000000000000000e+00
2.119336596116991e+00 2.734326878285910e+00 0.000000000000000e+00
2.140991550168931e+00 2.735575315127678e+00 0.000000000000000e+00
2.162374004059852e+00 2.734813043442224e+00 0.000000000000000e+00
2.184490593600024e+00 2.738367613991243e+00 0.000000000000000e+00
2.206017205081969e+00 2.743199357018502e+00 0.000000000000000e+00
2.227390050404662e+00 2.748226663039572e+00 0.000000000000000e+00
2.248390444411304e+00 2.752318452599662e+00 0.000000000000000e+00
2.270602982419295e+00 2.757301553083948e+00 0.000000000000000e+00
2.291574533359781e+00 2.764280897652724e+00 0.000000000000000e+00
2.313297912913037e+00 2.767955459818826e+00 0.000000000000000e+00
2.335087615804654e+00 2.770632053466819e+00 0.000000000000000e+00
2.357301220056932e+00 2.775794808848375e+00 0.000000000000000e+00
2.378766266533469e+00 2.779477167540457e+00 0.000000000000000e+00
2.400849474443511e+00 2.782034705459587e+00 0.000000000000000e+00
2.422993683975017e+00 2.783687634123590e+00 0.000000000000000e+00
2.445280673592060e+00 2.786152799442665e+00 0.000000000000000e+00
2.467196476129101e+00 2.787783207039602e+00 0.000000000000000e+00
2.489646924791028e+00 2.787050898870460e+00 0.000000000000000e+00
2.511960382399048e+00 2.786624120879742e+00 0.000000000000000e+00
2.534242614573968e+00 2.786607608785245e+00 0.000000000000000e+00
2.556507197819368e+00 2.785773536615150e+00 0.000000000000000e+00
2.578745989912712e+00 2.783807740983696e+00 0.000000000000000e+00
2.600935672704860e+00 2.781796812584324e+00 0.000000000000000e+00
2.623379592658002e+00 2.779617212334411e+00 0.000000000000000e+00
2.645418772925031e+00 2.777017164142720e+00 0.000000000000000e+00
2.667366237713864e+00 2.774226468326253e+00 0.000000000000000e+00
2.689832365197539e+00 2.769636376056558e+00 0.000000000000000e+00
2.711470074534751e+00 2.766364845226261e+00 0.000000000000000e+00
2.733247798675296e+00 2.762145536205649e+00 0.000000000000000e+00
2.754889856227033e+00 2.755805228298887e+00 0.000000000000000e+00
2.776752573862429e+00 2.749907651337602e+00 0.000000000000000e+00
2.797083361639143e+00 2.743893557323403e+00 0.000000000000000e+00
2.819415430015549e+00 2.736094094584379e+00 0.000000000000000e+00
2.839213729609515e+00 2.727714212449450e+00 0.000000000000000e+00
2.860881352955399e+00 2.719821686412168e+00 0.000000000000000e+00
2.880811905977256e+00 2.712205289847300e+00 0.000000000000000e+00
2.902041332723559e+00 2.704748715268209e+00 0.000000000000000e+00
2.923427515145605e+00 2.696495074731990e+00 0.000000000000000e+00
2.943655945883727e+00 2.688579350079999e+00 0.000000000000000e+00
2.965839042822154e+00 2.681224743420238e+00 0.000000000000000e+00
2.986270196065227e+00 2.674030450764124e+00 0.000000000000000e+00
3.007790491542757e+00 2.667202262602402e+00 0.000000000000000e+00
3.029532360107550e+00 2.662139314086025e+00 0.000000000000000e+00
3.050816814199295e+00 2.656750111647983e+00 0.000000000000000e+00
3.073111630207103e+00 2.652142680926048e+00 0.000000000000000e+00
3.095146885928502e+00 2.648588029345428e+00 0.000000000000000e+00
3.117064818626337e+00 2.644841783257844e+00 0.000000000000000e+00
3.139736018386142e+00 2.642520884012509e+00 0.000000000000000e+00
3.161398853807391e+00 2.640935357917610e+00 0.000000000000000e+00
3.184474263939710e+00 2.639827337848614e+00 0.000000000000000e+00
3.206402977352826e+00 2.638680595134264e+00 0.000000000000000e+00
3.229131802897236e+00 2.637705280775929e+00 0.000000000000000e+00
3.251622267634360e+00 2.637669644087339e+00 0.000000000000000e+00
3.273892451444701e+00 2.636836096988000e+00 0.000000000000000e+00
3.296719219466281e+00 2.636821447422541e+00 0.000000000000000e+00
3.319176147824852e+00 2.636061998984944e+00 0.000000000000000e+00
3.341475519786239e+00 2.634689762529198e+00 0.000000000000000e+00
3.364702781058668e+00 2.633805987044299e+00 0.000000000000000e+00
3.386474924430068e+00 2.631615400839246e+00 0.000000000000000e+00
3.409229384936832e+00 2.629062259034745e+00 0.000000000000000e+00
3.431581942773450e+00 2.626893713313691e+00 0.000000000000000e+00
3.454067104094794e+00 2.623958717531401e+00 0.000000000000000e+00
3.476738190870440e+00 2.620479546802510e+00 0.000000000000000e+00
3.498071897529095e+00 2.616917699695672e+00 0.000000000000000e+00
3.521021133490501e+00 2.613200549009626e+00 0.000000000000000e+00
3.542845666459607e+00 2.609506785315961e+00 0.000000000000000e+00
3.565237066856605e+00 2.605538220569196e+00 0.000000000000000e+00
3.586930804220070e+00 2.601741841892484e+00 0.000000000000000e+00
3.609112885333368e+00 2.597514246354859e+00 0.000000000000000e+00
3.631307347384238e+00 2.593538848707503e+00 0.000000000000000e+00
3.653365268686721e+00 2.590392096700436e+00 0.000000000000000e+00
3.675283621868046e+00 2.586978682124500e+00 0.000000000000000e+00
3.698386657885035e+00 2.584186521953041e+00 0.000000000000000e+00
3.719552934186607e+00 2.583032984167801e+00 0.000000000000000e+00
3.743166502432071e+00 2.581803356704396e+00 0.000000000000000e+00
3.764173550753807e+00 2.582415284805167e+00 0.000000000000000e+00
3.786174857405993e+00 2.584188995548723e+00 0.000000000000000e+00
3.807934995203042e+00 2.587289486621079e+00 0.000000000000000e+00
3.828793212917183e+00 2.592116187125647e+00 0.000000000000000e+00
3.850024723980016e+00 2.599279052774738e+00 0.000000000000000e+00
3.867863993383257e+00 2.608216682578223e+00 0.000000000000000e+00
3.886857665320450e+00 2.619914088695835e+00 0.000000000000000e+00
3.903143146346164e+00 2.632834570538082e+00 0.000000000000000e+00
3.918163585362131e+00 2.648147262512765e+00 0.000000000000000e+00
3.932614548525632e+00 2.664515843214416e+00 0.000000000000000e+00
3.945157975969036e+00 2.682275850404032e+00 0.000000000000000e+00
3.956004164627705e+00 2.701430457740864e+00 0.000000000000000e+00
3.965162470587507e+00 2.720651768472577e+00 0.000000000000000e+00
3.975096648665202e+00 2.740748737774967e+00 0.000000000000000e+00
3.982717345437075e+00 2.760598883834716e+00 0.000000000000000e+00
3.989074369551329e+00 2.781593079030666e+00 0.000000000000000e+00
3.996070631606825e+00 2.803556646346025e+00 0.000000000000000e+00
4.002259995717054e+00 2.824109612518356e+00 0.000000000000000e+00
4.004291456102991e+00 2.845319449378089e+00 0.000000000000000e+00
4.005443080162666e+00 2.867887526656038e+00 0.000000000000000e+00
4.008961021780219e+00 2.890249623612861e+00 0.000000000000000e+00
4.010789875565691e+00 2.910695579183445e+00 0.000000000000000e+00
4.007442951699718e+00 2.932582624532371e+00 0.000000000000000e+00
4.004495541105989e+00 2.955552533170690e+00 0.000000000000000e+00
4.007564991460138e+00 2.976316033310261e+00 0.000000000000000e+00

POINT_DATA   310
SCALARS fTan double
LOOKUP_TABLE default

2.692155e+02 
3.311467e+02 
1.476337e+03 
1.637132e+03 
4.888841e+03 
5.584885e+03 
3.794090e+03 
3.414018e+03 
4.948925e+03 
4.657674e+03 
4.449169e+03 
4.733703e+03 
8.782215e+02 
5.691533e+03 
8.535710e+03 
8.605686e+03 
6.445486e+03 
6.479912e+03 
6.229221e+03 
2.892267e+03 
1.815518e+03 
3.977948e+03 
9.203831e+03 
1.251480e+04 
1.204074e+04 
1.085610e+04 
1.259140e+04 
1.619251e+04 
9.930895e+03 
2.165802e+03 
7.462563e+03 
1.535934e+03 
4.881272e+03 
7.593316e+03 
4.969098e+03 
6.095176e+03 
6.079849e+03 
6.490483e+03 
7.352898e+03 
7.065472e+03 
4.334643e+03 
3.805501e+03 
7.445639e+03 
5.784535e+03 
4.501389e+03 
8.508075e+03 
1.015390e+04 
5.579940e+03 
1.796780e+03 
5.057719e+03 
1.204234e+04 
5.170230e+03 
4.327217e+03 
1.860053e+03 
8.901166e+03 
7.299943e+03 
2.610134e+03 
9.715616e+03 
3.165742e+03 
1.531851e+03 
5.710863e+03 
1.372710e+04 
6.965640e+03 
1.879780e+02 
1.166135e+03 
8.231735e+03 
9.607404e+03 
4.569894e+03 
9.826977e+02 
2.095826e+03 
4.035410e+03 
4.899290e+03 
1.162654e+03 
7.323436e+01 
2.157767e+02 
2.037936e+02 
4.396763e+02 
3.071507e+03 
3.310735e+03 
6.775811e+02 
6.936191e+03 
9.622354e+03 
3.258763e+03 
3.066312e+03 
8.164691e+02 
1.387228e+04 
2.511952e+04 
2.237878e+04 
1.628649e+04 
1.782523e+04 
1.162939e+04 
3.982886e+03 
1.177769e+04 
1.735703e+04 
1.713014e+04 
9.086520e+03 
2.986822e+03 
3.968322e+03 
8.373198e+03 
4.190652e+03 
6.800588e+02 
5.212817e+03 
1.087253e+04 
1.374936e+04 
1.136045e+04 
7.993660e+03 
2.724773e+03 
2.131838e+03 
5.017761e+03 
3.394335e+03 
7.976910e+02 
9.590693e+03 
1.360292e+04 
9.860544e+03 
4.554800e+03 
2.373797e+03 
3.071739e+03 
1.297106e+04 
1.601565e+04 
1.160479e+04 
5.679833e+03 
7.008085e+03 
5.643760e+03 
3.988229e+02 
2.235602e+03 
1.410173e+03 
1.060261e+04 
2.035687e+04 
2.350673e+04 
2.495473e+04 
1.089197e+04 
1.663043e+03 
6.193170e+03 
9.615795e+03 
2.358694e+04 
2.304962e+04 
1.557503e+04 
6.922155e+03 
3.017976e+03 
4.346092e+02 
2.890767e+03 
7.679208e+03 
1.181777e+04 
1.170708e+04 
6.054132e+03 
1.135700e+04 
1.544727e+04 
1.189447e+03 
1.295609e+04 
1.066689e+03 
2.129640e+04 
1.713341e+04 
1.042785e+04 
2.176496e+04 
6.309776e+03 
2.692155e+02 
3.311467e+02 
1.476337e+03 
1.637132e+03 
4.888841e+03 
5.584885e+03 
3.794090e+03 
3.414018e+03 
4.948925e+03 
4.657674e+03 
4.449169e+03 
4.733703e+03 
8.782215e+02 
5.691533e+03 
8.535710e+03 
8.605686e+03 
6.445486e+03 
6.479912e+03 
6.229221e+03 
2.892267e+03 
1.815518e+03 
3.977948e+03 
9.203831e+03 
1.251480e+04 
1.204074e+04 
1.085610e+04 
1.259140e+04 
1.619251e+04 
9.930895e+03 
2.165802e+03 
7.462563e+03 
1.535934e+03 
4.881272e+03 
7.593316e+03 
4.969098e+03 
6.095176e+03 
6.079849e+03 
6.490483e+03 
7.352898e+03 
7.065472e+03 
4.334643e+03 
3.805501e+03 
7.445639e+03 
5.784535e+03 
4.501389e+03 
8.508075e+03 
1.015390e+04 
5.579940e+03 
1.796780e+03 
5.057719e+03 
1.204234e+04 
5.170230e+03 
4.327217e+03 
1.860053e+03 
8.901166e+03 
7.299943e+03 
2.610134e+03 
9.715616e+03 
3.165742e+03 
1.531851e+03 
5.710863e+03 
1.372710e+04 
6.965640e+03 
1.879780e+02 
1.166135e+03 
8.231735e+03 
9.607404e+03 
4.569894e+03 
9.826977e+02 
2.095826e+03 
4.035410e+03 
4.899290e+03 
1.162654e+03 
7.323436e+01 
2.157767e+02 
2.037936e+02 
4.396763e+02 
3.071507e+03 
3.310735e+03 
6.775811e+02 
6.936191e+03 
9.622354e+03 
3.258763e+03 
3.066312e+03 
8.164691e+02 
1.387228e+04 
2.511952e+04 
2.237878e+04 
1.628649e+04 
1.782523e+04 
1.162939e+04 
3.982886e+03 
1.177769e+04 
1.735703e+04 
1.713014e+04 
9.086520e+03 
2.986822e+03 
3.968322e+03 
8.373198e+03 
4.190652e+03 
6.800588e+02 
5.212817e+03 
1.087253e+04 
1.374936e+04 
1.136045e+04 
7.993660e+03 
2.724773e+03 
2.131838e+03 
5.017761e+03 
3.394335e+03 
7.976910e+02 
9.590693e+03 
1.360292e+04 
9.860544e+03 
4.554800e+03 
2.373797e+03 
3.071739e+03 
1.297106e+04 
1.601565e+04 
1.160479e+04 
5.679833e+03 
7.008085e+03 
5.643760e+03 
3.988229e+02 
2.235602e+03 
1.410173e+03 
1.060261e+04 
2.035687e+04 
2.350673e+04 
2.495473e+04 
1.089197e+04 
1.663043e+03 
6.193170e+03 
9.615795e+03 
2.358694e+04 
2.304962e+04 
1.557503e+04 
6.922155e+03 
3.017976e+03 
4.346092e+02 
2.890767e+03 
7.679208e+03 
1.181777e+04 
1.170708e+04 
6.054132e+03 
1.135700e+04 
1.544727e+04 
1.189447e+03 
1.295609e+04 
1.066689e+03 
2.129640e+04 
1.713341e+04 
1.042785e+04 
2.176496e+04 
6.309776e+03 
