# vtk DataFile Version 2.0
fTan
ASCII
DATASET UNSTRUCTURED_GRID

FIELD FieldData 1
TIME 1 1 double
0.00500000
POINTS 310 float
1.032464729863780e+00 1.994374078621403e+00 0.000000000000000e+00
1.056455462694620e+00 1.991295570029119e+00 0.000000000000000e+00
1.080068863204772e+00 1.987704440623374e+00 0.000000000000000e+00
1.103902717473194e+00 1.984320779568644e+00 0.000000000000000e+00
1.128193656490031e+00 1.981514187101581e+00 0.000000000000000e+00
1.152885854723386e+00 1.978798149245717e+00 0.000000000000000e+00
1.177806176547825e+00 1.975845266308693e+00 0.000000000000000e+00
1.202887882085545e+00 1.972748579346275e+00 0.000000000000000e+00
1.228190428081450e+00 1.969584968363047e+00 0.000000000000000e+00
1.253583085194864e+00 1.966177608604147e+00 0.000000000000000e+00
1.278926334192813e+00 1.962319992224895e+00 0.000000000000000e+00
1.304091170669531e+00 1.957938245052446e+00 0.000000000000000e+00
1.328878595651150e+00 1.952999588885724e+00 0.000000000000000e+00
1.353105849316346e+00 1.947506942432514e+00 0.000000000000000e+00
1.376770395890763e+00 1.941582002100138e+00 0.000000000000000e+00
1.400124790917353e+00 1.935662352470310e+00 0.000000000000000e+00
1.423283427087810e+00 1.930144982209862e+00 0.000000000000000e+00
1.446816613035166e+00 1.925736098918843e+00 0.000000000000000e+00
1.470864562395761e+00 1.923236777685731e+00 0.000000000000000e+00
1.494997732858078e+00 1.923896427397051e+00 0.000000000000000e+00
1.518766813487283e+00 1.928910416133286e+00 0.000000000000000e+00
1.540997057668199e+00 1.939322679016204e+00 0.000000000000000e+00
1.559875972636275e+00 1.954495236655793e+00 0.000000000000000e+00
1.574562262562342e+00 1.973301112842010e+00 0.000000000000000e+00
1.587580415543074e+00 1.993199602754467e+00 0.000000000000000e+00
1.598728707570126e+00 2.012970936371682e+00 0.000000000000000e+00
1.607834728682811e+00 2.033358581852566e+00 0.000000000000000e+00
1.618005472655679e+00 2.052038853037616e+00 0.000000000000000e+00
1.631511068580385e+00 2.066234725398814e+00 0.000000000000000e+00
1.646665302027054e+00 2.077808215601531e+00 0.000000000000000e+00
1.665749862497292e+00 2.086460946156950e+00 0.000000000000000e+00
1.685953126097872e+00 2.083998091664991e+00 0.000000000000000e+00
1.708073654740765e+00 2.075551069733265e+00 0.000000000000000e+00
1.726110865814940e+00 2.072371756090954e+00 0.000000000000000e+00
1.747497595803839e+00 2.069232577831068e+00 0.000000000000000e+00
1.760542949085669e+00 2.077109749875709e+00 0.000000000000000e+00
1.755304681394787e+00 2.091809050032052e+00 0.000000000000000e+00
1.773245295246902e+00 2.095364105843562e+00 0.000000000000000e+00
1.768492632228821e+00 2.106844582411569e+00 0.000000000000000e+00
1.757838269180831e+00 2.119778544555054e+00 0.000000000000000e+00
1.772065147670369e+00 2.133005665210355e+00 0.000000000000000e+00
1.788731734399728e+00 2.153731602246947e+00 0.000000000000000e+00
1.805131370562719e+00 2.169551507937551e+00 0.000000000000000e+00
1.817756677487145e+00 2.178616208534280e+00 0.000000000000000e+00
1.831700122080437e+00 2.189921026100908e+00 0.000000000000000e+00
1.853632829168634e+00 2.200105293648253e+00 0.000000000000000e+00
1.874504184179627e+00 2.208681786954350e+00 0.000000000000000e+00
1.891873125439430e+00 2.196971222773543e+00 0.000000000000000e+00
1.908136021197139e+00 2.189146632420740e+00 0.000000000000000e+00
1.921230659740499e+00 2.192923915925483e+00 0.000000000000000e+00
1.933598104491427e+00 2.174786367750050e+00 0.000000000000000e+00
1.944028076485726e+00 2.159246930895850e+00 0.000000000000000e+00
1.956536232309523e+00 2.147514726610504e+00 0.000000000000000e+00
1.967331438896465e+00 2.134091243354642e+00 0.000000000000000e+00
1.980384936378073e+00 2.117247970967725e+00 0.000000000000000e+00
1.987974876403855e+00 2.095053409418514e+00 0.000000000000000e+00
1.998152509643425e+00 2.074616668970246e+00 0.000000000000000e+00
2.014934492468366e+00 2.064491989676680e+00 0.000000000000000e+00
2.031274259380672e+00 2.056425122998156e+00 0.000000000000000e+00
2.044262813934809e+00 2.041879402454946e+00 0.000000000000000e+00
2.054695189088558e+00 2.020654500425263e+00 0.000000000000000e+00
2.066161468828420e+00 1.998523628532643e+00 0.000000000000000e+00
2.080607156043512e+00 1.977947268381993e+00 0.000000000000000e+00
2.096307271824871e+00 1.959405313671161e+00 0.000000000000000e+00
2.114524727860860e+00 1.942959318809414e+00 0.000000000000000e+00
2.136519449588060e+00 1.930682162751294e+00 0.000000000000000e+00
2.161067486965803e+00 1.924018852377795e+00 0.000000000000000e+00
2.185686051688303e+00 1.922890423921234e+00 0.000000000000000e+00
2.210018302762236e+00 1.925011272928738e+00 0.000000000000000e+00
2.234104594297497e+00 1.929246239407578e+00 0.000000000000000e+00
2.257688448594308e+00 1.934712097804738e+00 0.000000000000000e+00
2.281214455740038e+00 1.940878157782299e+00 0.000000000000000e+00
2.304922120052594e+00 1.947053644029340e+00 0.000000000000000e+00
2.329361828660044e+00 1.952920090502823e+00 0.000000000000000e+00
2.354247033323984e+00 1.958214685349386e+00 0.000000000000000e+00
2.379419165116750e+00 1.962906687267196e+00 0.000000000000000e+00
2.404808290755628e+00 1.966964112757728e+00 0.000000000000000e+00
2.430304355385243e+00 1.970452991777302e+00 0.000000000000000e+00
2.455613797408549e+00 1.973404142772034e+00 0.000000000000000e+00
2.480766833034337e+00 1.975906663757711e+00 0.000000000000000e+00
2.505671990123781e+00 1.978031448222594e+00 0.000000000000000e+00
2.530310805917066e+00 1.979880688712560e+00 0.000000000000000e+00
2.554606422839329e+00 1.981478832745426e+00 0.000000000000000e+00
2.578594159021731e+00 1.982888457566563e+00 0.000000000000000e+00
2.602230890657227e+00 1.984135887716113e+00 0.000000000000000e+00
2.625572148855604e+00 1.985257024773566e+00 0.000000000000000e+00
2.648578718632046e+00 1.986262749519354e+00 0.000000000000000e+00
2.671304661741895e+00 1.987177938216376e+00 0.000000000000000e+00
2.693726315377424e+00 1.988008183141977e+00 0.000000000000000e+00
2.715903213325156e+00 1.988771492760565e+00 0.000000000000000e+00
2.737811816108087e+00 1.989464921154848e+00 0.000000000000000e+00
2.759510344269485e+00 1.990108929297288e+00 0.000000000000000e+00
2.780973458771216e+00 1.990697604832125e+00 0.000000000000000e+00
2.802262535010708e+00 1.991246881940133e+00 0.000000000000000e+00
2.823349754000441e+00 1.991749136708469e+00 0.000000000000000e+00
2.844291997754914e+00 1.992220720460535e+00 0.000000000000000e+00
2.865062352002765e+00 1.992654253507048e+00 0.000000000000000e+00
2.885712854195688e+00 1.993061836936191e+00 0.000000000000000e+00
2.906219750180738e+00 1.993437045965939e+00 0.000000000000000e+00
2.926627697685870e+00 1.993790967073608e+00 0.000000000000000e+00
2.946914730953059e+00 1.994118142954462e+00 0.000000000000000e+00
2.967118036042292e+00 1.994426949477579e+00 0.000000000000000e+00
2.987221406686185e+00 1.994713020822897e+00 0.000000000000000e+00
3.007256299434270e+00 1.994983691635126e+00 0.000000000000000e+00
3.027205893576919e+00 1.995235253080259e+00 0.000000000000000e+00
3.047094983714163e+00 1.995473389794177e+00 0.000000000000000e+00
3.066913750492707e+00 1.995695136523245e+00 0.000000000000000e+00
3.086684289095759e+00 1.995905486157048e+00 0.000000000000000e+00
3.106392368161221e+00 1.996101792197648e+00 0.000000000000000e+00
3.126054547811425e+00 1.996288059748963e+00 0.000000000000000e+00
3.145666191712529e+00 1.996462174476906e+00 0.000000000000000e+00
3.165244079418966e+00 1.996627739001294e+00 0.000000000000000e+00
3.184774649259380e+00 1.996782727817647e+00 0.000000000000000e+00
3.204268935397405e+00 1.996930075207718e+00 0.000000000000000e+00
3.223728491617834e+00 1.997068223597637e+00 0.000000000000000e+00
3.243167456991607e+00 1.997199902276432e+00 0.000000000000000e+00
3.262572026852685e+00 1.997323478275156e+00 0.000000000000000e+00
3.281948167656501e+00 1.997441146182964e+00 0.000000000000000e+00
3.301307350275346e+00 1.997551745695743e+00 0.000000000000000e+00
3.320662559566606e+00 1.997657413011285e+00 0.000000000000000e+00
3.339998447192135e+00 1.997756794081324e+00 0.000000000000000e+00
3.359313470772253e+00 1.997851535564954e+00 0.000000000000000e+00
3.378635505342549e+00 1.997940754177695e+00 0.000000000000000e+00
3.397977881120595e+00 1.998026154026262e+00 0.000000000000000e+00
3.417318021911079e+00 1.998106605582402e+00 0.000000000000000e+00
3.436640244805298e+00 1.998183352353053e+00 0.000000000000000e+00
3.455998686663130e+00 1.998255639664465e+00 0.000000000000000e+00
3.475412786355724e+00 1.998324839891062e+00 0.000000000000000e+00
3.494833488050071e+00 1.998390049351332e+00 0.000000000000000e+00
3.514215975110563e+00 1.998452274965998e+00 0.000000000000000e+00
3.533661650324857e+00 1.998510646794447e+00 0.000000000000000e+00
3.553219234006487e+00 1.998566249648400e+00 0.000000000000000e+00
3.572757931888899e+00 1.998618522876770e+00 0.000000000000000e+00
3.592163919611637e+00 1.998668469255850e+00 0.000000000000000e+00
3.611657545006344e+00 1.998714777764149e+00 0.000000000000000e+00
3.631401299568008e+00 1.998758224736645e+00 0.000000000000000e+00
3.651041858644450e+00 1.998798382692855e+00 0.000000000000000e+00
3.670278772198099e+00 1.998836445510675e+00 0.000000000000000e+00
3.689564108418796e+00 1.998871053643327e+00 0.000000000000000e+00
3.709339351053252e+00 1.998902581629522e+00 0.000000000000000e+00
3.729168619120699e+00 1.998929863289907e+00 0.000000000000000e+00
3.748607893150703e+00 1.998955101459583e+00 0.000000000000000e+00
3.767720357816068e+00 1.998980053276662e+00 0.000000000000000e+00
3.786607325398093e+00 1.999005856839336e+00 0.000000000000000e+00
3.805690836567898e+00 1.999019344063145e+00 0.000000000000000e+00
3.825855177506096e+00 1.999013269787331e+00 0.000000000000000e+00
3.846138805723749e+00 1.998980335851110e+00 0.000000000000000e+00
3.865040317686133e+00 1.998928824013704e+00 0.000000000000000e+00
3.883591906846833e+00 1.998911159313896e+00 0.000000000000000e+00
3.903967777045111e+00 1.998989714440107e+00 0.000000000000000e+00
3.924093745123626e+00 1.999213812680475e+00 0.000000000000000e+00
3.942200626851739e+00 1.999516265370090e+00 0.000000000000000e+00
3.960749963629104e+00 1.999865750892118e+00 0.000000000000000e+00
3.983018052168991e+00 2.000094191037268e+00 0.000000000000000e+00
4.000448096737284e+00 2.000061046699888e+00 0.000000000000000e+00
1.032464729863780e+00 3.005625921378597e+00 0.000000000000000e+00
1.056455462694620e+00 3.008704429970880e+00 0.000000000000000e+00
1.080068863204772e+00 3.012295559376627e+00 0.000000000000000e+00
1.103902717473194e+00 3.015679220431356e+00 0.000000000000000e+00
1.128193656490030e+00 3.018485812898419e+00 0.000000000000000e+00
1.152885854723386e+00 3.021201850754283e+00 0.000000000000000e+00
1.177806176547825e+00 3.024154733691307e+00 0.000000000000000e+00
1.202887882085545e+00 3.027251420653725e+00 0.000000000000000e+00
1.228190428081450e+00 3.030415031636953e+00 0.000000000000000e+00
1.253583085194864e+00 3.033822391395853e+00 0.000000000000000e+00
1.278926334192813e+00 3.037680007775105e+00 0.000000000000000e+00
1.304091170669531e+00 3.042061754947553e+00 0.000000000000000e+00
1.328878595651150e+00 3.047000411114276e+00 0.000000000000000e+00
1.353105849316345e+00 3.052493057567487e+00 0.000000000000000e+00
1.376770395890763e+00 3.058417997899862e+00 0.000000000000000e+00
1.400124790917353e+00 3.064337647529690e+00 0.000000000000000e+00
1.423283427087810e+00 3.069855017790137e+00 0.000000000000000e+00
1.446816613035166e+00 3.074263901081157e+00 0.000000000000000e+00
1.470864562395761e+00 3.076763222314269e+00 0.000000000000000e+00
1.494997732858077e+00 3.076103572602950e+00 0.000000000000000e+00
1.518766813487282e+00 3.071089583866715e+00 0.000000000000000e+00
1.540997057668198e+00 3.060677320983797e+00 0.000000000000000e+00
1.559875972636274e+00 3.045504763344208e+00 0.000000000000000e+00
1.574562262562342e+00 3.026698887157993e+00 0.000000000000000e+00
1.587580415543073e+00 3.006800397245534e+00 0.000000000000000e+00
1.598728707570125e+00 2.987029063628319e+00 0.000000000000000e+00
1.607834728682809e+00 2.966641418147436e+00 0.000000000000000e+00
1.618005472655677e+00 2.947961146962385e+00 0.000000000000000e+00
1.631511068580383e+00 2.933765274601188e+00 0.000000000000000e+00
1.646665302027052e+00 2.922191784398470e+00 0.000000000000000e+00
1.665749862497290e+00 2.913539053843051e+00 0.000000000000000e+00
1.685953126097870e+00 2.916001908335009e+00 0.000000000000000e+00
1.708073654740763e+00 2.924448930266735e+00 0.000000000000000e+00
1.726110865814938e+00 2.927628243909046e+00 0.000000000000000e+00
1.747497595803837e+00 2.930767422168930e+00 0.000000000000000e+00
1.760542949085667e+00 2.922890250124289e+00 0.000000000000000e+00
1.755304681394784e+00 2.908190949967946e+00 0.000000000000000e+00
1.773245295246901e+00 2.904635894156438e+00 0.000000000000000e+00
1.768492632228819e+00 2.893155417588431e+00 0.000000000000000e+00
1.757838269180830e+00 2.880221455444945e+00 0.000000000000000e+00
1.772065147670368e+00 2.866994334789646e+00 0.000000000000000e+00
1.788731734399728e+00 2.846268397753054e+00 0.000000000000000e+00
1.805131370562720e+00 2.830448492062450e+00 0.000000000000000e+00
1.817756677487145e+00 2.821383791465721e+00 0.000000000000000e+00
1.831700122080438e+00 2.810078973899093e+00 0.000000000000000e+00
1.853632829168634e+00 2.799894706351749e+00 0.000000000000000e+00
1.874504184179627e+00 2.791318213045652e+00 0.000000000000000e+00
1.891873125439430e+00 2.803028777226459e+00 0.000000000000000e+00
1.908136021197138e+00 2.810853367579261e+00 0.000000000000000e+00
1.921230659740498e+00 2.807076084074517e+00 0.000000000000000e+00
1.933598104491426e+00 2.825213632249951e+00 0.000000000000000e+00
1.944028076485726e+00 2.840753069104152e+00 0.000000000000000e+00
1.956536232309523e+00 2.852485273389498e+00 0.000000000000000e+00
1.967331438896464e+00 2.865908756645359e+00 0.000000000000000e+00
1.980384936378073e+00 2.882752029032276e+00 0.000000000000000e+00
1.987974876403856e+00 2.904946590581486e+00 0.000000000000000e+00
1.998152509643426e+00 2.925383331029754e+00 0.000000000000000e+00
2.014934492468368e+00 2.935508010323320e+00 0.000000000000000e+00
2.031274259380674e+00 2.943574877001844e+00 0.000000000000000e+00
2.044262813934809e+00 2.958120597545054e+00 0.000000000000000e+00
2.054695189088558e+00 2.979345499574738e+00 0.000000000000000e+00
2.066161468828419e+00 3.001476371467359e+00 0.000000000000000e+00
2.080607156043513e+00 3.022052731618008e+00 0.000000000000000e+00
2.096307271824871e+00 3.040594686328840e+00 0.000000000000000e+00
2.114524727860861e+00 3.057040681190587e+00 0.000000000000000e+00
2.136519449588061e+00 3.069317837248706e+00 0.000000000000000e+00
2.161067486965803e+00 3.075981147622205e+00 0.000000000000000e+00
2.185686051688303e+00 3.077109576078765e+00 0.000000000000000e+00
2.210018302762237e+00 3.074988727071263e+00 0.000000000000000e+00
2.234104594297498e+00 3.070753760592422e+00 0.000000000000000e+00
2.257688448594309e+00 3.065287902195262e+00 0.000000000000000e+00
2.281214455740038e+00 3.059121842217700e+00 0.000000000000000e+00
2.304922120052594e+00 3.052946355970661e+00 0.000000000000000e+00
2.329361828660043e+00 3.047079909497177e+00 0.000000000000000e+00
2.354247033323984e+00 3.041785314650614e+00 0.000000000000000e+00
2.379419165116750e+00 3.037093312732804e+00 0.000000000000000e+00
2.404808290755628e+00 3.033035887242272e+00 0.000000000000000e+00
2.430304355385243e+00 3.029547008222699e+00 0.000000000000000e+00
2.455613797408549e+00 3.026595857227966e+00 0.000000000000000e+00
2.480766833034337e+00 3.024093336242289e+00 0.000000000000000e+00
2.505671990123781e+00 3.021968551777405e+00 0.000000000000000e+00
2.530310805917065e+00 3.020119311287440e+00 0.000000000000000e+00
2.554606422839329e+00 3.018521167254574e+00 0.000000000000000e+00
2.578594159021731e+00 3.017111542433437e+00 0.000000000000000e+00
2.602230890657227e+00 3.015864112283887e+00 0.000000000000000e+00
2.625572148855604e+00 3.014742975226434e+00 0.000000000000000e+00
2.648578718632046e+00 3.013737250480646e+00 0.000000000000000e+00
2.671304661741895e+00 3.012822061783624e+00 0.000000000000000e+00
2.693726315377424e+00 3.011991816858024e+00 0.000000000000000e+00
2.715903213325156e+00 3.011228507239435e+00 0.000000000000000e+00
2.737811816108087e+00 3.010535078845152e+00 0.000000000000000e+00
2.759510344269485e+00 3.009891070702711e+00 0.000000000000000e+00
2.780973458771216e+00 3.009302395167875e+00 0.000000000000000e+00
2.802262535010708e+00 3.008753118059868e+00 0.000000000000000e+00
2.823349754000441e+00 3.008250863291531e+00 0.000000000000000e+00
2.844291997754914e+00 3.007779279539465e+00 0.000000000000000e+00
2.865062352002765e+00 3.007345746492951e+00 0.000000000000000e+00
2.885712854195688e+00 3.006938163063809e+00 0.000000000000000e+00
2.906219750180738e+00 3.006562954034061e+00 0.000000000000000e+00
2.926627697685870e+00 3.006209032926392e+00 0.000000000000000e+00
2.946914730953059e+00 3.005881857045539e+00 0.000000000000000e+00
2.967118036042292e+00 3.005573050522420e+00 0.000000000000000e+00
2.987221406686185e+00 3.005286979177103e+00 0.000000000000000e+00
3.007256299434270e+00 3.005016308364874e+00 0.000000000000000e+00
3.027205893576919e+00 3.004764746919740e+00 0.000000000000000e+00
3.047094983714163e+00 3.004526610205823e+00 0.000000000000000e+00
3.066913750492707e+00 3.004304863476754e+00 0.000000000000000e+00
3.086684289095759e+00 3.004094513842952e+00 0.000000000000000e+00
3.106392368161221e+00 3.003898207802351e+00 0.000000000000000e+00
3.126054547811425e+00 3.003711940251037e+00 0.000000000000000e+00
3.145666191712529e+00 3.003537825523094e+00 0.000000000000000e+00
3.165244079418966e+00 3.003372260998706e+00 0.000000000000000e+00
3.184774649259380e+00 3.003217272182352e+00 0.000000000000000e+00
3.204268935397405e+00 3.003069924792281e+00 0.000000000000000e+00
3.223728491617834e+00 3.002931776402363e+00 0.000000000000000e+00
3.243167456991607e+00 3.002800097723568e+00 0.000000000000000e+00
3.262572026852685e+00 3.002676521724844e+00 0.000000000000000e+00
3.281948167656501e+00 3.002558853817036e+00 0.000000000000000e+00
3.301307350275346e+00 3.002448254304257e+00 0.000000000000000e+00
3.320662559566606e+00 3.002342586988715e+00 0.000000000000000e+00
3.339998447192135e+00 3.002243205918677e+00 0.000000000000000e+00
3.359313470772253e+00 3.002148464435046e+00 0.000000000000000e+00
3.378635505342549e+00 3.002059245822305e+00 0.000000000000000e+00
3.397977881120595e+00 3.001973845973739e+00 0.000000000000000e+00
3.417318021911079e+00 3.001893394417598e+00 0.000000000000000e+00
3.436640244805298e+00 3.001816647646947e+00 0.000000000000000e+00
3.455998686663130e+00 3.001744360335536e+00 0.000000000000000e+00
3.475412786355723e+00 3.001675160108939e+00 0.000000000000000e+00
3.494833488050071e+00 3.001609950648668e+00 0.000000000000000e+00
3.514215975110563e+00 3.001547725034001e+00 0.000000000000000e+00
3.533661650324857e+00 3.001489353205553e+00 0.000000000000000e+00
3.553219234006487e+00 3.001433750351600e+00 0.000000000000000e+00
3.572757931888899e+00 3.001381477123231e+00 0.000000000000000e+00
3.592163919611637e+00 3.001331530744150e+00 0.000000000000000e+00
3.611657545006344e+00 3.001285222235850e+00 0.000000000000000e+00
3.631401299568008e+00 3.001241775263355e+00 0.000000000000000e+00
3.651041858644450e+00 3.001201617307145e+00 0.000000000000000e+00
3.670278772198100e+00 3.001163554489325e+00 0.000000000000000e+00
3.689564108418796e+00 3.001128946356674e+00 0.000000000000000e+00
3.709339351053252e+00 3.001097418370478e+00 0.000000000000000e+00
3.729168619120699e+00 3.001070136710092e+00 0.000000000000000e+00
3.748607893150703e+00 3.001044898540417e+00 0.000000000000000e+00
3.767720357816068e+00 3.001019946723338e+00 0.000000000000000e+00
3.786607325398093e+00 3.000994143160664e+00 0.000000000000000e+00
3.805690836567899e+00 3.000980655936855e+00 0.000000000000000e+00
3.825855177506096e+00 3.000986730212668e+00 0.000000000000000e+00
3.846138805723749e+00 3.001019664148891e+00 0.000000000000000e+00
3.865040317686133e+00 3.001071175986294e+00 0.000000000000000e+00
3.883591906846834e+00 3.001088840686103e+00 0.000000000000000e+00
3.903967777045112e+00 3.001010285559892e+00 0.000000000000000e+00
3.924093745123627e+00 3.000786187319525e+00 0.000000000000000e+00
3.942200626851740e+00 3.000483734629912e+00 0.000000000000000e+00
3.960749963629104e+00 3.000134249107884e+00 0.000000000000000e+00
3.983018052168991e+00 2.999905808962733e+00 0.000000000000000e+00
4.000448096737284e+00 2.999938953300112e+00 0.000000000000000e+00

POINT_DATA   310
SCALARS fTan double
LOOKUP_TABLE default

1.173574e+04 
1.198778e+03 
1.457922e+03 
3.675871e+03 
4.232194e+03 
3.527958e+03 
2.915981e+03 
3.130921e+03 
2.959309e+03 
2.294271e+03 
7.155709e+02 
2.958225e+02 
1.492570e+03 
3.917806e+03 
5.979360e+03 
5.653932e+03 
1.806140e+03 
1.003138e+03 
7.862600e+02 
3.476273e+03 
6.565952e+03 
4.686265e+03 
3.965489e+03 
4.933031e+03 
3.514638e+03 
1.772425e+04 
2.053352e+04 
2.131003e+04 
6.291279e+03 
1.947423e+04 
1.138757e+04 
2.481250e+04 
5.719862e+04 
4.439127e+04 
5.762217e+04 
7.483475e+03 
1.439139e+04 
2.399164e+04 
4.867672e+04 
1.712370e+04 
1.062484e+05 
4.320123e+04 
8.370161e+04 
2.874993e+04 
6.931387e+04 
4.153565e+04 
2.809488e+04 
5.865118e+04 
2.227815e+04 
5.583856e+04 
4.516662e+04 
3.307728e+04 
4.944486e+03 
4.676054e+04 
2.863307e+04 
3.897519e+03 
2.479669e+04 
1.221643e+04 
2.310354e+04 
3.686045e+04 
2.471560e+04 
7.287144e+03 
1.694031e+04 
6.241293e+03 
6.858512e+02 
7.198488e+03 
7.512577e+03 
1.506540e+03 
2.414294e+03 
2.317268e+02 
3.930842e+03 
6.330529e+03 
5.088044e+03 
1.597662e+02 
1.758625e+02 
1.350179e+03 
2.090114e+03 
3.603259e+03 
3.296073e+03 
3.770959e+03 
3.320569e+03 
3.965939e+03 
3.364828e+03 
3.607184e+03 
2.979874e+03 
3.225848e+03 
2.608792e+03 
2.837284e+03 
2.149696e+03 
2.443579e+03 
1.784250e+03 
2.068741e+03 
1.445023e+03 
1.720857e+03 
1.186980e+03 
1.423451e+03 
9.723564e+02 
1.160739e+03 
7.938490e+02 
9.594769e+02 
6.683874e+02 
7.817817e+02 
5.410305e+02 
6.661654e+02 
4.805951e+02 
5.479115e+02 
3.817155e+02 
4.964933e+02 
3.737533e+02 
4.076656e+02 
2.786794e+02 
4.007066e+02 
3.162561e+02 
3.073989e+02 
1.913129e+02 
3.284027e+02 
2.762965e+02 
1.887062e+02 
7.133580e+01 
2.298003e+02 
2.292023e+02 
5.893960e+00 
1.344418e+02 
7.965161e+01 
1.895849e+02 
3.014027e+02 
4.755302e+02 
5.941099e+01 
2.957234e+02 
6.473905e+02 
1.032829e+03 
5.739457e+01 
1.005640e+03 
9.899321e+02 
2.265537e+03 
9.023668e+02 
3.544090e+03 
1.008578e+03 
5.158048e+03 
3.217773e+02 
5.523394e+03 
2.951795e+03 
8.336434e+01 
3.043766e+03 
9.029877e+03 
9.220010e+02 
1.433908e+04 
3.244981e+03 
1.944456e+04 
1.450492e+03 
2.043100e+04 
4.922602e+03 
3.907594e+04 
5.036543e+04 
1.884772e+04 
1.173574e+04 
1.198778e+03 
1.457922e+03 
3.675871e+03 
4.232194e+03 
3.527958e+03 
2.915981e+03 
3.130921e+03 
2.959309e+03 
2.294271e+03 
7.155709e+02 
2.958225e+02 
1.492570e+03 
3.917806e+03 
5.979360e+03 
5.653932e+03 
1.806140e+03 
1.003138e+03 
7.862600e+02 
3.476273e+03 
6.565952e+03 
4.686265e+03 
3.965489e+03 
4.933031e+03 
3.514638e+03 
1.772425e+04 
2.053352e+04 
2.131003e+04 
6.291279e+03 
1.947423e+04 
1.138757e+04 
2.481250e+04 
5.719862e+04 
4.439127e+04 
5.762217e+04 
7.483475e+03 
1.439139e+04 
2.399164e+04 
4.867672e+04 
1.712370e+04 
1.062484e+05 
4.320123e+04 
8.370161e+04 
2.874993e+04 
6.931387e+04 
4.153565e+04 
2.809488e+04 
5.865118e+04 
2.227815e+04 
5.583856e+04 
4.516662e+04 
3.307728e+04 
4.944486e+03 
4.676054e+04 
2.863307e+04 
3.897519e+03 
2.479669e+04 
1.221643e+04 
2.310354e+04 
3.686045e+04 
2.471560e+04 
7.287144e+03 
1.694031e+04 
6.241293e+03 
6.858512e+02 
7.198488e+03 
7.512577e+03 
1.506540e+03 
2.414294e+03 
2.317268e+02 
3.930842e+03 
6.330529e+03 
5.088044e+03 
1.597662e+02 
1.758625e+02 
1.350179e+03 
2.090114e+03 
3.603259e+03 
3.296073e+03 
3.770959e+03 
3.320569e+03 
3.965939e+03 
3.364828e+03 
3.607184e+03 
2.979874e+03 
3.225848e+03 
2.608792e+03 
2.837284e+03 
2.149696e+03 
2.443579e+03 
1.784250e+03 
2.068741e+03 
1.445023e+03 
1.720857e+03 
1.186980e+03 
1.423451e+03 
9.723564e+02 
1.160739e+03 
7.938490e+02 
9.594769e+02 
6.683874e+02 
7.817817e+02 
5.410305e+02 
6.661654e+02 
4.805951e+02 
5.479115e+02 
3.817155e+02 
4.964933e+02 
3.737533e+02 
4.076656e+02 
2.786794e+02 
4.007066e+02 
3.162561e+02 
3.073989e+02 
1.913129e+02 
3.284027e+02 
2.762965e+02 
1.887062e+02 
7.133580e+01 
2.298003e+02 
2.292023e+02 
5.893960e+00 
1.344418e+02 
7.965161e+01 
1.895849e+02 
3.014027e+02 
4.755302e+02 
5.941099e+01 
2.957234e+02 
6.473905e+02 
1.032829e+03 
5.739457e+01 
1.005640e+03 
9.899321e+02 
2.265537e+03 
9.023668e+02 
3.544090e+03 
1.008578e+03 
5.158048e+03 
3.217773e+02 
5.523394e+03 
2.951795e+03 
8.336434e+01 
3.043766e+03 
9.029877e+03 
9.220010e+02 
1.433908e+04 
3.244981e+03 
1.944456e+04 
1.450492e+03 
2.043100e+04 
4.922602e+03 
3.907594e+04 
5.036543e+04 
1.884772e+04 
