# vtk DataFile Version 2.0
fTan
ASCII
DATASET UNSTRUCTURED_GRID

FIELD FieldData 1
TIME 1 1 double
0.21500000
POINTS 310 float
1.005286991241252e+00 2.001497471308286e+00 0.000000000000000e+00
1.024506248856422e+00 2.007544229035346e+00 0.000000000000000e+00
1.043693250487279e+00 2.012964303433283e+00 0.000000000000000e+00
1.063069198417842e+00 2.018836718159881e+00 0.000000000000000e+00
1.081674270692944e+00 2.026133944024718e+00 0.000000000000000e+00
1.100752112806693e+00 2.032931636293033e+00 0.000000000000000e+00
1.119625317135975e+00 2.039345568737004e+00 0.000000000000000e+00
1.138314637936418e+00 2.047141908033042e+00 0.000000000000000e+00
1.157102351961703e+00 2.053988861568470e+00 0.000000000000000e+00
1.175399393674363e+00 2.062706651358131e+00 0.000000000000000e+00
1.194251634124166e+00 2.069558196891649e+00 0.000000000000000e+00
1.212259331313185e+00 2.078590048751423e+00 0.000000000000000e+00
1.230928530260157e+00 2.086129916793335e+00 0.000000000000000e+00
1.249073813691068e+00 2.094840197800175e+00 0.000000000000000e+00
1.267878699208541e+00 2.102132647626887e+00 0.000000000000000e+00
1.286013704406257e+00 2.110599543332456e+00 0.000000000000000e+00
1.304702248023551e+00 2.118441954171737e+00 0.000000000000000e+00
1.323214201919458e+00 2.125829958993052e+00 0.000000000000000e+00
1.341768643619330e+00 2.133780647293388e+00 0.000000000000000e+00
1.360468416678583e+00 2.141048491827509e+00 0.000000000000000e+00
1.378734887301283e+00 2.149348664450426e+00 0.000000000000000e+00
1.397058364174731e+00 2.157560813874760e+00 0.000000000000000e+00
1.415115057313372e+00 2.166396954712105e+00 0.000000000000000e+00
1.432917232137695e+00 2.175150030346040e+00 0.000000000000000e+00
1.451184391787733e+00 2.184347827967231e+00 0.000000000000000e+00
1.468282018637768e+00 2.193744049534593e+00 0.000000000000000e+00
1.485966319227363e+00 2.204017005591786e+00 0.000000000000000e+00
1.502739593195492e+00 2.214321784179192e+00 0.000000000000000e+00
1.520340455034274e+00 2.224491167440268e+00 0.000000000000000e+00
1.538082919334350e+00 2.233530115842348e+00 0.000000000000000e+00
1.555117767557381e+00 2.244188064109329e+00 0.000000000000000e+00
1.573365017353916e+00 2.252551858099508e+00 0.000000000000000e+00
1.591081094444129e+00 2.261590249893470e+00 0.000000000000000e+00
1.608982201398230e+00 2.270660277052122e+00 0.000000000000000e+00
1.627760892553411e+00 2.278144476600998e+00 0.000000000000000e+00
1.646263699039213e+00 2.285590899986293e+00 0.000000000000000e+00
1.664039685044985e+00 2.295175669999386e+00 0.000000000000000e+00
1.683853742480535e+00 2.298361257076424e+00 0.000000000000000e+00
1.701981656955199e+00 2.307312562519158e+00 0.000000000000000e+00
1.720860519486369e+00 2.314071975163250e+00 0.000000000000000e+00
1.740597542454731e+00 2.319012475433140e+00 0.000000000000000e+00
1.759473311792750e+00 2.325323261574258e+00 0.000000000000000e+00
1.779218562489240e+00 2.330830565600917e+00 0.000000000000000e+00
1.798667688247860e+00 2.335545517135098e+00 0.000000000000000e+00
1.818464043776495e+00 2.340327975365258e+00 0.000000000000000e+00
1.838668964473408e+00 2.342891248882438e+00 0.000000000000000e+00
1.857187137441236e+00 2.350384734390748e+00 0.000000000000000e+00
1.877877418192204e+00 2.351841747392565e+00 0.000000000000000e+00
1.897575451707916e+00 2.355089378600271e+00 0.000000000000000e+00
1.918011880769934e+00 2.357683176516536e+00 0.000000000000000e+00
1.937750012268389e+00 2.361430102391550e+00 0.000000000000000e+00
1.958379602908402e+00 2.362372555652569e+00 0.000000000000000e+00
1.978493020007631e+00 2.364557010795795e+00 0.000000000000000e+00
1.998863613632793e+00 2.366568908038992e+00 0.000000000000000e+00
2.018858398149086e+00 2.369050181738874e+00 0.000000000000000e+00
2.039478466027283e+00 2.367747530540326e+00 0.000000000000000e+00
2.059795371297916e+00 2.367774104511208e+00 0.000000000000000e+00
2.079712006258411e+00 2.370529668736646e+00 0.000000000000000e+00
2.100412536729492e+00 2.369162236130804e+00 0.000000000000000e+00
2.120504390421214e+00 2.367540513080279e+00 0.000000000000000e+00
2.141158238648008e+00 2.367830528123188e+00 0.000000000000000e+00
2.161171845983238e+00 2.369506592901952e+00 0.000000000000000e+00
2.181998289999613e+00 2.370255771704029e+00 0.000000000000000e+00
2.202036295012155e+00 2.369294235461589e+00 0.000000000000000e+00
2.222414513702277e+00 2.372641247503416e+00 0.000000000000000e+00
2.242556184136406e+00 2.376961310429278e+00 0.000000000000000e+00
2.262744881018780e+00 2.379099046652262e+00 0.000000000000000e+00
2.282713048656152e+00 2.382412750983432e+00 0.000000000000000e+00
2.302759560051641e+00 2.387291160857108e+00 0.000000000000000e+00
2.322664455471780e+00 2.392720573656987e+00 0.000000000000000e+00
2.342783463035381e+00 2.394915914687732e+00 0.000000000000000e+00
2.362790381382552e+00 2.396142805879523e+00 0.000000000000000e+00
2.383405743270417e+00 2.398464164282431e+00 0.000000000000000e+00
2.404028296447961e+00 2.399281033171781e+00 0.000000000000000e+00
2.423720161705639e+00 2.396977365018939e+00 0.000000000000000e+00
2.444015562629309e+00 2.393448656654491e+00 0.000000000000000e+00
2.464589862036871e+00 2.391210518169071e+00 0.000000000000000e+00
2.484900111630842e+00 2.389482672444189e+00 0.000000000000000e+00
2.505170478896960e+00 2.387055130073422e+00 0.000000000000000e+00
2.525197670808816e+00 2.384532966143810e+00 0.000000000000000e+00
2.545886389960475e+00 2.383267377629963e+00 0.000000000000000e+00
2.566240441080610e+00 2.384502134825685e+00 0.000000000000000e+00
2.586549559643258e+00 2.383757140385133e+00 0.000000000000000e+00
2.607264661075848e+00 2.382092496737069e+00 0.000000000000000e+00
2.627587678302447e+00 2.381191814644462e+00 0.000000000000000e+00
2.647574717932753e+00 2.376941873006524e+00 0.000000000000000e+00
2.667490499882158e+00 2.372166532190190e+00 0.000000000000000e+00
2.687803518248531e+00 2.369470628843384e+00 0.000000000000000e+00
2.708028594447360e+00 2.366462911553548e+00 0.000000000000000e+00
2.727112867112643e+00 2.360141878170546e+00 0.000000000000000e+00
2.746991953155206e+00 2.354571393849460e+00 0.000000000000000e+00
2.766714708321640e+00 2.350158481920963e+00 0.000000000000000e+00
2.786652161591602e+00 2.346293134900329e+00 0.000000000000000e+00
2.806053815215073e+00 2.340696877375281e+00 0.000000000000000e+00
2.825184872232057e+00 2.332873785535143e+00 0.000000000000000e+00
2.844472731049810e+00 2.327640473238683e+00 0.000000000000000e+00
2.864478038086269e+00 2.323708968685828e+00 0.000000000000000e+00
2.883870625934675e+00 2.316834111985004e+00 0.000000000000000e+00
2.902705367591069e+00 2.309276294390554e+00 0.000000000000000e+00
2.921477495640474e+00 2.301890737110951e+00 0.000000000000000e+00
2.940996496917140e+00 2.296497179396871e+00 0.000000000000000e+00
2.960307753965016e+00 2.290928626630163e+00 0.000000000000000e+00
2.979172420181055e+00 2.282040634033506e+00 0.000000000000000e+00
2.997235700772956e+00 2.274211722161454e+00 0.000000000000000e+00
3.016700530100622e+00 2.267383790477568e+00 0.000000000000000e+00
3.035634443492387e+00 2.262078134500556e+00 0.000000000000000e+00
3.054683713890493e+00 2.255066146787010e+00 0.000000000000000e+00
3.073032243539922e+00 2.246019019158159e+00 0.000000000000000e+00
3.092060400041442e+00 2.239082730764121e+00 0.000000000000000e+00
3.110917648045796e+00 2.232273536283926e+00 0.000000000000000e+00
3.129757188680342e+00 2.223924794070642e+00 0.000000000000000e+00
3.147979553794705e+00 2.217590912357199e+00 0.000000000000000e+00
3.167591772025010e+00 2.210322362187612e+00 0.000000000000000e+00
3.187069591924317e+00 2.204729409050898e+00 0.000000000000000e+00
3.206063032256494e+00 2.198717066957557e+00 0.000000000000000e+00
3.225304791376552e+00 2.190935829796977e+00 0.000000000000000e+00
3.244068030122252e+00 2.184469826234532e+00 0.000000000000000e+00
3.264003869221892e+00 2.178239120628467e+00 0.000000000000000e+00
3.282587427795581e+00 2.172583474223973e+00 0.000000000000000e+00
3.302139771752458e+00 2.165496390254112e+00 0.000000000000000e+00
3.321468055690261e+00 2.159013387452152e+00 0.000000000000000e+00
3.341226306655540e+00 2.153798967989883e+00 0.000000000000000e+00
3.361021639177087e+00 2.149724966841573e+00 0.000000000000000e+00
3.381055043624569e+00 2.144638839909599e+00 0.000000000000000e+00
3.400691040078952e+00 2.138864248834641e+00 0.000000000000000e+00
3.420713628129572e+00 2.133610886479887e+00 0.000000000000000e+00
3.440408767513180e+00 2.130042662008856e+00 0.000000000000000e+00
3.460791055335448e+00 2.125618588933989e+00 0.000000000000000e+00
3.480588413421338e+00 2.119236293613419e+00 0.000000000000000e+00
3.500409069140737e+00 2.115566863085119e+00 0.000000000000000e+00
3.520083595636213e+00 2.110862160388161e+00 0.000000000000000e+00
3.540563366218478e+00 2.105942809977031e+00 0.000000000000000e+00
3.559631488362743e+00 2.099316678604171e+00 0.000000000000000e+00
3.579414163617445e+00 2.093194719887101e+00 0.000000000000000e+00
3.599435728898241e+00 2.088990862670394e+00 0.000000000000000e+00
3.618145288451991e+00 2.081286498279593e+00 0.000000000000000e+00
3.637734884113530e+00 2.075135546545532e+00 0.000000000000000e+00
3.657393540556528e+00 2.068370905701058e+00 0.000000000000000e+00
3.675945928434332e+00 2.060412379952732e+00 0.000000000000000e+00
3.694810262459708e+00 2.051850120989891e+00 0.000000000000000e+00
3.713227074936016e+00 2.043518734073924e+00 0.000000000000000e+00
3.732331657563492e+00 2.035507955209094e+00 0.000000000000000e+00
3.750954769869628e+00 2.027199252024166e+00 0.000000000000000e+00
3.769561242765237e+00 2.019630110531294e+00 0.000000000000000e+00
3.789818419756852e+00 2.013734422208061e+00 0.000000000000000e+00
3.808836901560254e+00 2.007763005080794e+00 0.000000000000000e+00
3.827833291197452e+00 2.000867320845070e+00 0.000000000000000e+00
3.848629526068359e+00 1.998325471431234e+00 0.000000000000000e+00
3.869017307453573e+00 1.996571985424042e+00 0.000000000000000e+00
3.888738377478284e+00 1.994386069497095e+00 0.000000000000000e+00
3.909398136635025e+00 1.992908828220792e+00 0.000000000000000e+00
3.930110100816460e+00 1.994492831908482e+00 0.000000000000000e+00
3.950534175646045e+00 1.997522742147066e+00 0.000000000000000e+00
3.970505596741014e+00 1.995758908909723e+00 0.000000000000000e+00
3.991108553720677e+00 1.998516073667611e+00 0.000000000000000e+00
1.005286991241252e+00 2.998502528691713e+00 0.000000000000000e+00
1.024506248856422e+00 2.992455770964652e+00 0.000000000000000e+00
1.043693250487279e+00 2.987035696566717e+00 0.000000000000000e+00
1.063069198417842e+00 2.981163281840117e+00 0.000000000000000e+00
1.081674270692941e+00 2.973866055975278e+00 0.000000000000000e+00
1.100752112806692e+00 2.967068363706964e+00 0.000000000000000e+00
1.119625317135972e+00 2.960654431262997e+00 0.000000000000000e+00
1.138314637936419e+00 2.952858091966962e+00 0.000000000000000e+00
1.157102351961707e+00 2.946011138431545e+00 0.000000000000000e+00
1.175399393674367e+00 2.937293348641886e+00 0.000000000000000e+00
1.194251634124171e+00 2.930441803108369e+00 0.000000000000000e+00
1.212259331313188e+00 2.921409951248596e+00 0.000000000000000e+00
1.230928530260165e+00 2.913870083206693e+00 0.000000000000000e+00
1.249073813691076e+00 2.905159802199857e+00 0.000000000000000e+00
1.267878699208549e+00 2.897867352373143e+00 0.000000000000000e+00
1.286013704406267e+00 2.889400456667581e+00 0.000000000000000e+00
1.304702248023562e+00 2.881558045828303e+00 0.000000000000000e+00
1.323214201919469e+00 2.874170041006988e+00 0.000000000000000e+00
1.341768643619342e+00 2.866219352706656e+00 0.000000000000000e+00
1.360468416678596e+00 2.858951508172539e+00 0.000000000000000e+00
1.378734887301303e+00 2.850651335549632e+00 0.000000000000000e+00
1.397058364174744e+00 2.842439186125294e+00 0.000000000000000e+00
1.415115057313395e+00 2.833603045287958e+00 0.000000000000000e+00
1.432917232137710e+00 2.824849969654021e+00 0.000000000000000e+00
1.451184391787751e+00 2.815652172032829e+00 0.000000000000000e+00
1.468282018637790e+00 2.806255950465476e+00 0.000000000000000e+00
1.485966319227380e+00 2.795982994408278e+00 0.000000000000000e+00
1.502739593195507e+00 2.785678215820866e+00 0.000000000000000e+00
1.520340455034287e+00 2.775508832559787e+00 0.000000000000000e+00
1.538082919334362e+00 2.766469884157705e+00 0.000000000000000e+00
1.555117767557390e+00 2.755811935890720e+00 0.000000000000000e+00
1.573365017353925e+00 2.747448141900543e+00 0.000000000000000e+00
1.591081094444137e+00 2.738409750106574e+00 0.000000000000000e+00
1.608982201398234e+00 2.729339722947919e+00 0.000000000000000e+00
1.627760892553414e+00 2.721855523399036e+00 0.000000000000000e+00
1.646263699039216e+00 2.714409100013742e+00 0.000000000000000e+00
1.664039685044986e+00 2.704824330000645e+00 0.000000000000000e+00
1.683853742480537e+00 2.701638742923607e+00 0.000000000000000e+00
1.701981656955195e+00 2.692687437480864e+00 0.000000000000000e+00
1.720860519486366e+00 2.685928024836770e+00 0.000000000000000e+00
1.740597542454727e+00 2.680987524566882e+00 0.000000000000000e+00
1.759473311792745e+00 2.674676738425761e+00 0.000000000000000e+00
1.779218562489236e+00 2.669169434399103e+00 0.000000000000000e+00
1.798667688247855e+00 2.664454482864922e+00 0.000000000000000e+00
1.818464043776489e+00 2.659672024634756e+00 0.000000000000000e+00
1.838668964473403e+00 2.657108751117584e+00 0.000000000000000e+00
1.857187137441227e+00 2.649615265609264e+00 0.000000000000000e+00
1.877877418192193e+00 2.648158252607443e+00 0.000000000000000e+00
1.897575451707906e+00 2.644910621399744e+00 0.000000000000000e+00
1.918011880769925e+00 2.642316823483480e+00 0.000000000000000e+00
1.937750012268377e+00 2.638569897608458e+00 0.000000000000000e+00
1.958379602908392e+00 2.637627444347439e+00 0.000000000000000e+00
1.978493020007619e+00 2.635442989204213e+00 0.000000000000000e+00
1.998863613632781e+00 2.633431091961012e+00 0.000000000000000e+00
2.018858398149075e+00 2.630949818261136e+00 0.000000000000000e+00
2.039478466027272e+00 2.632252469459679e+00 0.000000000000000e+00
2.059795371297905e+00 2.632225895488797e+00 0.000000000000000e+00
2.079712006258402e+00 2.629470331263365e+00 0.000000000000000e+00
2.100412536729482e+00 2.630837763869198e+00 0.000000000000000e+00
2.120504390421205e+00 2.632459486919732e+00 0.000000000000000e+00
2.141158238647995e+00 2.632169471876815e+00 0.000000000000000e+00
2.161171845983231e+00 2.630493407098057e+00 0.000000000000000e+00
2.181998289999602e+00 2.629744228295986e+00 0.000000000000000e+00
2.202036295012147e+00 2.630705764538415e+00 0.000000000000000e+00
2.222414513702267e+00 2.627358752496579e+00 0.000000000000000e+00
2.242556184136399e+00 2.623038689570725e+00 0.000000000000000e+00
2.262744881018767e+00 2.620900953347749e+00 0.000000000000000e+00
2.282713048656142e+00 2.617587249016575e+00 0.000000000000000e+00
2.302759560051629e+00 2.612708839142894e+00 0.000000000000000e+00
2.322664455471767e+00 2.607279426343016e+00 0.000000000000000e+00
2.342783463035369e+00 2.605084085312278e+00 0.000000000000000e+00
2.362790381382536e+00 2.603857194120492e+00 0.000000000000000e+00
2.383405743270410e+00 2.601535835717580e+00 0.000000000000000e+00
2.404028296447943e+00 2.600718966828237e+00 0.000000000000000e+00
2.423720161705632e+00 2.603022634981072e+00 0.000000000000000e+00
2.444015562629297e+00 2.606551343345522e+00 0.000000000000000e+00
2.464589862036860e+00 2.608789481830948e+00 0.000000000000000e+00
2.484900111630832e+00 2.610517327555827e+00 0.000000000000000e+00
2.505170478896950e+00 2.612944869926595e+00 0.000000000000000e+00
2.525197670808805e+00 2.615467033856209e+00 0.000000000000000e+00
2.545886389960466e+00 2.616732622370053e+00 0.000000000000000e+00
2.566240441080601e+00 2.615497865174328e+00 0.000000000000000e+00
2.586549559643247e+00 2.616242859614885e+00 0.000000000000000e+00
2.607264661075839e+00 2.617907503262944e+00 0.000000000000000e+00
2.627587678302437e+00 2.618808185355559e+00 0.000000000000000e+00
2.647574717932745e+00 2.623058126993493e+00 0.000000000000000e+00
2.667490499882149e+00 2.627833467809822e+00 0.000000000000000e+00
2.687803518248523e+00 2.630529371156632e+00 0.000000000000000e+00
2.708028594447353e+00 2.633537088446483e+00 0.000000000000000e+00
2.727112867112625e+00 2.639858121829485e+00 0.000000000000000e+00
2.746991953155195e+00 2.645428606150575e+00 0.000000000000000e+00
2.766714708321629e+00 2.649841518079051e+00 0.000000000000000e+00
2.786652161591592e+00 2.653706865099673e+00 0.000000000000000e+00
2.806053815215062e+00 2.659303122624745e+00 0.000000000000000e+00
2.825184872232041e+00 2.667126214464885e+00 0.000000000000000e+00
2.844472731049796e+00 2.672359526761336e+00 0.000000000000000e+00
2.864478038086261e+00 2.676291031314181e+00 0.000000000000000e+00
2.883870625934657e+00 2.683165888015012e+00 0.000000000000000e+00
2.902705367591059e+00 2.690723705609471e+00 0.000000000000000e+00
2.921477495640458e+00 2.698109262889059e+00 0.000000000000000e+00
2.940996496917125e+00 2.703502820603140e+00 0.000000000000000e+00
2.960307753965001e+00 2.709071373369871e+00 0.000000000000000e+00
2.979172420181037e+00 2.717959365966537e+00 0.000000000000000e+00
2.997235700772936e+00 2.725788277838572e+00 0.000000000000000e+00
3.016700530100605e+00 2.732616209522457e+00 0.000000000000000e+00
3.035634443492372e+00 2.737921865499470e+00 0.000000000000000e+00
3.054683713890474e+00 2.744933853213026e+00 0.000000000000000e+00
3.073032243539905e+00 2.753980980841873e+00 0.000000000000000e+00
3.092060400041427e+00 2.760917269235895e+00 0.000000000000000e+00
3.110917648045785e+00 2.767726463716094e+00 0.000000000000000e+00
3.129757188680322e+00 2.776075205929384e+00 0.000000000000000e+00
3.147979553794692e+00 2.782409087642832e+00 0.000000000000000e+00
3.167591772024992e+00 2.789677637812420e+00 0.000000000000000e+00
3.187069591924301e+00 2.795270590949133e+00 0.000000000000000e+00
3.206063032256477e+00 2.801282933042469e+00 0.000000000000000e+00
3.225304791376538e+00 2.809064170203052e+00 0.000000000000000e+00
3.244068030122240e+00 2.815530173765477e+00 0.000000000000000e+00
3.264003869221882e+00 2.821760879371542e+00 0.000000000000000e+00
3.282587427795573e+00 2.827416525776036e+00 0.000000000000000e+00
3.302139771752448e+00 2.834503609745906e+00 0.000000000000000e+00
3.321468055690250e+00 2.840986612547844e+00 0.000000000000000e+00
3.341226306655539e+00 2.846201032010114e+00 0.000000000000000e+00
3.361021639177079e+00 2.850275033158421e+00 0.000000000000000e+00
3.381055043624563e+00 2.855361160090411e+00 0.000000000000000e+00
3.400691040078941e+00 2.861135751165372e+00 0.000000000000000e+00
3.420713628129565e+00 2.866389113520118e+00 0.000000000000000e+00
3.440408767513168e+00 2.869957337991150e+00 0.000000000000000e+00
3.460791055335439e+00 2.874381411066026e+00 0.000000000000000e+00
3.480588413421326e+00 2.880763706386597e+00 0.000000000000000e+00
3.500409069140725e+00 2.884433136914898e+00 0.000000000000000e+00
3.520083595636206e+00 2.889137839611863e+00 0.000000000000000e+00
3.540563366218463e+00 2.894057190022989e+00 0.000000000000000e+00
3.559631488362734e+00 2.900683321395849e+00 0.000000000000000e+00
3.579414163617436e+00 2.906805280112908e+00 0.000000000000000e+00
3.599435728898233e+00 2.911009137329626e+00 0.000000000000000e+00
3.618145288451978e+00 2.918713501720433e+00 0.000000000000000e+00
3.637734884113522e+00 2.924864453454494e+00 0.000000000000000e+00
3.657393540556517e+00 2.931629094298967e+00 0.000000000000000e+00
3.675945928434320e+00 2.939587620047293e+00 0.000000000000000e+00
3.694810262459704e+00 2.948149879010129e+00 0.000000000000000e+00
3.713227074936004e+00 2.956481265926096e+00 0.000000000000000e+00
3.732331657563487e+00 2.964492044790933e+00 0.000000000000000e+00
3.750954769869615e+00 2.972800747975854e+00 0.000000000000000e+00
3.769561242765237e+00 2.980369889468724e+00 0.000000000000000e+00
3.789818419756843e+00 2.986265577791952e+00 0.000000000000000e+00
3.808836901560257e+00 2.992236994919213e+00 0.000000000000000e+00
3.827833291197447e+00 2.999132679154940e+00 0.000000000000000e+00
3.848629526068359e+00 3.001674528568775e+00 0.000000000000000e+00
3.869017307453568e+00 3.003428014575967e+00 0.000000000000000e+00
3.888738377478285e+00 3.005613930502910e+00 0.000000000000000e+00
3.909398136635021e+00 3.007091171779206e+00 0.000000000000000e+00
3.930110100816459e+00 3.005507168091522e+00 0.000000000000000e+00
3.950534175646042e+00 3.002477257852936e+00 0.000000000000000e+00
3.970505596741013e+00 3.004241091090277e+00 0.000000000000000e+00
3.991108553720676e+00 3.001483926332390e+00 0.000000000000000e+00

POINT_DATA   310
SCALARS fTan double
LOOKUP_TABLE default

5.752168e+02 
2.094035e+03 
3.093924e+03 
2.594929e+03 
2.678772e+03 
3.265397e+03 
3.057441e+03 
2.475407e+03 
2.756163e+03 
2.002339e+03 
8.805817e+02 
1.079423e+02 
1.353981e+02 
4.442552e+02 
1.566373e+03 
2.672963e+03 
3.397135e+03 
2.524876e+03 
1.226921e+03 
1.295009e+01 
2.602545e+02 
1.777146e+02 
2.566825e+03 
6.137183e+03 
9.403784e+03 
9.297813e+03 
7.546275e+03 
6.339186e+03 
3.997669e+03 
1.715351e+03 
1.599153e+02 
1.982234e+03 
1.919028e+03 
1.558971e+03 
2.964253e+03 
2.422606e+03 
1.048474e+03 
1.286911e+03 
1.524912e+03 
2.914326e+03 
4.464574e+03 
6.091190e+03 
4.859746e+03 
3.511504e+03 
1.016243e+02 
3.971233e+03 
7.774032e+03 
7.737894e+03 
6.209893e+03 
4.871434e+03 
5.505450e+03 
4.127552e+03 
2.247005e+03 
2.898622e+03 
4.945566e+03 
3.432796e+03 
2.102805e+03 
6.223742e+03 
5.622846e+03 
4.882377e+03 
5.973456e+03 
7.506848e+03 
7.566257e+03 
5.796121e+03 
6.437839e+02 
2.919011e+03 
4.729576e+02 
4.028157e+03 
7.167187e+01 
3.776792e+03 
1.950562e+03 
7.038518e+03 
9.978765e+02 
8.252315e+03 
7.961904e+03 
1.201056e+03 
3.294213e+03 
5.453168e+01 
2.249860e+03 
5.542415e+03 
3.528843e+03 
6.559639e+02 
4.676373e+03 
4.192132e+03 
8.546447e+02 
5.014856e+02 
3.617280e+02 
3.027596e+02 
3.502776e+03 
5.517241e+03 
4.848096e+03 
6.407044e+02 
6.922245e+02 
4.773046e+03 
6.986291e+03 
4.198914e+03 
1.834799e+03 
2.891933e+03 
1.404017e+03 
5.890469e+02 
1.132425e+03 
7.569163e+03 
1.182961e+04 
9.442860e+03 
9.828846e+03 
5.949418e+03 
1.800665e+03 
1.712478e+03 
2.143088e+03 
5.321770e+03 
1.338148e+04 
1.620345e+04 
6.207899e+03 
3.423377e+03 
8.105736e+03 
9.133108e+03 
1.038520e+04 
1.452414e+04 
1.366703e+04 
4.106577e+03 
6.111837e+02 
2.069362e+03 
4.613745e+03 
2.079128e+03 
2.286858e+03 
6.844801e+03 
8.482465e+03 
6.743819e+02 
6.181871e+03 
5.612691e+02 
8.517242e+03 
8.917472e+03 
5.400454e+03 
2.379429e+03 
2.453722e+03 
3.241126e+03 
2.385104e+03 
6.075108e+03 
4.957545e+03 
5.245594e+03 
4.922703e+03 
3.016427e+03 
2.821868e+03 
1.032403e+04 
1.202751e+04 
2.310822e+03 
7.859885e+03 
4.569716e+03 
6.036117e+03 
8.881087e+03 
4.362684e+02 
1.614072e+03 
5.931572e+03 
6.934207e+03 
3.033167e+03 
5.752168e+02 
2.094035e+03 
3.093924e+03 
2.594929e+03 
2.678772e+03 
3.265397e+03 
3.057441e+03 
2.475407e+03 
2.756163e+03 
2.002339e+03 
8.805817e+02 
1.079423e+02 
1.353981e+02 
4.442552e+02 
1.566373e+03 
2.672963e+03 
3.397135e+03 
2.524876e+03 
1.226921e+03 
1.295009e+01 
2.602545e+02 
1.777146e+02 
2.566825e+03 
6.137183e+03 
9.403784e+03 
9.297813e+03 
7.546275e+03 
6.339186e+03 
3.997669e+03 
1.715351e+03 
1.599153e+02 
1.982234e+03 
1.919028e+03 
1.558971e+03 
2.964253e+03 
2.422606e+03 
1.048474e+03 
1.286911e+03 
1.524912e+03 
2.914326e+03 
4.464574e+03 
6.091190e+03 
4.859746e+03 
3.511504e+03 
1.016243e+02 
3.971233e+03 
7.774032e+03 
7.737894e+03 
6.209893e+03 
4.871434e+03 
5.505450e+03 
4.127552e+03 
2.247005e+03 
2.898622e+03 
4.945566e+03 
3.432796e+03 
2.102805e+03 
6.223742e+03 
5.622846e+03 
4.882377e+03 
5.973456e+03 
7.506848e+03 
7.566257e+03 
5.796121e+03 
6.437839e+02 
2.919011e+03 
4.729576e+02 
4.028157e+03 
7.167187e+01 
3.776792e+03 
1.950562e+03 
7.038518e+03 
9.978765e+02 
8.252315e+03 
7.961904e+03 
1.201056e+03 
3.294213e+03 
5.453168e+01 
2.249860e+03 
5.542415e+03 
3.528843e+03 
6.559639e+02 
4.676373e+03 
4.192132e+03 
8.546447e+02 
5.014856e+02 
3.617280e+02 
3.027596e+02 
3.502776e+03 
5.517241e+03 
4.848096e+03 
6.407044e+02 
6.922245e+02 
4.773046e+03 
6.986291e+03 
4.198914e+03 
1.834799e+03 
2.891933e+03 
1.404017e+03 
5.890469e+02 
1.132425e+03 
7.569163e+03 
1.182961e+04 
9.442860e+03 
9.828846e+03 
5.949418e+03 
1.800665e+03 
1.712478e+03 
2.143088e+03 
5.321770e+03 
1.338148e+04 
1.620345e+04 
6.207899e+03 
3.423377e+03 
8.105736e+03 
9.133108e+03 
1.038520e+04 
1.452414e+04 
1.366703e+04 
4.106577e+03 
6.111837e+02 
2.069362e+03 
4.613745e+03 
2.079128e+03 
2.286858e+03 
6.844801e+03 
8.482465e+03 
6.743819e+02 
6.181871e+03 
5.612691e+02 
8.517242e+03 
8.917472e+03 
5.400454e+03 
2.379429e+03 
2.453722e+03 
3.241126e+03 
2.385104e+03 
6.075108e+03 
4.957545e+03 
5.245594e+03 
4.922703e+03 
3.016427e+03 
2.821868e+03 
1.032403e+04 
1.202751e+04 
2.310822e+03 
7.859885e+03 
4.569716e+03 
6.036117e+03 
8.881087e+03 
4.362684e+02 
1.614072e+03 
5.931572e+03 
6.934207e+03 
3.033167e+03 
