# vtk DataFile Version 2.0
fTan
ASCII
DATASET UNSTRUCTURED_GRID

FIELD FieldData 1
TIME 1 1 double
0.04500000
POINTS 310 float
1.020951476529663e+00 2.026746496069181e+00 0.000000000000000e+00
1.037127701086186e+00 2.042772174280555e+00 0.000000000000000e+00
1.053038110171020e+00 2.058281789314982e+00 0.000000000000000e+00
1.070950219594453e+00 2.071969100105877e+00 0.000000000000000e+00
1.087755448484202e+00 2.086712575845318e+00 0.000000000000000e+00
1.107580828767864e+00 2.099063445735514e+00 0.000000000000000e+00
1.126312436205781e+00 2.109037421721482e+00 0.000000000000000e+00
1.147193396346801e+00 2.118926402943309e+00 0.000000000000000e+00
1.166115658785409e+00 2.126700145380879e+00 0.000000000000000e+00
1.187680601806088e+00 2.132483970311698e+00 0.000000000000000e+00
1.210033490349773e+00 2.134422636805141e+00 0.000000000000000e+00
1.231728773595814e+00 2.136887007181500e+00 0.000000000000000e+00
1.253284539021652e+00 2.140791030752842e+00 0.000000000000000e+00
1.275137740299482e+00 2.144762924449229e+00 0.000000000000000e+00
1.297053493270363e+00 2.146279672184579e+00 0.000000000000000e+00
1.318039561603227e+00 2.148633481638446e+00 0.000000000000000e+00
1.340432941957134e+00 2.150118712180336e+00 0.000000000000000e+00
1.361902795569707e+00 2.150314540167298e+00 0.000000000000000e+00
1.384098138181585e+00 2.151484770012509e+00 0.000000000000000e+00
1.406443327234481e+00 2.153158124746317e+00 0.000000000000000e+00
1.428637284410503e+00 2.154943726857504e+00 0.000000000000000e+00
1.451187891314457e+00 2.155916123275418e+00 0.000000000000000e+00
1.473995389198378e+00 2.158342375026055e+00 0.000000000000000e+00
1.495888338293997e+00 2.162321509169638e+00 0.000000000000000e+00
1.519083555014703e+00 2.164715857596002e+00 0.000000000000000e+00
1.540767144659630e+00 2.167462758680880e+00 0.000000000000000e+00
1.563713752493671e+00 2.172890093457235e+00 0.000000000000000e+00
1.584667272959379e+00 2.176165847516912e+00 0.000000000000000e+00
1.607750400013464e+00 2.180553719394978e+00 0.000000000000000e+00
1.627587714609312e+00 2.186984253156382e+00 0.000000000000000e+00
1.649969044904896e+00 2.192763247671664e+00 0.000000000000000e+00
1.670695718084987e+00 2.192437328657050e+00 0.000000000000000e+00
1.693286835491975e+00 2.199561931090994e+00 0.000000000000000e+00
1.712899707519254e+00 2.205658269393399e+00 0.000000000000000e+00
1.736595710000834e+00 2.207174720777311e+00 0.000000000000000e+00
1.757087888943961e+00 2.211058954286993e+00 0.000000000000000e+00
1.778838981010282e+00 2.217592222384919e+00 0.000000000000000e+00
1.800844835955623e+00 2.214883199378245e+00 0.000000000000000e+00
1.823839867070659e+00 2.219761532453232e+00 0.000000000000000e+00
1.844648123000511e+00 2.222084550672052e+00 0.000000000000000e+00
1.868952105385731e+00 2.219905833583470e+00 0.000000000000000e+00
1.889434071642422e+00 2.222052727804610e+00 0.000000000000000e+00
1.912001850563520e+00 2.224925695718529e+00 0.000000000000000e+00
1.933647963176915e+00 2.226856840928795e+00 0.000000000000000e+00
1.955554285947202e+00 2.227946761835944e+00 0.000000000000000e+00
1.978476775480634e+00 2.231911026948342e+00 0.000000000000000e+00
1.997818278940485e+00 2.241670381427550e+00 0.000000000000000e+00
2.019558567270170e+00 2.239684292658772e+00 0.000000000000000e+00
2.041946033267823e+00 2.245405116708914e+00 0.000000000000000e+00
2.062993365973831e+00 2.251388424063350e+00 0.000000000000000e+00
2.085232896230304e+00 2.256211251268852e+00 0.000000000000000e+00
2.107107005727714e+00 2.256228307451123e+00 0.000000000000000e+00
2.129473002550629e+00 2.255503276923102e+00 0.000000000000000e+00
2.152227466803748e+00 2.258987495362763e+00 0.000000000000000e+00
2.172169296251951e+00 2.264522025631033e+00 0.000000000000000e+00
2.193337088738717e+00 2.261985433331497e+00 0.000000000000000e+00
2.215878620010008e+00 2.263274655181670e+00 0.000000000000000e+00
2.236001436140702e+00 2.271951667311356e+00 0.000000000000000e+00
2.257648740377270e+00 2.274657793703812e+00 0.000000000000000e+00
2.278651904760907e+00 2.273386467533338e+00 0.000000000000000e+00
2.299882585462797e+00 2.275246646137789e+00 0.000000000000000e+00
2.320593834933640e+00 2.279308010682290e+00 0.000000000000000e+00
2.341602360308590e+00 2.281652443721953e+00 0.000000000000000e+00
2.361915963347391e+00 2.280681628387342e+00 0.000000000000000e+00
2.383416216654583e+00 2.281481775004573e+00 0.000000000000000e+00
2.403450691059798e+00 2.282335529712540e+00 0.000000000000000e+00
2.424156133795958e+00 2.280980271817617e+00 0.000000000000000e+00
2.444315523919578e+00 2.277684827838732e+00 0.000000000000000e+00
2.464905090804263e+00 2.271079317691997e+00 0.000000000000000e+00
2.483830611110654e+00 2.265239512370628e+00 0.000000000000000e+00
2.502800772803951e+00 2.255961120865034e+00 0.000000000000000e+00
2.519759873173141e+00 2.242799135468073e+00 0.000000000000000e+00
2.535812916874975e+00 2.230255076799651e+00 0.000000000000000e+00
2.552617539548438e+00 2.216977273971962e+00 0.000000000000000e+00
2.569145651223754e+00 2.203551007415546e+00 0.000000000000000e+00
2.584843743723472e+00 2.189585963130092e+00 0.000000000000000e+00
2.600863559876112e+00 2.175756915643972e+00 0.000000000000000e+00
2.616132303721311e+00 2.161150521378497e+00 0.000000000000000e+00
2.631344567623722e+00 2.146312524682321e+00 0.000000000000000e+00
2.646462893982855e+00 2.131125677743119e+00 0.000000000000000e+00
2.661511382335483e+00 2.116257667330478e+00 0.000000000000000e+00
2.676716221123153e+00 2.101061028005530e+00 0.000000000000000e+00
2.691367143672151e+00 2.085549584826977e+00 0.000000000000000e+00
2.706532914049561e+00 2.070741748812201e+00 0.000000000000000e+00
2.721140875073199e+00 2.055703980949777e+00 0.000000000000000e+00
2.735885514182090e+00 2.040298931136320e+00 0.000000000000000e+00
2.751008251972274e+00 2.025358341551927e+00 0.000000000000000e+00
2.766404783575895e+00 2.010691518712696e+00 0.000000000000000e+00
2.782388783734738e+00 1.996838627104587e+00 0.000000000000000e+00
2.798613068164801e+00 1.982831617880236e+00 0.000000000000000e+00
2.814780511647716e+00 1.969655483858459e+00 0.000000000000000e+00
2.831155572084922e+00 1.957063178263364e+00 0.000000000000000e+00
2.848163286117877e+00 1.944744545587589e+00 0.000000000000000e+00
2.865169845807205e+00 1.933215825653523e+00 0.000000000000000e+00
2.882771960365226e+00 1.921522798685616e+00 0.000000000000000e+00
2.900761445680543e+00 1.911046497215331e+00 0.000000000000000e+00
2.919174873873974e+00 1.900289950771004e+00 0.000000000000000e+00
2.937150443426797e+00 1.889446206745470e+00 0.000000000000000e+00
2.955656192783140e+00 1.879198926556411e+00 0.000000000000000e+00
2.974185361592214e+00 1.868862933629611e+00 0.000000000000000e+00
2.992293682589773e+00 1.858926891896186e+00 0.000000000000000e+00
3.011249820249823e+00 1.849072359862151e+00 0.000000000000000e+00
3.029653594798905e+00 1.839085471250613e+00 0.000000000000000e+00
3.048310235210748e+00 1.828961583380393e+00 0.000000000000000e+00
3.066031224868083e+00 1.819243205787654e+00 0.000000000000000e+00
3.084993537822780e+00 1.809466225557392e+00 0.000000000000000e+00
3.103810247714395e+00 1.800885374494108e+00 0.000000000000000e+00
3.122743237749592e+00 1.792786840854301e+00 0.000000000000000e+00
3.142301775906698e+00 1.785436964632668e+00 0.000000000000000e+00
3.161995066078603e+00 1.779097591423211e+00 0.000000000000000e+00
3.182383689527958e+00 1.773538452664955e+00 0.000000000000000e+00
3.201951753986424e+00 1.768887319898552e+00 0.000000000000000e+00
3.222012466293719e+00 1.764774466145379e+00 0.000000000000000e+00
3.242409254371856e+00 1.761556216767231e+00 0.000000000000000e+00
3.262894474593448e+00 1.758996219636654e+00 0.000000000000000e+00
3.282549611981239e+00 1.756893580197551e+00 0.000000000000000e+00
3.302223457251814e+00 1.755098533259505e+00 0.000000000000000e+00
3.323370397602275e+00 1.753522587072821e+00 0.000000000000000e+00
3.342301361079836e+00 1.751629244543525e+00 0.000000000000000e+00
3.362353075852242e+00 1.750675433173120e+00 0.000000000000000e+00
3.382183431528972e+00 1.750745987710092e+00 0.000000000000000e+00
3.402623683204629e+00 1.750809527192517e+00 0.000000000000000e+00
3.422563918946025e+00 1.749767804642218e+00 0.000000000000000e+00
3.441952595778031e+00 1.748122852846878e+00 0.000000000000000e+00
3.461767821345620e+00 1.747343123178067e+00 0.000000000000000e+00
3.481738563980383e+00 1.747993480234003e+00 0.000000000000000e+00
3.501616253283067e+00 1.749164584545747e+00 0.000000000000000e+00
3.521200228204752e+00 1.751183172208293e+00 0.000000000000000e+00
3.540554402719623e+00 1.755505756055346e+00 0.000000000000000e+00
3.559480906039572e+00 1.762458525726559e+00 0.000000000000000e+00
3.577372968752760e+00 1.769991020451613e+00 0.000000000000000e+00
3.595147653972792e+00 1.778092564992320e+00 0.000000000000000e+00
3.612455279760892e+00 1.787173035006267e+00 0.000000000000000e+00
3.629465645972146e+00 1.797367146702867e+00 0.000000000000000e+00
3.646036927342775e+00 1.807521605503043e+00 0.000000000000000e+00
3.662773086858768e+00 1.817228283824370e+00 0.000000000000000e+00
3.679319139254931e+00 1.826657988304315e+00 0.000000000000000e+00
3.696091134277064e+00 1.836478478211011e+00 0.000000000000000e+00
3.712421800760087e+00 1.846373630977932e+00 0.000000000000000e+00
3.728786019902805e+00 1.856232170352443e+00 0.000000000000000e+00
3.745270970143152e+00 1.866026219100517e+00 0.000000000000000e+00
3.761900711775146e+00 1.875636923301807e+00 0.000000000000000e+00
3.778581084416440e+00 1.886033741670094e+00 0.000000000000000e+00
3.794954087601024e+00 1.896639926474935e+00 0.000000000000000e+00
3.811659020507199e+00 1.907630759611793e+00 0.000000000000000e+00
3.828335700384214e+00 1.918300067564258e+00 0.000000000000000e+00
3.845169060059096e+00 1.928966446812115e+00 0.000000000000000e+00
3.861456022460164e+00 1.939054140400727e+00 0.000000000000000e+00
3.878215323290803e+00 1.949176836612537e+00 0.000000000000000e+00
3.895411840817822e+00 1.958977266149301e+00 0.000000000000000e+00
3.913172220289611e+00 1.968116004330838e+00 0.000000000000000e+00
3.931299072601928e+00 1.976143503508433e+00 0.000000000000000e+00
3.949864443512935e+00 1.983068830307037e+00 0.000000000000000e+00
3.969147093904643e+00 1.989658288169250e+00 0.000000000000000e+00
3.987577673094510e+00 1.997244657140755e+00 0.000000000000000e+00
1.020951476529665e+00 2.973253503930821e+00 0.000000000000000e+00
1.037127701086187e+00 2.957227825719449e+00 0.000000000000000e+00
1.053038110171024e+00 2.941718210685016e+00 0.000000000000000e+00
1.070950219594455e+00 2.928030899894126e+00 0.000000000000000e+00
1.087755448484199e+00 2.913287424154676e+00 0.000000000000000e+00
1.107580828767861e+00 2.900936554264478e+00 0.000000000000000e+00
1.126312436205778e+00 2.890962578278511e+00 0.000000000000000e+00
1.147193396346799e+00 2.881073597056687e+00 0.000000000000000e+00
1.166115658785408e+00 2.873299854619109e+00 0.000000000000000e+00
1.187680601806085e+00 2.867516029688296e+00 0.000000000000000e+00
1.210033490349770e+00 2.865577363194858e+00 0.000000000000000e+00
1.231728773595811e+00 2.863112992818501e+00 0.000000000000000e+00
1.253284539021648e+00 2.859208969247157e+00 0.000000000000000e+00
1.275137740299478e+00 2.855237075550776e+00 0.000000000000000e+00
1.297053493270358e+00 2.853720327815427e+00 0.000000000000000e+00
1.318039561603223e+00 2.851366518361567e+00 0.000000000000000e+00
1.340432941957132e+00 2.849881287819678e+00 0.000000000000000e+00
1.361902795569703e+00 2.849685459832716e+00 0.000000000000000e+00
1.384098138181585e+00 2.848515229987507e+00 0.000000000000000e+00
1.406443327234478e+00 2.846841875253705e+00 0.000000000000000e+00
1.428637284410503e+00 2.845056273142524e+00 0.000000000000000e+00
1.451187891314456e+00 2.844083876724605e+00 0.000000000000000e+00
1.473995389198376e+00 2.841657624973965e+00 0.000000000000000e+00
1.495888338293997e+00 2.837678490830378e+00 0.000000000000000e+00
1.519083555014703e+00 2.835284142404008e+00 0.000000000000000e+00
1.540767144659629e+00 2.832537241319126e+00 0.000000000000000e+00
1.563713752493671e+00 2.827109906542773e+00 0.000000000000000e+00
1.584667272959381e+00 2.823834152483100e+00 0.000000000000000e+00
1.607750400013468e+00 2.819446280605039e+00 0.000000000000000e+00
1.627587714609317e+00 2.813015746843638e+00 0.000000000000000e+00
1.649969044904899e+00 2.807236752328367e+00 0.000000000000000e+00
1.670695718084993e+00 2.807562671342988e+00 0.000000000000000e+00
1.693286835491981e+00 2.800438068909049e+00 0.000000000000000e+00
1.712899707519261e+00 2.794341730606655e+00 0.000000000000000e+00
1.736595710000847e+00 2.792825279222749e+00 0.000000000000000e+00
1.757087888943967e+00 2.788941045713068e+00 0.000000000000000e+00
1.778838981010294e+00 2.782407777615139e+00 0.000000000000000e+00
1.800844835955632e+00 2.785116800621817e+00 0.000000000000000e+00
1.823839867070665e+00 2.780238467546822e+00 0.000000000000000e+00
1.844648123000517e+00 2.777915449327997e+00 0.000000000000000e+00
1.868952105385737e+00 2.780094166416585e+00 0.000000000000000e+00
1.889434071642427e+00 2.777947272195449e+00 0.000000000000000e+00
1.912001850563524e+00 2.775074304281524e+00 0.000000000000000e+00
1.933647963176920e+00 2.773143159071256e+00 0.000000000000000e+00
1.955554285947212e+00 2.772053238164106e+00 0.000000000000000e+00
1.978476775480637e+00 2.768088973051705e+00 0.000000000000000e+00
1.997818278940490e+00 2.758329618572503e+00 0.000000000000000e+00
2.019558567270175e+00 2.760315707341269e+00 0.000000000000000e+00
2.041946033267827e+00 2.754594883291133e+00 0.000000000000000e+00
2.062993365973838e+00 2.748611575936703e+00 0.000000000000000e+00
2.085232896230309e+00 2.743788748731195e+00 0.000000000000000e+00
2.107107005727724e+00 2.743771692548915e+00 0.000000000000000e+00
2.129473002550635e+00 2.744496723076937e+00 0.000000000000000e+00
2.152227466803752e+00 2.741012504637268e+00 0.000000000000000e+00
2.172169296251951e+00 2.735477974368992e+00 0.000000000000000e+00
2.193337088738719e+00 2.738014566668526e+00 0.000000000000000e+00
2.215878620010007e+00 2.736725344818358e+00 0.000000000000000e+00
2.236001436140701e+00 2.728048332688669e+00 0.000000000000000e+00
2.257648740377271e+00 2.725342206296209e+00 0.000000000000000e+00
2.278651904760907e+00 2.726613532466683e+00 0.000000000000000e+00
2.299882585462795e+00 2.724753353862216e+00 0.000000000000000e+00
2.320593834933639e+00 2.720691989317717e+00 0.000000000000000e+00
2.341602360308589e+00 2.718347556278047e+00 0.000000000000000e+00
2.361915963347391e+00 2.719318371612659e+00 0.000000000000000e+00
2.383416216654582e+00 2.718518224995424e+00 0.000000000000000e+00
2.403450691059797e+00 2.717664470287451e+00 0.000000000000000e+00
2.424156133795961e+00 2.719019728182374e+00 0.000000000000000e+00
2.444315523919580e+00 2.722315172161255e+00 0.000000000000000e+00
2.464905090804268e+00 2.728920682307986e+00 0.000000000000000e+00
2.483830611110658e+00 2.734760487629351e+00 0.000000000000000e+00
2.502800772803958e+00 2.744038879134943e+00 0.000000000000000e+00
2.519759873173147e+00 2.757200864531903e+00 0.000000000000000e+00
2.535812916874981e+00 2.769744923200336e+00 0.000000000000000e+00
2.552617539548442e+00 2.783022726028017e+00 0.000000000000000e+00
2.569145651223763e+00 2.796448992584442e+00 0.000000000000000e+00
2.584843743723481e+00 2.810414036869892e+00 0.000000000000000e+00
2.600863559876123e+00 2.824243084356012e+00 0.000000000000000e+00
2.616132303721321e+00 2.838849478621489e+00 0.000000000000000e+00
2.631344567623731e+00 2.853687475317664e+00 0.000000000000000e+00
2.646462893982866e+00 2.868874322256865e+00 0.000000000000000e+00
2.661511382335490e+00 2.883742332669507e+00 0.000000000000000e+00
2.676716221123160e+00 2.898938971994454e+00 0.000000000000000e+00
2.691367143672158e+00 2.914450415173008e+00 0.000000000000000e+00
2.706532914049569e+00 2.929258251187784e+00 0.000000000000000e+00
2.721140875073207e+00 2.944296019050207e+00 0.000000000000000e+00
2.735885514182098e+00 2.959701068863665e+00 0.000000000000000e+00
2.751008251972284e+00 2.974641658448054e+00 0.000000000000000e+00
2.766404783575905e+00 2.989308481287289e+00 0.000000000000000e+00
2.782388783734749e+00 3.003161372895401e+00 0.000000000000000e+00
2.798613068164813e+00 3.017168382119748e+00 0.000000000000000e+00
2.814780511647729e+00 3.030344516141529e+00 0.000000000000000e+00
2.831155572084932e+00 3.042936821736623e+00 0.000000000000000e+00
2.848163286117889e+00 3.055255454412403e+00 0.000000000000000e+00
2.865169845807218e+00 3.066784174346464e+00 0.000000000000000e+00
2.882771960365238e+00 3.078477201314374e+00 0.000000000000000e+00
2.900761445680554e+00 3.088953502784659e+00 0.000000000000000e+00
2.919174873873988e+00 3.099710049228983e+00 0.000000000000000e+00
2.937150443426813e+00 3.110553793254516e+00 0.000000000000000e+00
2.955656192783152e+00 3.120801073443575e+00 0.000000000000000e+00
2.974185361592228e+00 3.131137066370375e+00 0.000000000000000e+00
2.992293682589788e+00 3.141073108103796e+00 0.000000000000000e+00
3.011249820249842e+00 3.150927640137834e+00 0.000000000000000e+00
3.029653594798916e+00 3.160914528749373e+00 0.000000000000000e+00
3.048310235210760e+00 3.171038416619597e+00 0.000000000000000e+00
3.066031224868095e+00 3.180756794212337e+00 0.000000000000000e+00
3.084993537822789e+00 3.190533774442601e+00 0.000000000000000e+00
3.103810247714402e+00 3.199114625505886e+00 0.000000000000000e+00
3.122743237749596e+00 3.207213159145695e+00 0.000000000000000e+00
3.142301775906708e+00 3.214563035367329e+00 0.000000000000000e+00
3.161995066078605e+00 3.220902408576785e+00 0.000000000000000e+00
3.182383689527962e+00 3.226461547335041e+00 0.000000000000000e+00
3.201951753986434e+00 3.231112680101443e+00 0.000000000000000e+00
3.222012466293731e+00 3.235225533854616e+00 0.000000000000000e+00
3.242409254371859e+00 3.238443783232766e+00 0.000000000000000e+00
3.262894474593454e+00 3.241003780363345e+00 0.000000000000000e+00
3.282549611981245e+00 3.243106419802448e+00 0.000000000000000e+00
3.302223457251825e+00 3.244901466740496e+00 0.000000000000000e+00
3.323370397602278e+00 3.246477412927178e+00 0.000000000000000e+00
3.342301361079854e+00 3.248370755456468e+00 0.000000000000000e+00
3.362353075852248e+00 3.249324566826877e+00 0.000000000000000e+00
3.382183431528986e+00 3.249254012289905e+00 0.000000000000000e+00
3.402623683204645e+00 3.249190472807486e+00 0.000000000000000e+00
3.422563918946035e+00 3.250232195357791e+00 0.000000000000000e+00
3.441952595778043e+00 3.251877147153128e+00 0.000000000000000e+00
3.461767821345628e+00 3.252656876821936e+00 0.000000000000000e+00
3.481738563980396e+00 3.252006519766000e+00 0.000000000000000e+00
3.501616253283079e+00 3.250835415454260e+00 0.000000000000000e+00
3.521200228204763e+00 3.248816827791716e+00 0.000000000000000e+00
3.540554402719632e+00 3.244494243944663e+00 0.000000000000000e+00
3.559480906039583e+00 3.237541474273447e+00 0.000000000000000e+00
3.577372968752772e+00 3.230008979548393e+00 0.000000000000000e+00
3.595147653972805e+00 3.221907435007689e+00 0.000000000000000e+00
3.612455279760904e+00 3.212826964993743e+00 0.000000000000000e+00
3.629465645972158e+00 3.202632853297141e+00 0.000000000000000e+00
3.646036927342786e+00 3.192478394496964e+00 0.000000000000000e+00
3.662773086858777e+00 3.182771716175635e+00 0.000000000000000e+00
3.679319139254939e+00 3.173342011695690e+00 0.000000000000000e+00
3.696091134277069e+00 3.163521521788992e+00 0.000000000000000e+00
3.712421800760093e+00 3.153626369022067e+00 0.000000000000000e+00
3.728786019902810e+00 3.143767829647556e+00 0.000000000000000e+00
3.745270970143157e+00 3.133973780899479e+00 0.000000000000000e+00
3.761900711775146e+00 3.124363076698188e+00 0.000000000000000e+00
3.778581084416446e+00 3.113966258329899e+00 0.000000000000000e+00
3.794954087601025e+00 3.103360073525060e+00 0.000000000000000e+00
3.811659020507205e+00 3.092369240388204e+00 0.000000000000000e+00
3.828335700384217e+00 3.081699932435741e+00 0.000000000000000e+00
3.845169060059102e+00 3.071033553187887e+00 0.000000000000000e+00
3.861456022460172e+00 3.060945859599276e+00 0.000000000000000e+00
3.878215323290810e+00 3.050823163387467e+00 0.000000000000000e+00
3.895411840817831e+00 3.041022733850707e+00 0.000000000000000e+00
3.913172220289618e+00 3.031883995669169e+00 0.000000000000000e+00
3.931299072601934e+00 3.023856496491573e+00 0.000000000000000e+00
3.949864443512941e+00 3.016931169692969e+00 0.000000000000000e+00
3.969147093904648e+00 3.010341711830754e+00 0.000000000000000e+00
3.987577673094516e+00 3.002755342859246e+00 0.000000000000000e+00

POINT_DATA   310
SCALARS fTan double
LOOKUP_TABLE default

2.789664e+03 
6.891419e+03 
1.383969e+03 
2.729533e+03 
9.678707e+03 
2.043019e+04 
1.977623e+04 
2.536740e+04 
1.949870e+04 
3.213868e+02 
7.479984e+03 
1.113367e+02 
3.026935e+03 
2.333393e+03 
7.331095e+03 
1.376104e+04 
9.619790e+03 
8.080687e+03 
1.507294e+03 
1.304818e+03 
3.586873e+03 
3.418443e+03 
7.849516e+03 
9.719196e+03 
1.478916e+04 
1.809163e+04 
2.269731e+04 
2.364652e+04 
2.660391e+04 
2.288045e+04 
2.343839e+04 
2.963745e+04 
3.256932e+04 
3.116498e+04 
2.897402e+04 
1.914261e+04 
5.045298e+03 
1.160538e+04 
2.753842e+04 
3.455293e+04 
3.586224e+04 
2.237958e+04 
9.473969e+03 
2.185273e+03 
1.420898e+04 
1.597579e+04 
1.750843e+03 
1.137827e+04 
1.512506e+04 
6.641223e+03 
6.754086e+03 
6.609738e+03 
6.398096e+03 
2.398639e+04 
5.756093e+03 
1.248938e+04 
5.716625e+03 
2.663672e+02 
6.842653e+03 
2.223424e+03 
2.540463e+03 
1.941436e+02 
8.208507e+03 
1.153637e+04 
1.465077e+04 
7.341561e+03 
3.244834e+03 
1.168159e+04 
1.887120e+04 
1.259366e+04 
2.548622e+03 
1.129010e+04 
9.979353e+03 
1.393651e+03 
2.979683e+03 
1.342752e+03 
1.010458e+02 
1.288504e+03 
2.189936e+03 
2.331265e+03 
3.740067e+03 
1.597642e+03 
1.219740e+03 
2.590127e+03 
3.358926e+03 
9.341169e+02 
1.984203e+02 
9.437723e+02 
3.344275e+03 
5.157018e+03 
1.639874e+03 
3.857656e+03 
4.864869e+03 
5.641353e+03 
3.395171e+03 
5.018289e+03 
3.347205e+03 
1.357302e+03 
5.170279e+02 
5.804493e+03 
7.006940e+03 
4.435468e+03 
3.097540e+03 
9.884268e+03 
1.156210e+04 
6.365817e+03 
1.803461e+02 
3.505800e+03 
2.014851e+03 
4.330437e+03 
1.063900e+04 
3.528049e+03 
1.735158e+03 
9.510043e+01 
8.764102e+03 
4.224948e+02 
1.404961e+04 
2.186523e+04 
1.031130e+04 
2.529520e+03 
6.342581e+03 
4.454667e+03 
5.074905e+03 
3.762546e+03 
1.562972e+03 
5.831969e+02 
2.363860e+03 
8.453977e+02 
2.603619e+03 
7.440568e+03 
1.524148e+03 
1.936706e+02 
2.565345e+03 
4.160050e+03 
8.214964e+02 
3.334102e+03 
4.151014e+03 
2.896511e+03 
2.903695e+02 
1.431756e+03 
8.709352e+02 
3.710526e+03 
1.976696e+03 
4.320039e+03 
2.586521e+03 
7.924776e+01 
7.202280e+03 
4.598830e+03 
3.102081e+03 
1.734012e+03 
1.047360e+03 
4.356430e+02 
6.350244e+03 
4.051101e+03 
6.226989e+03 
2.789664e+03 
6.891419e+03 
1.383969e+03 
2.729533e+03 
9.678707e+03 
2.043019e+04 
1.977623e+04 
2.536740e+04 
1.949870e+04 
3.213868e+02 
7.479984e+03 
1.113367e+02 
3.026935e+03 
2.333393e+03 
7.331095e+03 
1.376104e+04 
9.619790e+03 
8.080687e+03 
1.507294e+03 
1.304818e+03 
3.586873e+03 
3.418443e+03 
7.849516e+03 
9.719196e+03 
1.478916e+04 
1.809163e+04 
2.269731e+04 
2.364652e+04 
2.660391e+04 
2.288045e+04 
2.343839e+04 
2.963745e+04 
3.256932e+04 
3.116498e+04 
2.897402e+04 
1.914261e+04 
5.045298e+03 
1.160538e+04 
2.753842e+04 
3.455293e+04 
3.586224e+04 
2.237958e+04 
9.473969e+03 
2.185273e+03 
1.420898e+04 
1.597579e+04 
1.750843e+03 
1.137827e+04 
1.512506e+04 
6.641223e+03 
6.754086e+03 
6.609738e+03 
6.398096e+03 
2.398639e+04 
5.756093e+03 
1.248938e+04 
5.716625e+03 
2.663672e+02 
6.842653e+03 
2.223424e+03 
2.540463e+03 
1.941436e+02 
8.208507e+03 
1.153637e+04 
1.465077e+04 
7.341561e+03 
3.244834e+03 
1.168159e+04 
1.887120e+04 
1.259366e+04 
2.548622e+03 
1.129010e+04 
9.979353e+03 
1.393651e+03 
2.979683e+03 
1.342752e+03 
1.010458e+02 
1.288504e+03 
2.189936e+03 
2.331265e+03 
3.740067e+03 
1.597642e+03 
1.219740e+03 
2.590127e+03 
3.358926e+03 
9.341169e+02 
1.984203e+02 
9.437723e+02 
3.344275e+03 
5.157018e+03 
1.639874e+03 
3.857656e+03 
4.864869e+03 
5.641353e+03 
3.395171e+03 
5.018289e+03 
3.347205e+03 
1.357302e+03 
5.170279e+02 
5.804493e+03 
7.006940e+03 
4.435468e+03 
3.097540e+03 
9.884268e+03 
1.156210e+04 
6.365817e+03 
1.803461e+02 
3.505800e+03 
2.014851e+03 
4.330437e+03 
1.063900e+04 
3.528049e+03 
1.735158e+03 
9.510043e+01 
8.764102e+03 
4.224948e+02 
1.404961e+04 
2.186523e+04 
1.031130e+04 
2.529520e+03 
6.342581e+03 
4.454667e+03 
5.074905e+03 
3.762546e+03 
1.562972e+03 
5.831969e+02 
2.363860e+03 
8.453977e+02 
2.603619e+03 
7.440568e+03 
1.524148e+03 
1.936706e+02 
2.565345e+03 
4.160050e+03 
8.214964e+02 
3.334102e+03 
4.151014e+03 
2.896511e+03 
2.903695e+02 
1.431756e+03 
8.709352e+02 
3.710526e+03 
1.976696e+03 
4.320039e+03 
2.586521e+03 
7.924776e+01 
7.202280e+03 
4.598830e+03 
3.102081e+03 
1.734012e+03 
1.047360e+03 
4.356430e+02 
6.350244e+03 
4.051101e+03 
6.226989e+03 
