# vtk DataFile Version 2.0
fTan
ASCII
DATASET UNSTRUCTURED_GRID

FIELD FieldData 1
TIME 1 1 double
0.08000000
POINTS 310 float
1.015116522426138e+00 2.006894935283316e+00 0.000000000000000e+00
1.034853700089997e+00 2.014828231335930e+00 0.000000000000000e+00
1.053192322560763e+00 2.025057845074340e+00 0.000000000000000e+00
1.073306665296376e+00 2.032293313981713e+00 0.000000000000000e+00
1.092145650736811e+00 2.041684051556450e+00 0.000000000000000e+00
1.111550929381475e+00 2.051411980196668e+00 0.000000000000000e+00
1.129707273125093e+00 2.060621836082039e+00 0.000000000000000e+00
1.149544010146549e+00 2.069629837309258e+00 0.000000000000000e+00
1.168295131226182e+00 2.077816093522602e+00 0.000000000000000e+00
1.188005549173975e+00 2.087201030502747e+00 0.000000000000000e+00
1.207276898325122e+00 2.095023515896054e+00 0.000000000000000e+00
1.227138932912292e+00 2.103041350340462e+00 0.000000000000000e+00
1.246655628850775e+00 2.110367155641529e+00 0.000000000000000e+00
1.266124260774766e+00 2.118811153271313e+00 0.000000000000000e+00
1.285930598848211e+00 2.126181082447065e+00 0.000000000000000e+00
1.305222146568020e+00 2.134547961250869e+00 0.000000000000000e+00
1.325020358513089e+00 2.141999735354809e+00 0.000000000000000e+00
1.344737318599065e+00 2.148627530955588e+00 0.000000000000000e+00
1.364419758424607e+00 2.156302124024240e+00 0.000000000000000e+00
1.384103055203901e+00 2.163822058694188e+00 0.000000000000000e+00
1.404076695745161e+00 2.170140504467364e+00 0.000000000000000e+00
1.424005386230840e+00 2.176054723220102e+00 0.000000000000000e+00
1.443904390136256e+00 2.183260829804408e+00 0.000000000000000e+00
1.463237937691390e+00 2.190035414514343e+00 0.000000000000000e+00
1.483746921947187e+00 2.195979276802569e+00 0.000000000000000e+00
1.502781847640029e+00 2.202147161348903e+00 0.000000000000000e+00
1.523179242459825e+00 2.209457511523801e+00 0.000000000000000e+00
1.542482715987929e+00 2.213745397317000e+00 0.000000000000000e+00
1.563398106682941e+00 2.219562213183410e+00 0.000000000000000e+00
1.581886889356572e+00 2.226787546341900e+00 0.000000000000000e+00
1.601897755148657e+00 2.234532332728378e+00 0.000000000000000e+00
1.621971964132255e+00 2.237488539431686e+00 0.000000000000000e+00
1.641701119767713e+00 2.245458803697912e+00 0.000000000000000e+00
1.660085850149489e+00 2.253301811698801e+00 0.000000000000000e+00
1.680493771883038e+00 2.260173125133176e+00 0.000000000000000e+00
1.699174844906354e+00 2.267752704019001e+00 0.000000000000000e+00
1.717720284615644e+00 2.277644012068794e+00 0.000000000000000e+00
1.738301176895185e+00 2.279120349583296e+00 0.000000000000000e+00
1.757092731492740e+00 2.289312958676236e+00 0.000000000000000e+00
1.776331786255585e+00 2.295714816965008e+00 0.000000000000000e+00
1.797451589544958e+00 2.298917356348751e+00 0.000000000000000e+00
1.816310082216008e+00 2.305299765194161e+00 0.000000000000000e+00
1.836532039952035e+00 2.311926697778564e+00 0.000000000000000e+00
1.856784412927191e+00 2.316491014917554e+00 0.000000000000000e+00
1.877352519620574e+00 2.317683585448543e+00 0.000000000000000e+00
1.898499716385912e+00 2.319176133520568e+00 0.000000000000000e+00
1.917281180024415e+00 2.327724941745014e+00 0.000000000000000e+00
1.937506579610541e+00 2.324016453439031e+00 0.000000000000000e+00
1.958437007765240e+00 2.324605888266732e+00 0.000000000000000e+00
1.979086791431837e+00 2.325360253271028e+00 0.000000000000000e+00
1.999506517637453e+00 2.326808289157148e+00 0.000000000000000e+00
2.020084220732610e+00 2.324427442998803e+00 0.000000000000000e+00
2.040531531255979e+00 2.321729445460026e+00 0.000000000000000e+00
2.061099115266032e+00 2.321768303738741e+00 0.000000000000000e+00
2.081409940510024e+00 2.323076459519527e+00 0.000000000000000e+00
2.101692105745707e+00 2.318631815304703e+00 0.000000000000000e+00
2.122146860083253e+00 2.316803032829607e+00 0.000000000000000e+00
2.142463707756478e+00 2.318479861820594e+00 0.000000000000000e+00
2.162678237034976e+00 2.315089450063438e+00 0.000000000000000e+00
2.182551282844684e+00 2.310999602416540e+00 0.000000000000000e+00
2.203137912711993e+00 2.308392043994721e+00 0.000000000000000e+00
2.222952407977402e+00 2.306945925603323e+00 0.000000000000000e+00
2.243418050583946e+00 2.303559130322108e+00 0.000000000000000e+00
2.262966290382726e+00 2.297214833838955e+00 0.000000000000000e+00
2.282632319994752e+00 2.294336634267346e+00 0.000000000000000e+00
2.302313750412016e+00 2.291935903486778e+00 0.000000000000000e+00
2.322525179841076e+00 2.285822072381795e+00 0.000000000000000e+00
2.341718970094199e+00 2.280803328469478e+00 0.000000000000000e+00
2.361155886919599e+00 2.275532682712432e+00 0.000000000000000e+00
2.380422699850579e+00 2.270728725481073e+00 0.000000000000000e+00
2.399951669396508e+00 2.265742490889371e+00 0.000000000000000e+00
2.419361072100593e+00 2.260769521301191e+00 0.000000000000000e+00
2.438650080256105e+00 2.256710906549880e+00 0.000000000000000e+00
2.457978414329701e+00 2.251795104564257e+00 0.000000000000000e+00
2.477394986031895e+00 2.246953302247973e+00 0.000000000000000e+00
2.497191698573494e+00 2.243619427637149e+00 0.000000000000000e+00
2.516700975488834e+00 2.241465926124241e+00 0.000000000000000e+00
2.536253346178003e+00 2.237628004037567e+00 0.000000000000000e+00
2.555810534362325e+00 2.233952349598027e+00 0.000000000000000e+00
2.575404919434988e+00 2.231426483076539e+00 0.000000000000000e+00
2.595416614087664e+00 2.229303866542165e+00 0.000000000000000e+00
2.615146959318733e+00 2.229131710482239e+00 0.000000000000000e+00
2.634970296376320e+00 2.227966989257502e+00 0.000000000000000e+00
2.654613944953678e+00 2.226734254995226e+00 0.000000000000000e+00
2.674393038308351e+00 2.225804666791045e+00 0.000000000000000e+00
2.694834435818696e+00 2.224123432871857e+00 0.000000000000000e+00
2.713945404285295e+00 2.224791436371460e+00 0.000000000000000e+00
2.733412085066965e+00 2.228572756535598e+00 0.000000000000000e+00
2.751402227954536e+00 2.234970816490360e+00 0.000000000000000e+00
2.770463036480096e+00 2.241119831702710e+00 0.000000000000000e+00
2.789846373126011e+00 2.245736034646532e+00 0.000000000000000e+00
2.809535377528886e+00 2.246391372476626e+00 0.000000000000000e+00
2.829557551660070e+00 2.243884050554617e+00 0.000000000000000e+00
2.847566189015697e+00 2.238355561363234e+00 0.000000000000000e+00
2.864650335996966e+00 2.228124476951366e+00 0.000000000000000e+00
2.879708113228662e+00 2.216540063588401e+00 0.000000000000000e+00
2.894843009668217e+00 2.202564853988403e+00 0.000000000000000e+00
2.908646774366039e+00 2.188116851648195e+00 0.000000000000000e+00
2.921276782702422e+00 2.173045107178486e+00 0.000000000000000e+00
2.932535665166489e+00 2.155636720356603e+00 0.000000000000000e+00
2.941891794552775e+00 2.137924946979178e+00 0.000000000000000e+00
2.950505858424648e+00 2.119011668365803e+00 0.000000000000000e+00
2.957353519791636e+00 2.098868006866091e+00 0.000000000000000e+00
2.963928456364114e+00 2.078074255278547e+00 0.000000000000000e+00
2.970713755786753e+00 2.056615452947502e+00 0.000000000000000e+00
2.978782129562846e+00 2.035362290454672e+00 0.000000000000000e+00
2.988743257856841e+00 2.014188456414386e+00 0.000000000000000e+00
3.000400324518447e+00 1.994781559560483e+00 0.000000000000000e+00
3.014731657170647e+00 1.976255752891420e+00 0.000000000000000e+00
3.030291288291300e+00 1.960229988799828e+00 0.000000000000000e+00
3.048061316519714e+00 1.945267666664964e+00 0.000000000000000e+00
3.066458347233319e+00 1.932703039798297e+00 0.000000000000000e+00
3.086341318880248e+00 1.920793934211315e+00 0.000000000000000e+00
3.106405857300542e+00 1.910968330869464e+00 0.000000000000000e+00
3.127485051127448e+00 1.902423700184885e+00 0.000000000000000e+00
3.148899576098289e+00 1.894432426874030e+00 0.000000000000000e+00
3.170880061519737e+00 1.886600024475678e+00 0.000000000000000e+00
3.192856554085560e+00 1.880718146994429e+00 0.000000000000000e+00
3.214490385910046e+00 1.876305780534329e+00 0.000000000000000e+00
3.237146233396405e+00 1.871687637508660e+00 0.000000000000000e+00
3.259170435267113e+00 1.866803459679399e+00 0.000000000000000e+00
3.281270624108756e+00 1.863654361245961e+00 0.000000000000000e+00
3.303444446179678e+00 1.861913279063156e+00 0.000000000000000e+00
3.326339749513918e+00 1.860275028909768e+00 0.000000000000000e+00
3.348428372185636e+00 1.858619708326091e+00 0.000000000000000e+00
3.370380851522468e+00 1.857996046795409e+00 0.000000000000000e+00
3.392913498925993e+00 1.859211417368876e+00 0.000000000000000e+00
3.415448484714368e+00 1.860473961002741e+00 0.000000000000000e+00
3.437234281304872e+00 1.860953733000541e+00 0.000000000000000e+00
3.459222020809636e+00 1.863432181652342e+00 0.000000000000000e+00
3.481346128562893e+00 1.866390827904572e+00 0.000000000000000e+00
3.503266200816412e+00 1.869172859231634e+00 0.000000000000000e+00
3.524755475932168e+00 1.872158367533004e+00 0.000000000000000e+00
3.546649397200574e+00 1.875457203393064e+00 0.000000000000000e+00
3.568363869615779e+00 1.878799350023090e+00 0.000000000000000e+00
3.589801241784318e+00 1.882252137146102e+00 0.000000000000000e+00
3.611331656381294e+00 1.886115265480541e+00 0.000000000000000e+00
3.632866046248048e+00 1.889831601968933e+00 0.000000000000000e+00
3.654370444752328e+00 1.893442158849955e+00 0.000000000000000e+00
3.675691980627729e+00 1.897577363032541e+00 0.000000000000000e+00
3.696910086913993e+00 1.902701560947935e+00 0.000000000000000e+00
3.717825699978331e+00 1.907676379256674e+00 0.000000000000000e+00
3.739144710468758e+00 1.912825379311593e+00 0.000000000000000e+00
3.760183972355671e+00 1.918176870567584e+00 0.000000000000000e+00
3.781175638852865e+00 1.923944643575559e+00 0.000000000000000e+00
3.801882756882420e+00 1.929837273913763e+00 0.000000000000000e+00
3.822460844181833e+00 1.935723346192982e+00 0.000000000000000e+00
3.843111436894994e+00 1.942069897528075e+00 0.000000000000000e+00
3.863803959200327e+00 1.948875566505628e+00 0.000000000000000e+00
3.883705656919381e+00 1.956918520025070e+00 0.000000000000000e+00
3.903567151673490e+00 1.965862102156749e+00 0.000000000000000e+00
3.923813603775975e+00 1.972024602689500e+00 0.000000000000000e+00
3.943920204463185e+00 1.977106831673004e+00 0.000000000000000e+00
3.964269609819004e+00 1.987880845408369e+00 0.000000000000000e+00
3.983599158832573e+00 1.994186687905271e+00 0.000000000000000e+00
1.015116522426135e+00 2.993105064716687e+00 0.000000000000000e+00
1.034853700089993e+00 2.985171768664074e+00 0.000000000000000e+00
1.053192322560757e+00 2.974942154925658e+00 0.000000000000000e+00
1.073306665296369e+00 2.967706686018287e+00 0.000000000000000e+00
1.092145650736804e+00 2.958315948443550e+00 0.000000000000000e+00
1.111550929381466e+00 2.948588019803333e+00 0.000000000000000e+00
1.129707273125086e+00 2.939378163917965e+00 0.000000000000000e+00
1.149544010146543e+00 2.930370162690748e+00 0.000000000000000e+00
1.168295131226176e+00 2.922183906477402e+00 0.000000000000000e+00
1.188005549173970e+00 2.912798969497263e+00 0.000000000000000e+00
1.207276898325118e+00 2.904976484103963e+00 0.000000000000000e+00
1.227138932912289e+00 2.896958649659557e+00 0.000000000000000e+00
1.246655628850775e+00 2.889632844358493e+00 0.000000000000000e+00
1.266124260774766e+00 2.881188846728716e+00 0.000000000000000e+00
1.285930598848213e+00 2.873818917552962e+00 0.000000000000000e+00
1.305222146568022e+00 2.865452038749162e+00 0.000000000000000e+00
1.325020358513094e+00 2.858000264645228e+00 0.000000000000000e+00
1.344737318599069e+00 2.851372469044452e+00 0.000000000000000e+00
1.364419758424614e+00 2.843697875975802e+00 0.000000000000000e+00
1.384103055203907e+00 2.836177941305856e+00 0.000000000000000e+00
1.404076695745168e+00 2.829859495532685e+00 0.000000000000000e+00
1.424005386230847e+00 2.823945276779946e+00 0.000000000000000e+00
1.443904390136264e+00 2.816739170195643e+00 0.000000000000000e+00
1.463237937691397e+00 2.809964585485708e+00 0.000000000000000e+00
1.483746921947195e+00 2.804020723197483e+00 0.000000000000000e+00
1.502781847640038e+00 2.797852838651155e+00 0.000000000000000e+00
1.523179242459834e+00 2.790542488476260e+00 0.000000000000000e+00
1.542482715987940e+00 2.786254602683057e+00 0.000000000000000e+00
1.563398106682951e+00 2.780437786816651e+00 0.000000000000000e+00
1.581886889356581e+00 2.773212453658157e+00 0.000000000000000e+00
1.601897755148667e+00 2.765467667271681e+00 0.000000000000000e+00
1.621971964132263e+00 2.762511460568374e+00 0.000000000000000e+00
1.641701119767724e+00 2.754541196302142e+00 0.000000000000000e+00
1.660085850149496e+00 2.746698188301264e+00 0.000000000000000e+00
1.680493771883048e+00 2.739826874866881e+00 0.000000000000000e+00
1.699174844906358e+00 2.732247295981054e+00 0.000000000000000e+00
1.717720284615649e+00 2.722355987931259e+00 0.000000000000000e+00
1.738301176895193e+00 2.720879650416769e+00 0.000000000000000e+00
1.757092731492740e+00 2.710687041323820e+00 0.000000000000000e+00
1.776331786255586e+00 2.704285183035041e+00 0.000000000000000e+00
1.797451589544957e+00 2.701082643651302e+00 0.000000000000000e+00
1.816310082216006e+00 2.694700234805893e+00 0.000000000000000e+00
1.836532039952032e+00 2.688073302221488e+00 0.000000000000000e+00
1.856784412927187e+00 2.683508985082496e+00 0.000000000000000e+00
1.877352519620571e+00 2.682316414551506e+00 0.000000000000000e+00
1.898499716385906e+00 2.680823866479481e+00 0.000000000000000e+00
1.917281180024411e+00 2.672275058255040e+00 0.000000000000000e+00
1.937506579610539e+00 2.675983546561015e+00 0.000000000000000e+00
1.958437007765235e+00 2.675394111733314e+00 0.000000000000000e+00
1.979086791431837e+00 2.674639746729019e+00 0.000000000000000e+00
1.999506517637452e+00 2.673191710842894e+00 0.000000000000000e+00
2.020084220732606e+00 2.675572557001238e+00 0.000000000000000e+00
2.040531531255977e+00 2.678270554540021e+00 0.000000000000000e+00
2.061099115266027e+00 2.678231696261302e+00 0.000000000000000e+00
2.081409940510021e+00 2.676923540480518e+00 0.000000000000000e+00
2.101692105745704e+00 2.681368184695337e+00 0.000000000000000e+00
2.122146860083250e+00 2.683196967170437e+00 0.000000000000000e+00
2.142463707756475e+00 2.681520138179444e+00 0.000000000000000e+00
2.162678237034971e+00 2.684910549936597e+00 0.000000000000000e+00
2.182551282844678e+00 2.689000397583500e+00 0.000000000000000e+00
2.203137912711988e+00 2.691607956005312e+00 0.000000000000000e+00
2.222952407977400e+00 2.693054074396713e+00 0.000000000000000e+00
2.243418050583943e+00 2.696440869677922e+00 0.000000000000000e+00
2.262966290382726e+00 2.702785166161078e+00 0.000000000000000e+00
2.282632319994749e+00 2.705663365732681e+00 0.000000000000000e+00
2.302313750412015e+00 2.708064096513241e+00 0.000000000000000e+00
2.322525179841076e+00 2.714177927618229e+00 0.000000000000000e+00
2.341718970094199e+00 2.719196671530545e+00 0.000000000000000e+00
2.361155886919599e+00 2.724467317287586e+00 0.000000000000000e+00
2.380422699850577e+00 2.729271274518948e+00 0.000000000000000e+00
2.399951669396508e+00 2.734257509110651e+00 0.000000000000000e+00
2.419361072100588e+00 2.739230478698830e+00 0.000000000000000e+00
2.438650080256104e+00 2.743289093450147e+00 0.000000000000000e+00
2.457978414329696e+00 2.748204895435766e+00 0.000000000000000e+00
2.477394986031894e+00 2.753046697752052e+00 0.000000000000000e+00
2.497191698573491e+00 2.756380572362874e+00 0.000000000000000e+00
2.516700975488831e+00 2.758534073875783e+00 0.000000000000000e+00
2.536253346177999e+00 2.762371995962460e+00 0.000000000000000e+00
2.555810534362323e+00 2.766047650401999e+00 0.000000000000000e+00
2.575404919434984e+00 2.768573516923488e+00 0.000000000000000e+00
2.595416614087659e+00 2.770696133457859e+00 0.000000000000000e+00
2.615146959318728e+00 2.770868289517782e+00 0.000000000000000e+00
2.634970296376315e+00 2.772033010742521e+00 0.000000000000000e+00
2.654613944953672e+00 2.773265745004794e+00 0.000000000000000e+00
2.674393038308345e+00 2.774195333208976e+00 0.000000000000000e+00
2.694834435818692e+00 2.775876567128166e+00 0.000000000000000e+00
2.713945404285290e+00 2.775208563628557e+00 0.000000000000000e+00
2.733412085066958e+00 2.771427243464417e+00 0.000000000000000e+00
2.751402227954528e+00 2.765029183509652e+00 0.000000000000000e+00
2.770463036480090e+00 2.758880168297298e+00 0.000000000000000e+00
2.789846373126005e+00 2.754263965353474e+00 0.000000000000000e+00
2.809535377528880e+00 2.753608627523378e+00 0.000000000000000e+00
2.829557551660065e+00 2.756115949445383e+00 0.000000000000000e+00
2.847566189015694e+00 2.761644438636765e+00 0.000000000000000e+00
2.864650335996958e+00 2.771875523048636e+00 0.000000000000000e+00
2.879708113228652e+00 2.783459936411600e+00 0.000000000000000e+00
2.894843009668213e+00 2.797435146011596e+00 0.000000000000000e+00
2.908646774366038e+00 2.811883148351801e+00 0.000000000000000e+00
2.921276782702424e+00 2.826954892821505e+00 0.000000000000000e+00
2.932535665166495e+00 2.844363279643386e+00 0.000000000000000e+00
2.941891794552780e+00 2.862075053020813e+00 0.000000000000000e+00
2.950505858424656e+00 2.880988331634188e+00 0.000000000000000e+00
2.957353519791641e+00 2.901131993133898e+00 0.000000000000000e+00
2.963928456364118e+00 2.921925744721450e+00 0.000000000000000e+00
2.970713755786755e+00 2.943384547052489e+00 0.000000000000000e+00
2.978782129562847e+00 2.964637709545324e+00 0.000000000000000e+00
2.988743257856841e+00 2.985811543585608e+00 0.000000000000000e+00
3.000400324518447e+00 3.005218440439517e+00 0.000000000000000e+00
3.014731657170645e+00 3.023744247108576e+00 0.000000000000000e+00
3.030291288291296e+00 3.039770011200172e+00 0.000000000000000e+00
3.048061316519709e+00 3.054732333335038e+00 0.000000000000000e+00
3.066458347233311e+00 3.067296960201708e+00 0.000000000000000e+00
3.086341318880242e+00 3.079206065788690e+00 0.000000000000000e+00
3.106405857300534e+00 3.089031669130548e+00 0.000000000000000e+00
3.127485051127442e+00 3.097576299815125e+00 0.000000000000000e+00
3.148899576098280e+00 3.105567573125973e+00 0.000000000000000e+00
3.170880061519733e+00 3.113399975524326e+00 0.000000000000000e+00
3.192856554085552e+00 3.119281853005583e+00 0.000000000000000e+00
3.214490385910041e+00 3.123694219465677e+00 0.000000000000000e+00
3.237146233396395e+00 3.128312362491341e+00 0.000000000000000e+00
3.259170435267113e+00 3.133196540320599e+00 0.000000000000000e+00
3.281270624108751e+00 3.136345638754044e+00 0.000000000000000e+00
3.303444446179674e+00 3.138086720936849e+00 0.000000000000000e+00
3.326339749513913e+00 3.139724971090229e+00 0.000000000000000e+00
3.348428372185628e+00 3.141380291673910e+00 0.000000000000000e+00
3.370380851522464e+00 3.142003953204595e+00 0.000000000000000e+00
3.392913498925985e+00 3.140788582631130e+00 0.000000000000000e+00
3.415448484714363e+00 3.139526038997262e+00 0.000000000000000e+00
3.437234281304865e+00 3.139046266999464e+00 0.000000000000000e+00
3.459222020809633e+00 3.136567818347666e+00 0.000000000000000e+00
3.481346128562885e+00 3.133609172095437e+00 0.000000000000000e+00
3.503266200816409e+00 3.130827140768371e+00 0.000000000000000e+00
3.524755475932164e+00 3.127841632467002e+00 0.000000000000000e+00
3.546649397200570e+00 3.124542796606943e+00 0.000000000000000e+00
3.568363869615775e+00 3.121200649976919e+00 0.000000000000000e+00
3.589801241784313e+00 3.117747862853905e+00 0.000000000000000e+00
3.611331656381293e+00 3.113884734519465e+00 0.000000000000000e+00
3.632866046248044e+00 3.110168398031074e+00 0.000000000000000e+00
3.654370444752328e+00 3.106557841150051e+00 0.000000000000000e+00
3.675691980627727e+00 3.102422636967466e+00 0.000000000000000e+00
3.696910086913993e+00 3.097298439052072e+00 0.000000000000000e+00
3.717825699978329e+00 3.092323620743331e+00 0.000000000000000e+00
3.739144710468757e+00 3.087174620688416e+00 0.000000000000000e+00
3.760183972355670e+00 3.081823129432424e+00 0.000000000000000e+00
3.781175638852865e+00 3.076055356424452e+00 0.000000000000000e+00
3.801882756882420e+00 3.070162726086247e+00 0.000000000000000e+00
3.822460844181832e+00 3.064276653807033e+00 0.000000000000000e+00
3.843111436894996e+00 3.057930102471937e+00 0.000000000000000e+00
3.863803959200329e+00 3.051124433494387e+00 0.000000000000000e+00
3.883705656919385e+00 3.043081479974945e+00 0.000000000000000e+00
3.903567151673494e+00 3.034137897843268e+00 0.000000000000000e+00
3.923813603775981e+00 3.027975397310515e+00 0.000000000000000e+00
3.943920204463188e+00 3.022893168327009e+00 0.000000000000000e+00
3.964269609819007e+00 3.012119154591641e+00 0.000000000000000e+00
3.983599158832573e+00 3.005813312094734e+00 0.000000000000000e+00

POINT_DATA   310
SCALARS fTan double
LOOKUP_TABLE default

6.697591e+02 
2.762825e+03 
3.775405e+03 
3.220962e+03 
6.575326e+03 
1.358800e+04 
1.431607e+04 
1.329357e+04 
1.369681e+04 
1.009537e+04 
6.286268e+03 
5.888854e+03 
3.615701e+03 
6.321741e+02 
9.078206e+02 
1.245497e+03 
3.594271e+03 
3.221395e+03 
5.112285e+02 
1.129734e+03 
1.558312e+03 
3.936171e+03 
6.869231e+03 
8.468430e+03 
1.356618e+04 
1.670269e+04 
1.876498e+04 
1.945160e+04 
1.868079e+04 
1.619501e+04 
1.153973e+04 
9.618215e+03 
1.322645e+04 
1.575235e+04 
1.370917e+04 
8.397935e+03 
3.239022e+03 
7.037666e+03 
1.095611e+04 
1.081411e+04 
1.525701e+04 
1.437652e+04 
4.868364e+03 
1.998585e+03 
5.563861e+03 
5.550743e+03 
7.434759e+02 
4.211404e+03 
2.847033e+03 
2.124009e+03 
2.616562e+03 
6.406730e+02 
5.906270e+02 
2.467050e+03 
4.244342e+03 
2.327802e+03 
1.762980e+03 
1.253740e+03 
1.838985e+03 
4.759394e+03 
9.111079e+03 
8.557190e+03 
1.985431e+03 
6.292864e+03 
4.526987e+02 
1.265158e+04 
1.260245e+04 
2.940546e+03 
2.743107e+03 
2.898925e+03 
1.184066e+03 
3.216014e+03 
2.414152e+03 
6.208469e+02 
7.427551e+02 
4.716813e+03 
2.854025e+03 
2.836222e+02 
1.210022e+03 
3.333311e+03 
4.337139e+03 
1.143620e+03 
8.237270e+02 
1.242457e+03 
5.959481e+03 
1.392053e+04 
8.188663e+03 
6.545562e+03 
9.694547e+03 
2.216379e+03 
3.501681e+03 
3.783246e+03 
1.218802e+04 
1.203892e+04 
1.001371e+04 
1.477989e+04 
8.323296e+03 
5.204559e+03 
9.036929e+03 
1.093985e+04 
6.097499e+03 
2.386989e+03 
1.161222e+03 
5.510329e+02 
5.911308e+03 
4.707308e+03 
6.270768e+03 
7.183786e+03 
1.002755e+04 
9.564158e+03 
1.025725e+04 
9.670580e+03 
8.960379e+03 
3.398018e+03 
4.227013e+02 
4.689277e+03 
5.906021e+03 
6.428689e+03 
1.091426e+04 
5.468884e+03 
2.823909e+03 
1.016032e+03 
7.314397e+03 
8.084400e+03 
2.172345e+03 
5.936673e+03 
2.410421e+02 
7.597581e+03 
2.929360e+03 
1.816379e+03 
2.199346e+03 
3.972845e+03 
4.423679e+03 
1.580312e+03 
2.155581e+03 
1.684987e+03 
4.230618e+02 
3.933515e+02 
6.349466e+02 
1.073023e+03 
3.142240e+03 
4.146726e+03 
2.610360e+03 
6.516481e+02 
1.974220e+03 
6.539429e+02 
2.217342e+03 
1.193377e+03 
3.768069e+03 
2.859901e+03 
5.570725e+03 
3.958039e+03 
2.351628e+04 
2.741100e+04 
6.767886e+03 
6.697591e+02 
2.762825e+03 
3.775405e+03 
3.220962e+03 
6.575326e+03 
1.358800e+04 
1.431607e+04 
1.329357e+04 
1.369681e+04 
1.009537e+04 
6.286268e+03 
5.888854e+03 
3.615701e+03 
6.321741e+02 
9.078206e+02 
1.245497e+03 
3.594271e+03 
3.221395e+03 
5.112285e+02 
1.129734e+03 
1.558312e+03 
3.936171e+03 
6.869231e+03 
8.468430e+03 
1.356618e+04 
1.670269e+04 
1.876498e+04 
1.945160e+04 
1.868079e+04 
1.619501e+04 
1.153973e+04 
9.618215e+03 
1.322645e+04 
1.575235e+04 
1.370917e+04 
8.397935e+03 
3.239022e+03 
7.037666e+03 
1.095611e+04 
1.081411e+04 
1.525701e+04 
1.437652e+04 
4.868364e+03 
1.998585e+03 
5.563861e+03 
5.550743e+03 
7.434759e+02 
4.211404e+03 
2.847033e+03 
2.124009e+03 
2.616562e+03 
6.406730e+02 
5.906270e+02 
2.467050e+03 
4.244342e+03 
2.327802e+03 
1.762980e+03 
1.253740e+03 
1.838985e+03 
4.759394e+03 
9.111079e+03 
8.557190e+03 
1.985431e+03 
6.292864e+03 
4.526987e+02 
1.265158e+04 
1.260245e+04 
2.940546e+03 
2.743107e+03 
2.898925e+03 
1.184066e+03 
3.216014e+03 
2.414152e+03 
6.208469e+02 
7.427551e+02 
4.716813e+03 
2.854025e+03 
2.836222e+02 
1.210022e+03 
3.333311e+03 
4.337139e+03 
1.143620e+03 
8.237270e+02 
1.242457e+03 
5.959481e+03 
1.392053e+04 
8.188663e+03 
6.545562e+03 
9.694547e+03 
2.216379e+03 
3.501681e+03 
3.783246e+03 
1.218802e+04 
1.203892e+04 
1.001371e+04 
1.477989e+04 
8.323296e+03 
5.204559e+03 
9.036929e+03 
1.093985e+04 
6.097499e+03 
2.386989e+03 
1.161222e+03 
5.510329e+02 
5.911308e+03 
4.707308e+03 
6.270768e+03 
7.183786e+03 
1.002755e+04 
9.564158e+03 
1.025725e+04 
9.670580e+03 
8.960379e+03 
3.398018e+03 
4.227013e+02 
4.689277e+03 
5.906021e+03 
6.428689e+03 
1.091426e+04 
5.468884e+03 
2.823909e+03 
1.016032e+03 
7.314397e+03 
8.084400e+03 
2.172345e+03 
5.936673e+03 
2.410421e+02 
7.597581e+03 
2.929360e+03 
1.816379e+03 
2.199346e+03 
3.972845e+03 
4.423679e+03 
1.580312e+03 
2.155581e+03 
1.684987e+03 
4.230618e+02 
3.933515e+02 
6.349466e+02 
1.073023e+03 
3.142240e+03 
4.146726e+03 
2.610360e+03 
6.516481e+02 
1.974220e+03 
6.539429e+02 
2.217342e+03 
1.193377e+03 
3.768069e+03 
2.859901e+03 
5.570725e+03 
3.958039e+03 
2.351628e+04 
2.741100e+04 
6.767886e+03 
