# vtk DataFile Version 2.0
fTan
ASCII
DATASET UNSTRUCTURED_GRID

FIELD FieldData 1
TIME 1 1 double
0.09500000
POINTS 310 float
1.000869838450327e+00 2.000288043196053e+00 0.000000000000000e+00
1.020448584407031e+00 2.005256951581440e+00 0.000000000000000e+00
1.038641717693637e+00 2.012016881985148e+00 0.000000000000000e+00
1.056888120824157e+00 2.018646119725864e+00 0.000000000000000e+00
1.070272042546261e+00 2.032158822955574e+00 0.000000000000000e+00
1.078810339782910e+00 2.050186437163944e+00 0.000000000000000e+00
1.085529616584940e+00 2.068605100024886e+00 0.000000000000000e+00
1.095195046883805e+00 2.086334339702245e+00 0.000000000000000e+00
1.109724571058768e+00 2.097308597195989e+00 0.000000000000000e+00
1.128668791715407e+00 2.102521702866141e+00 0.000000000000000e+00
1.147931150871931e+00 2.098881656654415e+00 0.000000000000000e+00
1.167682359075820e+00 2.093715247000028e+00 0.000000000000000e+00
1.186535590080244e+00 2.091218325381086e+00 0.000000000000000e+00
1.204428847035280e+00 2.097299180243572e+00 0.000000000000000e+00
1.219718654994013e+00 2.109825155416469e+00 0.000000000000000e+00
1.232004327942904e+00 2.125833874823207e+00 0.000000000000000e+00
1.245409655553131e+00 2.140453710120176e+00 0.000000000000000e+00
1.261351298171118e+00 2.150994947292083e+00 0.000000000000000e+00
1.279373064528805e+00 2.157925601609089e+00 0.000000000000000e+00
1.298747865745541e+00 2.161146986872216e+00 0.000000000000000e+00
1.318367490994433e+00 2.164089685279727e+00 0.000000000000000e+00
1.337027014703631e+00 2.169355473700960e+00 0.000000000000000e+00
1.354268274658405e+00 2.179260165127301e+00 0.000000000000000e+00
1.370406969974593e+00 2.190545282556497e+00 0.000000000000000e+00
1.388415679429267e+00 2.198633400718705e+00 0.000000000000000e+00
1.406572431577196e+00 2.203082703746279e+00 0.000000000000000e+00
1.426870891891383e+00 2.205825606121871e+00 0.000000000000000e+00
1.445875648506167e+00 2.205745074361088e+00 0.000000000000000e+00
1.465729374366430e+00 2.208910975030097e+00 0.000000000000000e+00
1.482878889596551e+00 2.216087501388483e+00 0.000000000000000e+00
1.501413572189474e+00 2.223901656061070e+00 0.000000000000000e+00
1.521020409295278e+00 2.223914920392252e+00 0.000000000000000e+00
1.540908117829432e+00 2.224997255639412e+00 0.000000000000000e+00
1.559956381505218e+00 2.224296743663845e+00 0.000000000000000e+00
1.579926933790054e+00 2.220911662705478e+00 0.000000000000000e+00
1.598853158102952e+00 2.219231687610252e+00 0.000000000000000e+00
1.618886805776262e+00 2.220179436115556e+00 0.000000000000000e+00
1.636927261697051e+00 2.213162505584233e+00 0.000000000000000e+00
1.656579316379989e+00 2.217589579078440e+00 0.000000000000000e+00
1.675489910360945e+00 2.221655582160125e+00 0.000000000000000e+00
1.695122031232895e+00 2.225148518687416e+00 0.000000000000000e+00
1.713477901376061e+00 2.232297127208070e+00 0.000000000000000e+00
1.732577476920197e+00 2.238607315980905e+00 0.000000000000000e+00
1.751586925659452e+00 2.242078831856641e+00 0.000000000000000e+00
1.771416363442742e+00 2.243252942543457e+00 0.000000000000000e+00
1.791249424796283e+00 2.247447728488336e+00 0.000000000000000e+00
1.806545892534909e+00 2.259965082360929e+00 0.000000000000000e+00
1.826357201170112e+00 2.260110632381888e+00 0.000000000000000e+00
1.845885712053153e+00 2.264064133119112e+00 0.000000000000000e+00
1.865156233619375e+00 2.268197959798767e+00 0.000000000000000e+00
1.883942840978748e+00 2.274055340085433e+00 0.000000000000000e+00
1.903727893031239e+00 2.277396611823002e+00 0.000000000000000e+00
1.923262357816637e+00 2.280840716999066e+00 0.000000000000000e+00
1.942095560755837e+00 2.286867427159779e+00 0.000000000000000e+00
1.960673425526559e+00 2.293537316979978e+00 0.000000000000000e+00
1.980563537343079e+00 2.294270228862640e+00 0.000000000000000e+00
1.999871886394226e+00 2.297729877972291e+00 0.000000000000000e+00
2.018476553858517e+00 2.304746584415395e+00 0.000000000000000e+00
2.038311005817310e+00 2.307018093082140e+00 0.000000000000000e+00
2.057999692370626e+00 2.308233564389952e+00 0.000000000000000e+00
2.077987765068896e+00 2.310411134871580e+00 0.000000000000000e+00
2.097297790677344e+00 2.312762635105886e+00 0.000000000000000e+00
2.117570567780759e+00 2.312778110382133e+00 0.000000000000000e+00
2.137047063967644e+00 2.308764690094820e+00 0.000000000000000e+00
2.156964308719870e+00 2.306930882812240e+00 0.000000000000000e+00
2.176819699361635e+00 2.304639398779611e+00 0.000000000000000e+00
2.196471329613407e+00 2.298559270181293e+00 0.000000000000000e+00
2.215390409202242e+00 2.292827871891130e+00 0.000000000000000e+00
2.234729431937115e+00 2.285929214544837e+00 0.000000000000000e+00
2.253333863048716e+00 2.278393008517342e+00 0.000000000000000e+00
2.271837677584951e+00 2.269242137690215e+00 0.000000000000000e+00
2.290300426164331e+00 2.260740450391012e+00 0.000000000000000e+00
2.309315710493614e+00 2.253762550086291e+00 0.000000000000000e+00
2.328226997963735e+00 2.245817581594718e+00 0.000000000000000e+00
2.347131001667409e+00 2.237091076570540e+00 0.000000000000000e+00
2.366481329115410e+00 2.230406534569263e+00 0.000000000000000e+00
2.386103005780341e+00 2.225365008317710e+00 0.000000000000000e+00
2.405934658472722e+00 2.219585298911297e+00 0.000000000000000e+00
2.426156891761715e+00 2.214207535709139e+00 0.000000000000000e+00
2.446140075813899e+00 2.210175327709275e+00 0.000000000000000e+00
2.466879168972900e+00 2.205714721054836e+00 0.000000000000000e+00
2.486226975053749e+00 2.202073015891592e+00 0.000000000000000e+00
2.506952957227661e+00 2.196572070901010e+00 0.000000000000000e+00
2.527459235581230e+00 2.192044341161555e+00 0.000000000000000e+00
2.547132384577713e+00 2.189519220214599e+00 0.000000000000000e+00
2.568868067288588e+00 2.185178336103435e+00 0.000000000000000e+00
2.588482749760046e+00 2.180857849162242e+00 0.000000000000000e+00
2.609514492688458e+00 2.176826458501326e+00 0.000000000000000e+00
2.629243548066779e+00 2.175169309573688e+00 0.000000000000000e+00
2.651358442671244e+00 2.173352812870905e+00 0.000000000000000e+00
2.671725519395539e+00 2.172222549309176e+00 0.000000000000000e+00
2.693382121150172e+00 2.170380916317364e+00 0.000000000000000e+00
2.714687279015805e+00 2.169925195867622e+00 0.000000000000000e+00
2.734760126402174e+00 2.170494107250730e+00 0.000000000000000e+00
2.756938496084938e+00 2.170483509094925e+00 0.000000000000000e+00
2.777847581637085e+00 2.170891488023285e+00 0.000000000000000e+00
2.799882561279162e+00 2.171776073957929e+00 0.000000000000000e+00
2.820885576992910e+00 2.173423751619211e+00 0.000000000000000e+00
2.840920855009474e+00 2.177727251082181e+00 0.000000000000000e+00
2.862182528812616e+00 2.183059140553801e+00 0.000000000000000e+00
2.883069120215802e+00 2.187219356180548e+00 0.000000000000000e+00
2.904144020039319e+00 2.191157551065256e+00 0.000000000000000e+00
2.925514720474330e+00 2.193847150779513e+00 0.000000000000000e+00
2.945887272067929e+00 2.197142975867910e+00 0.000000000000000e+00
2.967089644108232e+00 2.203884924954775e+00 0.000000000000000e+00
2.986394297700298e+00 2.212118354032947e+00 0.000000000000000e+00
3.007124532608848e+00 2.222070601714302e+00 0.000000000000000e+00
3.027096858218681e+00 2.231697061655576e+00 0.000000000000000e+00
3.045827755825147e+00 2.239666427333194e+00 0.000000000000000e+00
3.066810997759258e+00 2.243799326473149e+00 0.000000000000000e+00
3.087805132945925e+00 2.243645849030433e+00 0.000000000000000e+00
3.108445862718680e+00 2.240595531159675e+00 0.000000000000000e+00
3.130384740713972e+00 2.235103654914589e+00 0.000000000000000e+00
3.150213625261703e+00 2.228565379849916e+00 0.000000000000000e+00
3.170438515052709e+00 2.220173621848550e+00 0.000000000000000e+00
3.190335969278754e+00 2.210719733943665e+00 0.000000000000000e+00
3.209903109147869e+00 2.201088796979405e+00 0.000000000000000e+00
3.229804126709051e+00 2.191322121814345e+00 0.000000000000000e+00
3.248764862128632e+00 2.181964645564083e+00 0.000000000000000e+00
3.269033310198893e+00 2.172116163166497e+00 0.000000000000000e+00
3.288426498288614e+00 2.162821291789622e+00 0.000000000000000e+00
3.307929288627311e+00 2.153109533784565e+00 0.000000000000000e+00
3.326911252665822e+00 2.143446703029503e+00 0.000000000000000e+00
3.347058022103944e+00 2.133333706834241e+00 0.000000000000000e+00
3.366610746910366e+00 2.123532422673694e+00 0.000000000000000e+00
3.385596390268975e+00 2.113385715755370e+00 0.000000000000000e+00
3.405279747275277e+00 2.103647390795959e+00 0.000000000000000e+00
3.425331895296865e+00 2.094154154971106e+00 0.000000000000000e+00
3.443739912520944e+00 2.084749669266012e+00 0.000000000000000e+00
3.463868129467863e+00 2.075622730896495e+00 0.000000000000000e+00
3.483240828889105e+00 2.066607370723402e+00 0.000000000000000e+00
3.502884477908788e+00 2.057660866924988e+00 0.000000000000000e+00
3.522352875840950e+00 2.048644180482346e+00 0.000000000000000e+00
3.541897044737313e+00 2.039793373121734e+00 0.000000000000000e+00
3.561645943468942e+00 2.031121002187947e+00 0.000000000000000e+00
3.580712363517130e+00 2.022053796578551e+00 0.000000000000000e+00
3.600393958282763e+00 2.013452625081000e+00 0.000000000000000e+00
3.620319074178433e+00 2.005788645537302e+00 0.000000000000000e+00
3.640971967915621e+00 1.998962490313567e+00 0.000000000000000e+00
3.661235260245355e+00 1.993173973569481e+00 0.000000000000000e+00
3.682639980767434e+00 1.988273020703916e+00 0.000000000000000e+00
3.703227838898408e+00 1.984734167770552e+00 0.000000000000000e+00
3.724476083870235e+00 1.982578722738000e+00 0.000000000000000e+00
3.746629769105091e+00 1.981671549944529e+00 0.000000000000000e+00
3.767939972793898e+00 1.981185915158962e+00 0.000000000000000e+00
3.788679064603042e+00 1.981160243359695e+00 0.000000000000000e+00
3.810607728685472e+00 1.982652925940647e+00 0.000000000000000e+00
3.832467058611329e+00 1.984467505493459e+00 0.000000000000000e+00
3.853886708165909e+00 1.985549214993170e+00 0.000000000000000e+00
3.874839535021143e+00 1.986867876853526e+00 0.000000000000000e+00
3.896528516244999e+00 1.989812972554051e+00 0.000000000000000e+00
3.918101557973224e+00 1.992178226334455e+00 0.000000000000000e+00
3.939419351742622e+00 1.992552309888656e+00 0.000000000000000e+00
3.960446286110235e+00 1.996245606527780e+00 0.000000000000000e+00
3.982236569167725e+00 1.997543944205891e+00 0.000000000000000e+00
1.000869838450329e+00 2.999711956803946e+00 0.000000000000000e+00
1.020448584407036e+00 2.994743048418572e+00 0.000000000000000e+00
1.038641717693644e+00 2.987983118014871e+00 0.000000000000000e+00
1.056888120824175e+00 2.981353880274175e+00 0.000000000000000e+00
1.070272042546298e+00 2.967841177044487e+00 0.000000000000000e+00
1.078810339782962e+00 2.949813562836129e+00 0.000000000000000e+00
1.085529616585002e+00 2.931394899975189e+00 0.000000000000000e+00
1.095195046883856e+00 2.913665660297821e+00 0.000000000000000e+00
1.109724571058800e+00 2.902691402804059e+00 0.000000000000000e+00
1.128668791715429e+00 2.897478297133889e+00 0.000000000000000e+00
1.147931150871955e+00 2.901118343345596e+00 0.000000000000000e+00
1.167682359075849e+00 2.906284752999963e+00 0.000000000000000e+00
1.186535590080275e+00 2.908781674618886e+00 0.000000000000000e+00
1.204428847035300e+00 2.902700819756383e+00 0.000000000000000e+00
1.219718654994008e+00 2.890174844583452e+00 0.000000000000000e+00
1.232004327942881e+00 2.874166125176701e+00 0.000000000000000e+00
1.245409655553103e+00 2.859546289879730e+00 0.000000000000000e+00
1.261351298171099e+00 2.849005052707841e+00 0.000000000000000e+00
1.279373064528802e+00 2.842074398390870e+00 0.000000000000000e+00
1.298747865745544e+00 2.838853013127785e+00 0.000000000000000e+00
1.318367490994443e+00 2.835910314720310e+00 0.000000000000000e+00
1.337027014703646e+00 2.830644526299097e+00 0.000000000000000e+00
1.354268274658429e+00 2.820739834872771e+00 0.000000000000000e+00
1.370406969974620e+00 2.809454717443582e+00 0.000000000000000e+00
1.388415679429299e+00 2.801366599281384e+00 0.000000000000000e+00
1.406572431577231e+00 2.796917296253822e+00 0.000000000000000e+00
1.426870891891420e+00 2.794174393878210e+00 0.000000000000000e+00
1.445875648506203e+00 2.794254925638940e+00 0.000000000000000e+00
1.465729374366453e+00 2.791089024969865e+00 0.000000000000000e+00
1.482878889596558e+00 2.783912498611425e+00 0.000000000000000e+00
1.501413572189469e+00 2.776098343938830e+00 0.000000000000000e+00
1.521020409295275e+00 2.776085079607685e+00 0.000000000000000e+00
1.540908117829436e+00 2.775002744360596e+00 0.000000000000000e+00
1.559956381505216e+00 2.775703256336233e+00 0.000000000000000e+00
1.579926933790052e+00 2.779088337294631e+00 0.000000000000000e+00
1.598853158102947e+00 2.780768312389853e+00 0.000000000000000e+00
1.618886805776260e+00 2.779820563884529e+00 0.000000000000000e+00
1.636927261697053e+00 2.786837494415846e+00 0.000000000000000e+00
1.656579316379985e+00 2.782410420921616e+00 0.000000000000000e+00
1.675489910360943e+00 2.778344417839920e+00 0.000000000000000e+00
1.695122031232893e+00 2.774851481312640e+00 0.000000000000000e+00
1.713477901376064e+00 2.767702872791996e+00 0.000000000000000e+00
1.732577476920204e+00 2.761392684019165e+00 0.000000000000000e+00
1.751586925659457e+00 2.757921168143428e+00 0.000000000000000e+00
1.771416363442749e+00 2.756747057456610e+00 0.000000000000000e+00
1.791249424796289e+00 2.752552271511735e+00 0.000000000000000e+00
1.806545892534920e+00 2.740034917639147e+00 0.000000000000000e+00
1.826357201170124e+00 2.739889367618177e+00 0.000000000000000e+00
1.845885712053162e+00 2.735935866880947e+00 0.000000000000000e+00
1.865156233619386e+00 2.731802040201282e+00 0.000000000000000e+00
1.883942840978755e+00 2.725944659914604e+00 0.000000000000000e+00
1.903727893031244e+00 2.722603388177030e+00 0.000000000000000e+00
1.923262357816646e+00 2.719159283000972e+00 0.000000000000000e+00
1.942095560755843e+00 2.713132572840257e+00 0.000000000000000e+00
1.960673425526568e+00 2.706462683020064e+00 0.000000000000000e+00
1.980563537343089e+00 2.705729771137400e+00 0.000000000000000e+00
1.999871886394238e+00 2.702270122027752e+00 0.000000000000000e+00
2.018476553858527e+00 2.695253415584645e+00 0.000000000000000e+00
2.038311005817321e+00 2.692981906917902e+00 0.000000000000000e+00
2.057999692370639e+00 2.691766435610100e+00 0.000000000000000e+00
2.077987765068908e+00 2.689588865128468e+00 0.000000000000000e+00
2.097297790677356e+00 2.687237364894166e+00 0.000000000000000e+00
2.117570567780771e+00 2.687221889617919e+00 0.000000000000000e+00
2.137047063967658e+00 2.691235309905237e+00 0.000000000000000e+00
2.156964308719880e+00 2.693069117187817e+00 0.000000000000000e+00
2.176819699361646e+00 2.695360601220441e+00 0.000000000000000e+00
2.196471329613416e+00 2.701440729818768e+00 0.000000000000000e+00
2.215390409202251e+00 2.707172128108929e+00 0.000000000000000e+00
2.234729431937124e+00 2.714070785455220e+00 0.000000000000000e+00
2.253333863048724e+00 2.721606991482718e+00 0.000000000000000e+00
2.271837677584961e+00 2.730757862309847e+00 0.000000000000000e+00
2.290300426164336e+00 2.739259549609048e+00 0.000000000000000e+00
2.309315710493624e+00 2.746237449913769e+00 0.000000000000000e+00
2.328226997963741e+00 2.754182418405340e+00 0.000000000000000e+00
2.347131001667423e+00 2.762908923429515e+00 0.000000000000000e+00
2.366481329115422e+00 2.769593465430785e+00 0.000000000000000e+00
2.386103005780353e+00 2.774634991682339e+00 0.000000000000000e+00
2.405934658472735e+00 2.780414701088754e+00 0.000000000000000e+00
2.426156891761730e+00 2.785792464290906e+00 0.000000000000000e+00
2.446140075813916e+00 2.789824672290768e+00 0.000000000000000e+00
2.466879168972917e+00 2.794285278945204e+00 0.000000000000000e+00
2.486226975053766e+00 2.797926984108447e+00 0.000000000000000e+00
2.506952957227680e+00 2.803427929099032e+00 0.000000000000000e+00
2.527459235581248e+00 2.807955658838478e+00 0.000000000000000e+00
2.547132384577731e+00 2.810480779785426e+00 0.000000000000000e+00
2.568868067288611e+00 2.814821663896592e+00 0.000000000000000e+00
2.588482749760063e+00 2.819142150837782e+00 0.000000000000000e+00
2.609514492688477e+00 2.823173541498699e+00 0.000000000000000e+00
2.629243548066801e+00 2.824830690426338e+00 0.000000000000000e+00
2.651358442671265e+00 2.826647187129117e+00 0.000000000000000e+00
2.671725519395558e+00 2.827777450690846e+00 0.000000000000000e+00
2.693382121150192e+00 2.829619083682657e+00 0.000000000000000e+00
2.714687279015823e+00 2.830074804132397e+00 0.000000000000000e+00
2.734760126402191e+00 2.829505892749285e+00 0.000000000000000e+00
2.756938496084957e+00 2.829516490905094e+00 0.000000000000000e+00
2.777847581637101e+00 2.829108511976731e+00 0.000000000000000e+00
2.799882561279183e+00 2.828223926042086e+00 0.000000000000000e+00
2.820885576992927e+00 2.826576248380807e+00 0.000000000000000e+00
2.840920855009494e+00 2.822272748917837e+00 0.000000000000000e+00
2.862182528812632e+00 2.816940859446212e+00 0.000000000000000e+00
2.883069120215820e+00 2.812780643819464e+00 0.000000000000000e+00
2.904144020039335e+00 2.808842448934759e+00 0.000000000000000e+00
2.925514720474344e+00 2.806152849220503e+00 0.000000000000000e+00
2.945887272067947e+00 2.802857024132102e+00 0.000000000000000e+00
2.967089644108244e+00 2.796115075045236e+00 0.000000000000000e+00
2.986394297700317e+00 2.787881645967061e+00 0.000000000000000e+00
3.007124532608860e+00 2.777929398285710e+00 0.000000000000000e+00
3.027096858218703e+00 2.768302938344434e+00 0.000000000000000e+00
3.045827755825159e+00 2.760333572666819e+00 0.000000000000000e+00
3.066810997759275e+00 2.756200673526865e+00 0.000000000000000e+00
3.087805132945941e+00 2.756354150969582e+00 0.000000000000000e+00
3.108445862718694e+00 2.759404468840341e+00 0.000000000000000e+00
3.130384740713982e+00 2.764896345085428e+00 0.000000000000000e+00
3.150213625261715e+00 2.771434620150111e+00 0.000000000000000e+00
3.170438515052720e+00 2.779826378151475e+00 0.000000000000000e+00
3.190335969278761e+00 2.789280266056360e+00 0.000000000000000e+00
3.209903109147882e+00 2.798911203020623e+00 0.000000000000000e+00
3.229804126709061e+00 2.808677878185686e+00 0.000000000000000e+00
3.248764862128648e+00 2.818035354435947e+00 0.000000000000000e+00
3.269033310198903e+00 2.827883836833533e+00 0.000000000000000e+00
3.288426498288632e+00 2.837178708210407e+00 0.000000000000000e+00
3.307929288627324e+00 2.846890466215464e+00 0.000000000000000e+00
3.326911252665836e+00 2.856553296970530e+00 0.000000000000000e+00
3.347058022103962e+00 2.866666293165792e+00 0.000000000000000e+00
3.366610746910377e+00 2.876467577326339e+00 0.000000000000000e+00
3.385596390268994e+00 2.886614284244661e+00 0.000000000000000e+00
3.405279747275288e+00 2.896352609204070e+00 0.000000000000000e+00
3.425331895296879e+00 2.905845845028924e+00 0.000000000000000e+00
3.443739912520953e+00 2.915250330734016e+00 0.000000000000000e+00
3.463868129467879e+00 2.924377269103534e+00 0.000000000000000e+00
3.483240828889114e+00 2.933392629276625e+00 0.000000000000000e+00
3.502884477908803e+00 2.942339133075041e+00 0.000000000000000e+00
3.522352875840960e+00 2.951355819517683e+00 0.000000000000000e+00
3.541897044737323e+00 2.960206626878295e+00 0.000000000000000e+00
3.561645943468952e+00 2.968878997812082e+00 0.000000000000000e+00
3.580712363517140e+00 2.977946203421478e+00 0.000000000000000e+00
3.600393958282778e+00 2.986547374919030e+00 0.000000000000000e+00
3.620319074178439e+00 2.994211354462728e+00 0.000000000000000e+00
3.640971967915632e+00 3.001037509686463e+00 0.000000000000000e+00
3.661235260245363e+00 3.006826026430543e+00 0.000000000000000e+00
3.682639980767445e+00 3.011726979296108e+00 0.000000000000000e+00
3.703227838898420e+00 3.015265832229471e+00 0.000000000000000e+00
3.724476083870244e+00 3.017421277262024e+00 0.000000000000000e+00
3.746629769105104e+00 3.018328450055491e+00 0.000000000000000e+00
3.767939972793902e+00 3.018814084841059e+00 0.000000000000000e+00
3.788679064603058e+00 3.018839756640318e+00 0.000000000000000e+00
3.810607728685479e+00 3.017347074059370e+00 0.000000000000000e+00
3.832467058611342e+00 3.015532494506554e+00 0.000000000000000e+00
3.853886708165917e+00 3.014450785006845e+00 0.000000000000000e+00
3.874839535021151e+00 3.013132123146487e+00 0.000000000000000e+00
3.896528516245006e+00 3.010187027445960e+00 0.000000000000000e+00
3.918101557973232e+00 3.007821773665552e+00 0.000000000000000e+00
3.939419351742629e+00 3.007447690111351e+00 0.000000000000000e+00
3.960446286110241e+00 3.003754393472228e+00 0.000000000000000e+00
3.982236569167731e+00 3.002456055794114e+00 0.000000000000000e+00

POINT_DATA   310
SCALARS fTan double
LOOKUP_TABLE default

6.646498e+03 
7.703710e+03 
3.648749e+02 
3.445968e+03 
9.673625e+03 
2.285057e+03 
6.178078e+03 
2.234367e+04 
1.418002e+04 
1.599266e+03 
8.387302e+03 
1.442132e+04 
2.019733e+03 
8.283598e+03 
4.787288e+03 
3.802744e+03 
7.764910e+03 
2.243300e+03 
3.623965e+03 
2.143204e+03 
4.534790e+03 
4.216333e+03 
2.568157e+03 
5.975422e+02 
1.005546e+04 
1.795448e+04 
1.472574e+04 
1.088843e+04 
1.504851e+04 
1.527912e+04 
5.256592e+03 
3.521301e+03 
8.531988e+03 
1.190534e+04 
1.249717e+04 
1.049588e+04 
6.437477e+03 
7.271467e+03 
7.894934e+03 
6.188154e+03 
2.412531e+03 
4.811203e+03 
8.081038e+03 
5.162793e+03 
3.904204e+03 
5.034098e+03 
7.385068e+02 
1.652758e+03 
2.340972e+03 
4.512404e+02 
4.115947e+03 
2.226992e+03 
9.422831e+02 
5.669480e+02 
1.798098e+03 
2.749620e+03 
2.616596e+03 
5.360498e+02 
2.685239e+03 
3.723902e+03 
6.209642e+03 
8.177079e+03 
4.443802e+03 
1.392287e+03 
1.721692e+02 
5.530624e+03 
7.695122e+03 
7.565594e+03 
4.379491e+03 
5.598839e+03 
2.680454e+03 
1.201311e+03 
2.586592e+03 
2.935401e+03 
3.245435e+03 
1.817425e+03 
3.942626e+03 
2.149679e+03 
5.294114e+03 
8.493363e+03 
1.476108e+04 
1.761505e+04 
5.134127e+03 
1.226395e+04 
2.352927e+04 
2.028592e+04 
1.336905e+04 
1.589925e+04 
2.360850e+04 
1.824925e+04 
1.254364e+04 
4.084230e+03 
1.133253e+04 
2.099710e+04 
1.301402e+04 
1.131300e+04 
9.732394e+03 
4.797850e+03 
1.500053e+04 
7.762209e+03 
3.954630e+01 
1.391213e+03 
8.280002e+03 
1.735360e+04 
1.243718e+04 
1.877997e+04 
8.270375e+03 
1.669256e+04 
1.016805e+04 
3.470086e+03 
7.256216e+02 
1.776075e+04 
1.866310e+04 
9.819829e+03 
1.123795e+03 
2.032212e+03 
2.951760e+03 
9.399313e+03 
1.401954e+04 
1.012743e+04 
2.259119e+03 
4.302337e+03 
1.213917e+04 
7.025051e+03 
3.244627e+03 
4.766686e+03 
1.586046e+03 
1.556065e+04 
1.362854e+04 
7.205416e+03 
2.583741e+03 
6.541326e+02 
2.901713e+02 
1.527509e+03 
4.578271e+03 
2.774443e+03 
1.435583e+03 
4.180601e+03 
6.368236e+03 
8.814972e+03 
1.071927e+04 
4.662681e+03 
7.975637e+03 
8.438722e+03 
6.068990e+03 
1.207089e+04 
3.143687e+01 
4.655026e+03 
4.895343e+03 
8.684368e+03 
1.601820e+03 
3.662471e+03 
2.821079e+02 
4.779154e+03 
5.279062e+03 
6.646498e+03 
7.703710e+03 
3.648749e+02 
3.445968e+03 
9.673625e+03 
2.285057e+03 
6.178078e+03 
2.234367e+04 
1.418002e+04 
1.599266e+03 
8.387302e+03 
1.442132e+04 
2.019733e+03 
8.283598e+03 
4.787288e+03 
3.802744e+03 
7.764910e+03 
2.243300e+03 
3.623965e+03 
2.143204e+03 
4.534790e+03 
4.216333e+03 
2.568157e+03 
5.975422e+02 
1.005546e+04 
1.795448e+04 
1.472574e+04 
1.088843e+04 
1.504851e+04 
1.527912e+04 
5.256592e+03 
3.521301e+03 
8.531988e+03 
1.190534e+04 
1.249717e+04 
1.049588e+04 
6.437477e+03 
7.271467e+03 
7.894934e+03 
6.188154e+03 
2.412531e+03 
4.811203e+03 
8.081038e+03 
5.162793e+03 
3.904204e+03 
5.034098e+03 
7.385068e+02 
1.652758e+03 
2.340972e+03 
4.512404e+02 
4.115947e+03 
2.226992e+03 
9.422831e+02 
5.669480e+02 
1.798098e+03 
2.749620e+03 
2.616596e+03 
5.360498e+02 
2.685239e+03 
3.723902e+03 
6.209642e+03 
8.177079e+03 
4.443802e+03 
1.392287e+03 
1.721692e+02 
5.530624e+03 
7.695122e+03 
7.565594e+03 
4.379491e+03 
5.598839e+03 
2.680454e+03 
1.201311e+03 
2.586592e+03 
2.935401e+03 
3.245435e+03 
1.817425e+03 
3.942626e+03 
2.149679e+03 
5.294114e+03 
8.493363e+03 
1.476108e+04 
1.761505e+04 
5.134127e+03 
1.226395e+04 
2.352927e+04 
2.028592e+04 
1.336905e+04 
1.589925e+04 
2.360850e+04 
1.824925e+04 
1.254364e+04 
4.084230e+03 
1.133253e+04 
2.099710e+04 
1.301402e+04 
1.131300e+04 
9.732394e+03 
4.797850e+03 
1.500053e+04 
7.762209e+03 
3.954630e+01 
1.391213e+03 
8.280002e+03 
1.735360e+04 
1.243718e+04 
1.877997e+04 
8.270375e+03 
1.669256e+04 
1.016805e+04 
3.470086e+03 
7.256216e+02 
1.776075e+04 
1.866310e+04 
9.819829e+03 
1.123795e+03 
2.032212e+03 
2.951760e+03 
9.399313e+03 
1.401954e+04 
1.012743e+04 
2.259119e+03 
4.302337e+03 
1.213917e+04 
7.025051e+03 
3.244627e+03 
4.766686e+03 
1.586046e+03 
1.556065e+04 
1.362854e+04 
7.205416e+03 
2.583741e+03 
6.541326e+02 
2.901713e+02 
1.527509e+03 
4.578271e+03 
2.774443e+03 
1.435583e+03 
4.180601e+03 
6.368236e+03 
8.814972e+03 
1.071927e+04 
4.662681e+03 
7.975637e+03 
8.438722e+03 
6.068990e+03 
1.207089e+04 
3.143687e+01 
4.655026e+03 
4.895343e+03 
8.684368e+03 
1.601820e+03 
3.662471e+03 
2.821079e+02 
4.779154e+03 
5.279062e+03 
