# vtk DataFile Version 2.0
fTan
ASCII
DATASET UNSTRUCTURED_GRID

FIELD FieldData 1
TIME 1 1 double
0.18500000
POINTS 310 float
1.010751747759899e+00 2.006053527577681e+00 0.000000000000000e+00
1.029224777937169e+00 2.015958431664751e+00 0.000000000000000e+00
1.047664403473789e+00 2.024838484517350e+00 0.000000000000000e+00
1.066406374510299e+00 2.034126380513667e+00 0.000000000000000e+00
1.084693338137642e+00 2.044056123427512e+00 0.000000000000000e+00
1.103870391690125e+00 2.052503453466119e+00 0.000000000000000e+00
1.123007735208099e+00 2.059952635604801e+00 0.000000000000000e+00
1.142124630190341e+00 2.068347878523027e+00 0.000000000000000e+00
1.161726797397657e+00 2.075602534157752e+00 0.000000000000000e+00
1.180732899065849e+00 2.083951793719296e+00 0.000000000000000e+00
1.200755152484234e+00 2.089803444842045e+00 0.000000000000000e+00
1.220239482272365e+00 2.097230896472947e+00 0.000000000000000e+00
1.240244337903186e+00 2.102995089878278e+00 0.000000000000000e+00
1.259795221599144e+00 2.109982511505957e+00 0.000000000000000e+00
1.280205296465987e+00 2.115125880246756e+00 0.000000000000000e+00
1.299912698110679e+00 2.120911782978092e+00 0.000000000000000e+00
1.320413041768506e+00 2.126226481436180e+00 0.000000000000000e+00
1.340432975978979e+00 2.131368964913309e+00 0.000000000000000e+00
1.360632135924488e+00 2.136866869192078e+00 0.000000000000000e+00
1.381006672714132e+00 2.141142687848199e+00 0.000000000000000e+00
1.401345967874881e+00 2.145911707381620e+00 0.000000000000000e+00
1.421761268509574e+00 2.150460313878260e+00 0.000000000000000e+00
1.442042693907276e+00 2.155414868583991e+00 0.000000000000000e+00
1.462199351868735e+00 2.159789252466911e+00 0.000000000000000e+00
1.483092108059918e+00 2.164108607564323e+00 0.000000000000000e+00
1.503047401302988e+00 2.168524892998821e+00 0.000000000000000e+00
1.523875744973657e+00 2.173038042371037e+00 0.000000000000000e+00
1.543874224019163e+00 2.177206771461009e+00 0.000000000000000e+00
1.564812889582645e+00 2.181410296247113e+00 0.000000000000000e+00
1.585220485161458e+00 2.184846866149668e+00 0.000000000000000e+00
1.605329635193390e+00 2.190056612031534e+00 0.000000000000000e+00
1.626303556255249e+00 2.192817880618528e+00 0.000000000000000e+00
1.646982617903581e+00 2.196835049383092e+00 0.000000000000000e+00
1.667088455848725e+00 2.201066144418584e+00 0.000000000000000e+00
1.688119578283647e+00 2.204090742550137e+00 0.000000000000000e+00
1.708635660617877e+00 2.207368332776471e+00 0.000000000000000e+00
1.728736935372665e+00 2.213268106287788e+00 0.000000000000000e+00
1.749907253065095e+00 2.212943670333020e+00 0.000000000000000e+00
1.770098157040172e+00 2.218782146892784e+00 0.000000000000000e+00
1.790374385409353e+00 2.223143965307053e+00 0.000000000000000e+00
1.811440686931321e+00 2.225733143530822e+00 0.000000000000000e+00
1.831575906241629e+00 2.230441630363620e+00 0.000000000000000e+00
1.852333151855917e+00 2.235245154228937e+00 0.000000000000000e+00
1.872458683745309e+00 2.239687883906567e+00 0.000000000000000e+00
1.892941027102202e+00 2.244762141694420e+00 0.000000000000000e+00
1.913573969138648e+00 2.248277317776255e+00 0.000000000000000e+00
1.932594505380071e+00 2.257335990191653e+00 0.000000000000000e+00
1.953300661518932e+00 2.261140941242295e+00 0.000000000000000e+00
1.972923277408676e+00 2.267658031103518e+00 0.000000000000000e+00
1.992916506245500e+00 2.274402982377791e+00 0.000000000000000e+00
2.012209664501615e+00 2.282533947054525e+00 0.000000000000000e+00
2.032233511675144e+00 2.288155892160581e+00 0.000000000000000e+00
2.051928539007212e+00 2.295271315898245e+00 0.000000000000000e+00
2.071409423294211e+00 2.302924638388804e+00 0.000000000000000e+00
2.090515455933856e+00 2.311618355310521e+00 0.000000000000000e+00
2.110679594382201e+00 2.316296664800640e+00 0.000000000000000e+00
2.130556181041257e+00 2.322631268299812e+00 0.000000000000000e+00
2.149495255590266e+00 2.331857869695859e+00 0.000000000000000e+00
2.169646863581010e+00 2.337181510128458e+00 0.000000000000000e+00
2.189587003711503e+00 2.342043746367153e+00 0.000000000000000e+00
2.209611701941878e+00 2.348886325108456e+00 0.000000000000000e+00
2.228563557589113e+00 2.356555742658932e+00 0.000000000000000e+00
2.248860724276738e+00 2.362725339735203e+00 0.000000000000000e+00
2.268902457389097e+00 2.366053179325143e+00 0.000000000000000e+00
2.289043480258575e+00 2.372388766129823e+00 0.000000000000000e+00
2.308611745702701e+00 2.379213882073719e+00 0.000000000000000e+00
2.328709495638781e+00 2.383245717620559e+00 0.000000000000000e+00
2.348771393740231e+00 2.387819537084848e+00 0.000000000000000e+00
2.369233624036288e+00 2.393457418167567e+00 0.000000000000000e+00
2.388384740893877e+00 2.399641861344429e+00 0.000000000000000e+00
2.408874969025864e+00 2.403965252832737e+00 0.000000000000000e+00
2.429367845021631e+00 2.407945499314195e+00 0.000000000000000e+00
2.449093914586259e+00 2.412674311211224e+00 0.000000000000000e+00
2.469476595758869e+00 2.416125530617534e+00 0.000000000000000e+00
2.490184958184263e+00 2.418403882544634e+00 0.000000000000000e+00
2.511011483106791e+00 2.421060292207836e+00 0.000000000000000e+00
2.530774579505879e+00 2.424232961869710e+00 0.000000000000000e+00
2.551521614740233e+00 2.426268520456278e+00 0.000000000000000e+00
2.572477264648163e+00 2.427652170256144e+00 0.000000000000000e+00
2.592672909189892e+00 2.428945466043958e+00 0.000000000000000e+00
2.613920688352783e+00 2.430156121460275e+00 0.000000000000000e+00
2.633747538449648e+00 2.432676969435247e+00 0.000000000000000e+00
2.654842679179712e+00 2.432567727779228e+00 0.000000000000000e+00
2.675698840050957e+00 2.432257780828716e+00 0.000000000000000e+00
2.695492495343798e+00 2.434620526910270e+00 0.000000000000000e+00
2.716954374193293e+00 2.434925438507054e+00 0.000000000000000e+00
2.737033429842628e+00 2.433858742756575e+00 0.000000000000000e+00
2.757690134770973e+00 2.433636629074085e+00 0.000000000000000e+00
2.778458704847788e+00 2.434741573409450e+00 0.000000000000000e+00
2.798760100113051e+00 2.432939821520493e+00 0.000000000000000e+00
2.819372907120280e+00 2.431943363949652e+00 0.000000000000000e+00
2.839720418888270e+00 2.430506815924033e+00 0.000000000000000e+00
2.860083960444265e+00 2.429190446556987e+00 0.000000000000000e+00
2.880959808041149e+00 2.427255827879271e+00 0.000000000000000e+00
2.901072288168099e+00 2.423894713630302e+00 0.000000000000000e+00
2.921187938846851e+00 2.421308104610068e+00 0.000000000000000e+00
2.941954481895162e+00 2.417666506390352e+00 0.000000000000000e+00
2.960914211661195e+00 2.413018573214991e+00 0.000000000000000e+00
2.981908218816862e+00 2.409142398972411e+00 0.000000000000000e+00
3.001205466856827e+00 2.404606633954229e+00 0.000000000000000e+00
3.020913933736560e+00 2.399528286695780e+00 0.000000000000000e+00
3.041029372021271e+00 2.392790713854680e+00 0.000000000000000e+00
3.058569748918818e+00 2.384166660809030e+00 0.000000000000000e+00
3.078206470047967e+00 2.376590749995497e+00 0.000000000000000e+00
3.097351088060741e+00 2.369313080739188e+00 0.000000000000000e+00
3.115660625798503e+00 2.362441448460460e+00 0.000000000000000e+00
3.134919672657460e+00 2.354292300746763e+00 0.000000000000000e+00
3.152018834724400e+00 2.343743821138140e+00 0.000000000000000e+00
3.170100509774436e+00 2.333880011251105e+00 0.000000000000000e+00
3.186972864618840e+00 2.322687883444783e+00 0.000000000000000e+00
3.203182600687366e+00 2.310179803754510e+00 0.000000000000000e+00
3.219514300985697e+00 2.297908213880743e+00 0.000000000000000e+00
3.234909392182578e+00 2.284465842480406e+00 0.000000000000000e+00
3.250870412197825e+00 2.272177171476101e+00 0.000000000000000e+00
3.266439110472362e+00 2.259200397350030e+00 0.000000000000000e+00
3.281170683908448e+00 2.244778881447834e+00 0.000000000000000e+00
3.295984595773907e+00 2.230633617411872e+00 0.000000000000000e+00
3.310960513924472e+00 2.216481327349232e+00 0.000000000000000e+00
3.325781284698052e+00 2.203882159267149e+00 0.000000000000000e+00
3.341164053494090e+00 2.189712004839995e+00 0.000000000000000e+00
3.355916859098302e+00 2.175611705916602e+00 0.000000000000000e+00
3.371318805012042e+00 2.162556338213627e+00 0.000000000000000e+00
3.386983630431817e+00 2.149862915780700e+00 0.000000000000000e+00
3.402788550242400e+00 2.137335590761690e+00 0.000000000000000e+00
3.418690369015296e+00 2.124439387583723e+00 0.000000000000000e+00
3.435250441839953e+00 2.112505170512530e+00 0.000000000000000e+00
3.452090328530325e+00 2.102085482519448e+00 0.000000000000000e+00
3.469405404565906e+00 2.090942570547175e+00 0.000000000000000e+00
3.486426357924059e+00 2.080012536428770e+00 0.000000000000000e+00
3.505186387039580e+00 2.072377020742572e+00 0.000000000000000e+00
3.522801142108392e+00 2.063658044147076e+00 0.000000000000000e+00
3.541732770767672e+00 2.054664796189733e+00 0.000000000000000e+00
3.559320416780258e+00 2.046320439767284e+00 0.000000000000000e+00
3.578804086073774e+00 2.039173184247243e+00 0.000000000000000e+00
3.598277054022393e+00 2.035513938123616e+00 0.000000000000000e+00
3.617174616016575e+00 2.028656702480754e+00 0.000000000000000e+00
3.636762321052030e+00 2.022974754790060e+00 0.000000000000000e+00
3.656060733401092e+00 2.019144790516233e+00 0.000000000000000e+00
3.675979209693485e+00 2.015049790037148e+00 0.000000000000000e+00
3.695586368138018e+00 2.011474286972160e+00 0.000000000000000e+00
3.715582291854501e+00 2.008162881558517e+00 0.000000000000000e+00
3.735481491115921e+00 2.006263525263521e+00 0.000000000000000e+00
3.755601106322880e+00 2.003844700676558e+00 0.000000000000000e+00
3.775472875295252e+00 2.002046681810704e+00 0.000000000000000e+00
3.795783233107820e+00 2.002522692140492e+00 0.000000000000000e+00
3.815507331429338e+00 2.002016524866259e+00 0.000000000000000e+00
3.835671483773363e+00 1.999931898746191e+00 0.000000000000000e+00
3.855600235886429e+00 2.001624238018108e+00 0.000000000000000e+00
3.875868492589321e+00 2.002350578175612e+00 0.000000000000000e+00
3.895362934363844e+00 2.000065628414874e+00 0.000000000000000e+00
3.915449034467478e+00 1.998584271021028e+00 0.000000000000000e+00
3.935724733601899e+00 2.000660510565057e+00 0.000000000000000e+00
3.955241742216668e+00 2.001905877684670e+00 0.000000000000000e+00
3.975317351169008e+00 1.997705162210375e+00 0.000000000000000e+00
3.994962516924697e+00 2.001077945867674e+00 0.000000000000000e+00
1.010751747759895e+00 2.993946472422317e+00 0.000000000000000e+00
1.029224777937165e+00 2.984041568335247e+00 0.000000000000000e+00
1.047664403473784e+00 2.975161515482649e+00 0.000000000000000e+00
1.066406374510293e+00 2.965873619486328e+00 0.000000000000000e+00
1.084693338137633e+00 2.955943876572482e+00 0.000000000000000e+00
1.103870391690118e+00 2.947496546533876e+00 0.000000000000000e+00
1.123007735208087e+00 2.940047364395192e+00 0.000000000000000e+00
1.142124630190334e+00 2.931652121476965e+00 0.000000000000000e+00
1.161726797397649e+00 2.924397465842250e+00 0.000000000000000e+00
1.180732899065841e+00 2.916048206280706e+00 0.000000000000000e+00
1.200755152484227e+00 2.910196555157957e+00 0.000000000000000e+00
1.220239482272355e+00 2.902769103527056e+00 0.000000000000000e+00
1.240244337903180e+00 2.897004910121732e+00 0.000000000000000e+00
1.259795221599136e+00 2.890017488494059e+00 0.000000000000000e+00
1.280205296465981e+00 2.884874119753254e+00 0.000000000000000e+00
1.299912698110672e+00 2.879088217021928e+00 0.000000000000000e+00
1.320413041768502e+00 2.873773518563844e+00 0.000000000000000e+00
1.340432975978976e+00 2.868631035086721e+00 0.000000000000000e+00
1.360632135924485e+00 2.863133130807956e+00 0.000000000000000e+00
1.381006672714127e+00 2.858857312151840e+00 0.000000000000000e+00
1.401345967874884e+00 2.854088292618427e+00 0.000000000000000e+00
1.421761268509570e+00 2.849539686121782e+00 0.000000000000000e+00
1.442042693907282e+00 2.844585131416063e+00 0.000000000000000e+00
1.462199351868736e+00 2.840210747533140e+00 0.000000000000000e+00
1.483092108059920e+00 2.835891392435730e+00 0.000000000000000e+00
1.503047401302993e+00 2.831475107001237e+00 0.000000000000000e+00
1.523875744973660e+00 2.826961957629019e+00 0.000000000000000e+00
1.543874224019168e+00 2.822793228539050e+00 0.000000000000000e+00
1.564812889582651e+00 2.818589703752948e+00 0.000000000000000e+00
1.585220485161464e+00 2.815153133850392e+00 0.000000000000000e+00
1.605329635193396e+00 2.809943387968528e+00 0.000000000000000e+00
1.626303556255254e+00 2.807182119381533e+00 0.000000000000000e+00
1.646982617903588e+00 2.803164950616970e+00 0.000000000000000e+00
1.667088455848729e+00 2.798933855581476e+00 0.000000000000000e+00
1.688119578283651e+00 2.795909257449918e+00 0.000000000000000e+00
1.708635660617881e+00 2.792631667223585e+00 0.000000000000000e+00
1.728736935372668e+00 2.786731893712266e+00 0.000000000000000e+00
1.749907253065099e+00 2.787056329667037e+00 0.000000000000000e+00
1.770098157040172e+00 2.781217853107265e+00 0.000000000000000e+00
1.790374385409355e+00 2.776856034692995e+00 0.000000000000000e+00
1.811440686931322e+00 2.774266856469227e+00 0.000000000000000e+00
1.831575906241629e+00 2.769558369636422e+00 0.000000000000000e+00
1.852333151855919e+00 2.764754845771106e+00 0.000000000000000e+00
1.872458683745309e+00 2.760312116093473e+00 0.000000000000000e+00
1.892941027102202e+00 2.755237858305620e+00 0.000000000000000e+00
1.913573969138650e+00 2.751722682223793e+00 0.000000000000000e+00
1.932594505380072e+00 2.742664009808393e+00 0.000000000000000e+00
1.953300661518933e+00 2.738859058757747e+00 0.000000000000000e+00
1.972923277408679e+00 2.732341968896528e+00 0.000000000000000e+00
1.992916506245503e+00 2.725597017622260e+00 0.000000000000000e+00
2.012209664501617e+00 2.717466052945521e+00 0.000000000000000e+00
2.032233511675149e+00 2.711844107839469e+00 0.000000000000000e+00
2.051928539007217e+00 2.704728684101808e+00 0.000000000000000e+00
2.071409423294216e+00 2.697075361611243e+00 0.000000000000000e+00
2.090515455933863e+00 2.688381644689529e+00 0.000000000000000e+00
2.110679594382205e+00 2.683703335199405e+00 0.000000000000000e+00
2.130556181041262e+00 2.677368731700231e+00 0.000000000000000e+00
2.149495255590273e+00 2.668142130304187e+00 0.000000000000000e+00
2.169646863581014e+00 2.662818489871581e+00 0.000000000000000e+00
2.189587003711512e+00 2.657956253632896e+00 0.000000000000000e+00
2.209611701941882e+00 2.651113674891585e+00 0.000000000000000e+00
2.228563557589121e+00 2.643444257341108e+00 0.000000000000000e+00
2.248860724276745e+00 2.637274660264843e+00 0.000000000000000e+00
2.268902457389105e+00 2.633946820674895e+00 0.000000000000000e+00
2.289043480258582e+00 2.627611233870210e+00 0.000000000000000e+00
2.308611745702711e+00 2.620786117926321e+00 0.000000000000000e+00
2.328709495638789e+00 2.616754282379487e+00 0.000000000000000e+00
2.348771393740239e+00 2.612180462915191e+00 0.000000000000000e+00
2.369233624036298e+00 2.606542581832470e+00 0.000000000000000e+00
2.388384740893881e+00 2.600358138655607e+00 0.000000000000000e+00
2.408874969025875e+00 2.596034747167297e+00 0.000000000000000e+00
2.429367845021638e+00 2.592054500685836e+00 0.000000000000000e+00
2.449093914586266e+00 2.587325688788802e+00 0.000000000000000e+00
2.469476595758875e+00 2.583874469382506e+00 0.000000000000000e+00
2.490184958184274e+00 2.581596117455403e+00 0.000000000000000e+00
2.511011483106794e+00 2.578939707792199e+00 0.000000000000000e+00
2.530774579505892e+00 2.575767038130328e+00 0.000000000000000e+00
2.551521614740240e+00 2.573731479543758e+00 0.000000000000000e+00
2.572477264648172e+00 2.572347829743891e+00 0.000000000000000e+00
2.592672909189901e+00 2.571054533956079e+00 0.000000000000000e+00
2.613920688352789e+00 2.569843878539759e+00 0.000000000000000e+00
2.633747538449656e+00 2.567323030564785e+00 0.000000000000000e+00
2.654842679179720e+00 2.567432272220808e+00 0.000000000000000e+00
2.675698840050965e+00 2.567742219171311e+00 0.000000000000000e+00
2.695492495343806e+00 2.565379473089755e+00 0.000000000000000e+00
2.716954374193302e+00 2.565074561492970e+00 0.000000000000000e+00
2.737033429842637e+00 2.566141257243453e+00 0.000000000000000e+00
2.757690134770981e+00 2.566363370925940e+00 0.000000000000000e+00
2.778458704847795e+00 2.565258426590573e+00 0.000000000000000e+00
2.798760100113062e+00 2.567060178479522e+00 0.000000000000000e+00
2.819372907120286e+00 2.568056636050374e+00 0.000000000000000e+00
2.839720418888280e+00 2.569493184075986e+00 0.000000000000000e+00
2.860083960444278e+00 2.570809553443024e+00 0.000000000000000e+00
2.880959808041155e+00 2.572744172120748e+00 0.000000000000000e+00
2.901072288168113e+00 2.576105286369716e+00 0.000000000000000e+00
2.921187938846858e+00 2.578691895389944e+00 0.000000000000000e+00
2.941954481895175e+00 2.582333493609655e+00 0.000000000000000e+00
2.960914211661202e+00 2.586981426785020e+00 0.000000000000000e+00
2.981908218816871e+00 2.590857601027604e+00 0.000000000000000e+00
3.001205466856835e+00 2.595393366045782e+00 0.000000000000000e+00
3.020913933736574e+00 2.600471713304228e+00 0.000000000000000e+00
3.041029372021279e+00 2.607209286145331e+00 0.000000000000000e+00
3.058569748918827e+00 2.615833339190982e+00 0.000000000000000e+00
3.078206470047977e+00 2.623409250004517e+00 0.000000000000000e+00
3.097351088060745e+00 2.630686919260831e+00 0.000000000000000e+00
3.115660625798510e+00 2.637558551539562e+00 0.000000000000000e+00
3.134919672657456e+00 2.645707699253272e+00 0.000000000000000e+00
3.152018834724402e+00 2.656256178861905e+00 0.000000000000000e+00
3.170100509774435e+00 2.666119988748928e+00 0.000000000000000e+00
3.186972864618843e+00 2.677312116555251e+00 0.000000000000000e+00
3.203182600687366e+00 2.689820196245532e+00 0.000000000000000e+00
3.219514300985693e+00 2.702091786119300e+00 0.000000000000000e+00
3.234909392182579e+00 2.715534157519639e+00 0.000000000000000e+00
3.250870412197825e+00 2.727822828523931e+00 0.000000000000000e+00
3.266439110472366e+00 2.740799602650006e+00 0.000000000000000e+00
3.281170683908436e+00 2.755221118552218e+00 0.000000000000000e+00
3.295984595773899e+00 2.769366382588178e+00 0.000000000000000e+00
3.310960513924455e+00 2.783518672650815e+00 0.000000000000000e+00
3.325781284698040e+00 2.796117840732907e+00 0.000000000000000e+00
3.341164053494065e+00 2.810287995160067e+00 0.000000000000000e+00
3.355916859098285e+00 2.824388294083454e+00 0.000000000000000e+00
3.371318805012028e+00 2.837443661786429e+00 0.000000000000000e+00
3.386983630431805e+00 2.850137084219349e+00 0.000000000000000e+00
3.402788550242394e+00 2.862664409238361e+00 0.000000000000000e+00
3.418690369015284e+00 2.875560612416323e+00 0.000000000000000e+00
3.435250441839951e+00 2.887494829487513e+00 0.000000000000000e+00
3.452090328530319e+00 2.897914517480594e+00 0.000000000000000e+00
3.469405404565901e+00 2.909057429452871e+00 0.000000000000000e+00
3.486426357924060e+00 2.919987463571269e+00 0.000000000000000e+00
3.505186387039580e+00 2.927622979257458e+00 0.000000000000000e+00
3.522801142108393e+00 2.936341955852960e+00 0.000000000000000e+00
3.541732770767668e+00 2.945335203810307e+00 0.000000000000000e+00
3.559320416780260e+00 2.953679560232759e+00 0.000000000000000e+00
3.578804086073775e+00 2.960826815752793e+00 0.000000000000000e+00
3.598277054022394e+00 2.964486061876434e+00 0.000000000000000e+00
3.617174616016571e+00 2.971343297519304e+00 0.000000000000000e+00
3.636762321052032e+00 2.977025245209996e+00 0.000000000000000e+00
3.656060733401091e+00 2.980855209483815e+00 0.000000000000000e+00
3.675979209693490e+00 2.984950209962900e+00 0.000000000000000e+00
3.695586368138022e+00 2.988525713027878e+00 0.000000000000000e+00
3.715582291854502e+00 2.991837118441527e+00 0.000000000000000e+00
3.735481491115928e+00 2.993736474736528e+00 0.000000000000000e+00
3.755601106322879e+00 2.996155299323490e+00 0.000000000000000e+00
3.775472875295260e+00 2.997953318189333e+00 0.000000000000000e+00
3.795783233107822e+00 2.997477307859539e+00 0.000000000000000e+00
3.815507331429347e+00 2.997983475133757e+00 0.000000000000000e+00
3.835671483773364e+00 3.000068101253831e+00 0.000000000000000e+00
3.855600235886435e+00 2.998375761981915e+00 0.000000000000000e+00
3.875868492589322e+00 2.997649421824404e+00 0.000000000000000e+00
3.895362934363849e+00 2.999934371585125e+00 0.000000000000000e+00
3.915449034467480e+00 3.001415728978961e+00 0.000000000000000e+00
3.935724733601906e+00 2.999339489434945e+00 0.000000000000000e+00
3.955241742216673e+00 2.998094122315331e+00 0.000000000000000e+00
3.975317351169011e+00 3.002294837789623e+00 0.000000000000000e+00
3.994962516924701e+00 2.998922054132326e+00 0.000000000000000e+00

POINT_DATA   310
SCALARS fTan double
LOOKUP_TABLE default

1.990829e+03 
5.013290e+03 
4.459585e+03 
1.013158e+03 
1.502911e+03 
4.186464e+03 
3.387329e+03 
2.650347e+02 
1.480478e+03 
1.085610e+03 
6.601438e+00 
3.228409e+02 
5.619538e+02 
2.870091e+03 
5.025197e+03 
6.420453e+03 
5.067654e+03 
2.676704e+03 
1.168855e+03 
7.649026e+02 
2.841249e+02 
3.303286e+02 
2.518548e+03 
7.092551e+03 
8.929301e+03 
8.727257e+03 
8.782023e+03 
9.336253e+03 
6.718550e+03 
8.496002e+02 
3.639683e+03 
6.499837e+02 
5.157537e+03 
6.900660e+03 
4.778519e+03 
1.781903e+03 
2.038382e+03 
1.241533e+03 
2.816620e+03 
4.743778e+03 
5.395010e+03 
6.317315e+03 
6.969971e+03 
4.934323e+03 
1.773697e+03 
1.379287e+03 
1.838615e+02 
3.712163e+03 
4.176635e+03 
1.657505e+03 
1.284078e+03 
1.391410e+03 
2.398736e+02 
6.469965e+02 
3.004311e+03 
1.683182e+03 
2.088516e+03 
2.209803e+03 
3.191725e+03 
6.329017e+03 
7.156820e+03 
7.809082e+03 
8.921104e+03 
7.789730e+03 
4.028616e+03 
2.058008e+03 
9.586319e+02 
6.273264e+03 
1.119098e+04 
8.345647e+03 
4.097548e+02 
6.134318e+03 
3.594074e+03 
1.737966e+03 
1.824763e+03 
9.784870e+03 
8.178797e+03 
1.531531e+03 
7.559185e+03 
1.054701e+04 
1.310459e+04 
1.111006e+04 
2.311162e+03 
9.514188e+03 
1.550496e+04 
1.349723e+04 
5.358266e+03 
1.238582e+03 
3.665490e+03 
2.164368e+03 
2.423698e+03 
2.345992e+01 
5.680686e+03 
5.494234e+03 
1.234573e+03 
8.128033e+03 
1.558610e+04 
1.820047e+04 
1.532782e+04 
5.353159e+03 
8.730731e+03 
1.692269e+04 
1.504556e+04 
5.544966e+03 
9.209587e+03 
1.351893e+04 
8.976963e+03 
5.691230e+03 
3.603972e+03 
2.077301e+03 
1.131777e+02 
2.584225e+02 
2.744880e+03 
1.470761e+03 
3.268055e+03 
9.728534e+02 
1.406255e+03 
1.179563e+04 
1.468623e+04 
5.124190e+03 
2.224140e+03 
4.669440e+02 
2.801101e+02 
2.941674e+03 
5.792047e+02 
5.757274e+03 
7.917242e+03 
3.810579e+03 
1.540835e+02 
6.218838e+03 
1.312749e+04 
1.491750e+04 
1.295179e+04 
9.270417e+03 
2.957059e+03 
3.031901e+03 
7.362842e+03 
6.502174e+03 
3.988023e+03 
3.486994e+03 
2.842621e+03 
2.726794e+03 
3.012938e+03 
3.677668e+03 
6.028740e+03 
5.224491e+03 
2.761323e+03 
3.114452e+03 
6.585129e+03 
4.953070e+03 
2.624620e+03 
8.199491e+03 
9.193749e+03 
5.431305e+03 
1.255299e+03 
1.990829e+03 
5.013290e+03 
4.459585e+03 
1.013158e+03 
1.502911e+03 
4.186464e+03 
3.387329e+03 
2.650347e+02 
1.480478e+03 
1.085610e+03 
6.601438e+00 
3.228409e+02 
5.619538e+02 
2.870091e+03 
5.025197e+03 
6.420453e+03 
5.067654e+03 
2.676704e+03 
1.168855e+03 
7.649026e+02 
2.841249e+02 
3.303286e+02 
2.518548e+03 
7.092551e+03 
8.929301e+03 
8.727257e+03 
8.782023e+03 
9.336253e+03 
6.718550e+03 
8.496002e+02 
3.639683e+03 
6.499837e+02 
5.157537e+03 
6.900660e+03 
4.778519e+03 
1.781903e+03 
2.038382e+03 
1.241533e+03 
2.816620e+03 
4.743778e+03 
5.395010e+03 
6.317315e+03 
6.969971e+03 
4.934323e+03 
1.773697e+03 
1.379287e+03 
1.838615e+02 
3.712163e+03 
4.176635e+03 
1.657505e+03 
1.284078e+03 
1.391410e+03 
2.398736e+02 
6.469965e+02 
3.004311e+03 
1.683182e+03 
2.088516e+03 
2.209803e+03 
3.191725e+03 
6.329017e+03 
7.156820e+03 
7.809082e+03 
8.921104e+03 
7.789730e+03 
4.028616e+03 
2.058008e+03 
9.586319e+02 
6.273264e+03 
1.119098e+04 
8.345647e+03 
4.097548e+02 
6.134318e+03 
3.594074e+03 
1.737966e+03 
1.824763e+03 
9.784870e+03 
8.178797e+03 
1.531531e+03 
7.559185e+03 
1.054701e+04 
1.310459e+04 
1.111006e+04 
2.311162e+03 
9.514188e+03 
1.550496e+04 
1.349723e+04 
5.358266e+03 
1.238582e+03 
3.665490e+03 
2.164368e+03 
2.423698e+03 
2.345992e+01 
5.680686e+03 
5.494234e+03 
1.234573e+03 
8.128033e+03 
1.558610e+04 
1.820047e+04 
1.532782e+04 
5.353159e+03 
8.730731e+03 
1.692269e+04 
1.504556e+04 
5.544966e+03 
9.209587e+03 
1.351893e+04 
8.976963e+03 
5.691230e+03 
3.603972e+03 
2.077301e+03 
1.131777e+02 
2.584225e+02 
2.744880e+03 
1.470761e+03 
3.268055e+03 
9.728534e+02 
1.406255e+03 
1.179563e+04 
1.468623e+04 
5.124190e+03 
2.224140e+03 
4.669440e+02 
2.801101e+02 
2.941674e+03 
5.792047e+02 
5.757274e+03 
7.917242e+03 
3.810579e+03 
1.540835e+02 
6.218838e+03 
1.312749e+04 
1.491750e+04 
1.295179e+04 
9.270417e+03 
2.957059e+03 
3.031901e+03 
7.362842e+03 
6.502174e+03 
3.988023e+03 
3.486994e+03 
2.842621e+03 
2.726794e+03 
3.012938e+03 
3.677668e+03 
6.028740e+03 
5.224491e+03 
2.761323e+03 
3.114452e+03 
6.585129e+03 
4.953070e+03 
2.624620e+03 
8.199491e+03 
9.193749e+03 
5.431305e+03 
1.255299e+03 
