# vtk DataFile Version 2.0
fX_Lag
ASCII
DATASET UNSTRUCTURED_GRID

FIELD FieldData 1
TIME 1 1 double
0.11500000
POINTS 310 float
1.015666481289560e+00 2.004641612256123e+00 0.000000000000000e+00
1.036041945237361e+00 2.010186458631310e+00 0.000000000000000e+00
1.055401637024336e+00 2.019067248653662e+00 0.000000000000000e+00
1.075321440389990e+00 2.026330051827224e+00 0.000000000000000e+00
1.094856015727189e+00 2.034371817266099e+00 0.000000000000000e+00
1.114796147379624e+00 2.042817772827702e+00 0.000000000000000e+00
1.134335516619402e+00 2.051231897013310e+00 0.000000000000000e+00
1.153726051395446e+00 2.060548866933406e+00 0.000000000000000e+00
1.173306837328414e+00 2.068816429518565e+00 0.000000000000000e+00
1.192361931643773e+00 2.078979445279794e+00 0.000000000000000e+00
1.211675140445025e+00 2.087426653923349e+00 0.000000000000000e+00
1.231010904869104e+00 2.097352403973043e+00 0.000000000000000e+00
1.250608626587353e+00 2.105363028042147e+00 0.000000000000000e+00
1.269610003573787e+00 2.115114879313909e+00 0.000000000000000e+00
1.289887737542103e+00 2.124267378523311e+00 0.000000000000000e+00
1.307851799719784e+00 2.134434920336028e+00 0.000000000000000e+00
1.326786157192163e+00 2.144733391624463e+00 0.000000000000000e+00
1.345558126067040e+00 2.155673623196384e+00 0.000000000000000e+00
1.363845489272109e+00 2.167376976521454e+00 0.000000000000000e+00
1.382226615968849e+00 2.178491293542865e+00 0.000000000000000e+00
1.400648565228852e+00 2.189221545685178e+00 0.000000000000000e+00
1.419657143324385e+00 2.199572595025924e+00 0.000000000000000e+00
1.439044584405481e+00 2.209439337088212e+00 0.000000000000000e+00
1.458722625443797e+00 2.217206013856673e+00 0.000000000000000e+00
1.479846238233429e+00 2.224091791677525e+00 0.000000000000000e+00
1.499634443792288e+00 2.230174957906330e+00 0.000000000000000e+00
1.521043830114450e+00 2.236760271739321e+00 0.000000000000000e+00
1.541326739497081e+00 2.241338469217983e+00 0.000000000000000e+00
1.563182129724692e+00 2.245443069502784e+00 0.000000000000000e+00
1.583978563363032e+00 2.248831992685393e+00 0.000000000000000e+00
1.605399842401973e+00 2.251661979692138e+00 0.000000000000000e+00
1.627012672249111e+00 2.248689456335711e+00 0.000000000000000e+00
1.648702863180971e+00 2.248907501713633e+00 0.000000000000000e+00
1.669556032459659e+00 2.249255189403412e+00 0.000000000000000e+00
1.690894230992073e+00 2.245730917650613e+00 0.000000000000000e+00
1.712043877148972e+00 2.242649865474654e+00 0.000000000000000e+00
1.733198890453915e+00 2.243030543872714e+00 0.000000000000000e+00
1.754533329208070e+00 2.236982716871575e+00 0.000000000000000e+00
1.774763679438063e+00 2.241568058150357e+00 0.000000000000000e+00
1.795150859969517e+00 2.244982318850532e+00 0.000000000000000e+00
1.817285469208514e+00 2.245663185094753e+00 0.000000000000000e+00
1.838090563619947e+00 2.248564260312645e+00 0.000000000000000e+00
1.859162834281809e+00 2.252630917034118e+00 0.000000000000000e+00
1.880029954843692e+00 2.256073160242376e+00 0.000000000000000e+00
1.901539739848993e+00 2.257178711929717e+00 0.000000000000000e+00
1.922899874032814e+00 2.258911507368015e+00 0.000000000000000e+00
1.942217859964562e+00 2.267585254217764e+00 0.000000000000000e+00
1.963276394387389e+00 2.265862453092529e+00 0.000000000000000e+00
1.984334132081583e+00 2.264937390599326e+00 0.000000000000000e+00
2.005391809683372e+00 2.263129206216083e+00 0.000000000000000e+00
2.026277652109531e+00 2.261823906503042e+00 0.000000000000000e+00
2.046658677622217e+00 2.254272594285105e+00 0.000000000000000e+00
2.066221468776019e+00 2.245020274491321e+00 0.000000000000000e+00
2.085748809210967e+00 2.236926153176529e+00 0.000000000000000e+00
2.105438620128822e+00 2.229663036134655e+00 0.000000000000000e+00
2.123274933120675e+00 2.216782696386288e+00 0.000000000000000e+00
2.141764600262691e+00 2.205711081959549e+00 0.000000000000000e+00
2.161727519323234e+00 2.198076585995961e+00 0.000000000000000e+00
2.180580026354321e+00 2.187429424252701e+00 0.000000000000000e+00
2.199794938369872e+00 2.176839803205938e+00 0.000000000000000e+00
2.219245011532779e+00 2.167904091848595e+00 0.000000000000000e+00
2.239279655666639e+00 2.160908519471948e+00 0.000000000000000e+00
2.260475153406138e+00 2.155165155123433e+00 0.000000000000000e+00
2.280439293166688e+00 2.149110110296209e+00 0.000000000000000e+00
2.302116552380210e+00 2.146648576089880e+00 0.000000000000000e+00
2.323279940442093e+00 2.145793556258063e+00 0.000000000000000e+00
2.344932341035583e+00 2.143627181444748e+00 0.000000000000000e+00
2.366397609037671e+00 2.144417310274508e+00 0.000000000000000e+00
2.387961877780044e+00 2.146966471328717e+00 0.000000000000000e+00
2.408621418231916e+00 2.149927334994464e+00 0.000000000000000e+00
2.430032289570515e+00 2.152570730372895e+00 0.000000000000000e+00
2.451223900289436e+00 2.156771838810774e+00 0.000000000000000e+00
2.471475366289757e+00 2.163142811670040e+00 0.000000000000000e+00
2.491620533734263e+00 2.169115771753081e+00 0.000000000000000e+00
2.512119010736563e+00 2.174871305211361e+00 0.000000000000000e+00
2.532265799259722e+00 2.182286159157931e+00 0.000000000000000e+00
2.551760052341147e+00 2.190874975645042e+00 0.000000000000000e+00
2.571711207580589e+00 2.198447144707111e+00 0.000000000000000e+00
2.591752768792884e+00 2.205821163887327e+00 0.000000000000000e+00
2.610916202314451e+00 2.213736442368155e+00 0.000000000000000e+00
2.631294381941897e+00 2.221959937750808e+00 0.000000000000000e+00
2.650317735981187e+00 2.230226341018872e+00 0.000000000000000e+00
2.670874921569081e+00 2.236711187578167e+00 0.000000000000000e+00
2.691493647672752e+00 2.242981586319919e+00 0.000000000000000e+00
2.710966462165833e+00 2.249673919675677e+00 0.000000000000000e+00
2.732359007037171e+00 2.255237964434226e+00 0.000000000000000e+00
2.752060565559577e+00 2.259921068894102e+00 0.000000000000000e+00
2.773705165087108e+00 2.265313413487362e+00 0.000000000000000e+00
2.792905761930638e+00 2.270674682309123e+00 0.000000000000000e+00
2.815011534450538e+00 2.275301072185838e+00 0.000000000000000e+00
2.834807415327579e+00 2.279319432996043e+00 0.000000000000000e+00
2.856125072177172e+00 2.282586733142633e+00 0.000000000000000e+00
2.877405103230988e+00 2.286868685557900e+00 0.000000000000000e+00
2.897554170954372e+00 2.291208750828089e+00 0.000000000000000e+00
2.919441895026238e+00 2.294920592072144e+00 0.000000000000000e+00
2.939406193411166e+00 2.298960459379629e+00 0.000000000000000e+00
2.960587585634272e+00 2.302849475585377e+00 0.000000000000000e+00
2.981838215908551e+00 2.305710208436413e+00 0.000000000000000e+00
3.002213464030556e+00 2.309585549563522e+00 0.000000000000000e+00
3.023477245157182e+00 2.313139980562699e+00 0.000000000000000e+00
3.044536183072453e+00 2.315894037769611e+00 0.000000000000000e+00
3.065234370857529e+00 2.319658222525873e+00 0.000000000000000e+00
3.086215348229372e+00 2.323022282926137e+00 0.000000000000000e+00
3.106524559404362e+00 2.325851164890726e+00 0.000000000000000e+00
3.128272549126826e+00 2.328693211019029e+00 0.000000000000000e+00
3.148559544355680e+00 2.331316835179287e+00 0.000000000000000e+00
3.169557848070039e+00 2.333570842163655e+00 0.000000000000000e+00
3.190754544696924e+00 2.335281589887138e+00 0.000000000000000e+00
3.211469889207713e+00 2.337934393120643e+00 0.000000000000000e+00
3.233043661847519e+00 2.339769329908396e+00 0.000000000000000e+00
3.254030379147950e+00 2.341746569681899e+00 0.000000000000000e+00
3.274487868915257e+00 2.343523617995974e+00 0.000000000000000e+00
3.296274509784883e+00 2.344501859183521e+00 0.000000000000000e+00
3.316515091569509e+00 2.346214759917699e+00 0.000000000000000e+00
3.337868120136138e+00 2.347513786837646e+00 0.000000000000000e+00
3.359165025170567e+00 2.348016671786211e+00 0.000000000000000e+00
3.380115734828983e+00 2.348934267795651e+00 0.000000000000000e+00
3.401577942097658e+00 2.349535726369134e+00 0.000000000000000e+00
3.422280140172959e+00 2.349138478262833e+00 0.000000000000000e+00
3.444053356784891e+00 2.348182329473524e+00 0.000000000000000e+00
3.464862634177898e+00 2.347377219419958e+00 0.000000000000000e+00
3.486606585529793e+00 2.346327826012589e+00 0.000000000000000e+00
3.507751400967724e+00 2.344603787748104e+00 0.000000000000000e+00
3.529373235114129e+00 2.342753584673006e+00 0.000000000000000e+00
3.550942857663159e+00 2.341167753141716e+00 0.000000000000000e+00
3.572510344505089e+00 2.339088299062953e+00 0.000000000000000e+00
3.593798541419949e+00 2.337293717407360e+00 0.000000000000000e+00
3.615886361918615e+00 2.335000212670285e+00 0.000000000000000e+00
3.636566816139931e+00 2.332052988390246e+00 0.000000000000000e+00
3.658744815499627e+00 2.329708358054555e+00 0.000000000000000e+00
3.679957780889485e+00 2.326550636077267e+00 0.000000000000000e+00
3.701687441246633e+00 2.323204809981810e+00 0.000000000000000e+00
3.723032575043866e+00 2.319837604891362e+00 0.000000000000000e+00
3.744335704277590e+00 2.316318301858741e+00 0.000000000000000e+00
3.766224380929756e+00 2.312534873726614e+00 0.000000000000000e+00
3.786782770105075e+00 2.308098390048897e+00 0.000000000000000e+00
3.808261156377609e+00 2.303784643839750e+00 0.000000000000000e+00
3.829380576920323e+00 2.298950325897761e+00 0.000000000000000e+00
3.850197185005992e+00 2.292517194877512e+00 0.000000000000000e+00
3.869733954809714e+00 2.285141847220689e+00 0.000000000000000e+00
3.890368630261617e+00 2.276347547577095e+00 0.000000000000000e+00
3.909461723608078e+00 2.266495650906228e+00 0.000000000000000e+00
3.926771495862381e+00 2.255142088055332e+00 0.000000000000000e+00
3.943719448694278e+00 2.241320904685651e+00 0.000000000000000e+00
3.958026673855187e+00 2.225260254001642e+00 0.000000000000000e+00
3.969126832906173e+00 2.208261994522355e+00 0.000000000000000e+00
3.979365703230384e+00 2.189121117194628e+00 0.000000000000000e+00
3.986353563744029e+00 2.169202165489342e+00 0.000000000000000e+00
3.990495251813862e+00 2.148011337958903e+00 0.000000000000000e+00
3.994379637136221e+00 2.126595556800511e+00 0.000000000000000e+00
3.999364020281290e+00 2.104982403453342e+00 0.000000000000000e+00
4.001979312161515e+00 2.084316018818829e+00 0.000000000000000e+00
4.000222567364445e+00 2.063496394798717e+00 0.000000000000000e+00
4.000588636681593e+00 2.040629686260792e+00 0.000000000000000e+00
4.003381485789178e+00 2.019725934655258e+00 0.000000000000000e+00
1.015666481289562e+00 2.995358387743882e+00 0.000000000000000e+00
1.036041945237363e+00 2.989813541368691e+00 0.000000000000000e+00
1.055401637024335e+00 2.980932751346336e+00 0.000000000000000e+00
1.075321440389986e+00 2.973669948172768e+00 0.000000000000000e+00
1.094856015727184e+00 2.965628182733894e+00 0.000000000000000e+00
1.114796147379625e+00 2.957182227172291e+00 0.000000000000000e+00
1.134335516619397e+00 2.948768102986685e+00 0.000000000000000e+00
1.153726051395444e+00 2.939451133066587e+00 0.000000000000000e+00
1.173306837328408e+00 2.931183570481426e+00 0.000000000000000e+00
1.192361931643769e+00 2.921020554720202e+00 0.000000000000000e+00
1.211675140445024e+00 2.912573346076647e+00 0.000000000000000e+00
1.231010904869101e+00 2.902647596026954e+00 0.000000000000000e+00
1.250608626587352e+00 2.894636971957853e+00 0.000000000000000e+00
1.269610003573789e+00 2.884885120686098e+00 0.000000000000000e+00
1.289887737542103e+00 2.875732621476693e+00 0.000000000000000e+00
1.307851799719787e+00 2.865565079663979e+00 0.000000000000000e+00
1.326786157192165e+00 2.855266608375541e+00 0.000000000000000e+00
1.345558126067040e+00 2.844326376803618e+00 0.000000000000000e+00
1.363845489272113e+00 2.832623023478548e+00 0.000000000000000e+00
1.382226615968854e+00 2.821508706457144e+00 0.000000000000000e+00
1.400648565228859e+00 2.810778454314833e+00 0.000000000000000e+00
1.419657143324390e+00 2.800427404974088e+00 0.000000000000000e+00
1.439044584405496e+00 2.790560662911804e+00 0.000000000000000e+00
1.458722625443806e+00 2.782793986143343e+00 0.000000000000000e+00
1.479846238233439e+00 2.775908208322490e+00 0.000000000000000e+00
1.499634443792304e+00 2.769825042093697e+00 0.000000000000000e+00
1.521043830114464e+00 2.763239728260711e+00 0.000000000000000e+00
1.541326739497093e+00 2.758661530782051e+00 0.000000000000000e+00
1.563182129724703e+00 2.754556930497253e+00 0.000000000000000e+00
1.583978563363047e+00 2.751168007314640e+00 0.000000000000000e+00
1.605399842401983e+00 2.748338020307899e+00 0.000000000000000e+00
1.627012672249125e+00 2.751310543664317e+00 0.000000000000000e+00
1.648702863180987e+00 2.751092498286402e+00 0.000000000000000e+00
1.669556032459668e+00 2.750744810596630e+00 0.000000000000000e+00
1.690894230992088e+00 2.754269082349426e+00 0.000000000000000e+00
1.712043877148985e+00 2.757350134525379e+00 0.000000000000000e+00
1.733198890453929e+00 2.756969456127316e+00 0.000000000000000e+00
1.754533329208083e+00 2.763017283128464e+00 0.000000000000000e+00
1.774763679438071e+00 2.758431941849672e+00 0.000000000000000e+00
1.795150859969525e+00 2.755017681149488e+00 0.000000000000000e+00
1.817285469208521e+00 2.754336814905277e+00 0.000000000000000e+00
1.838090563619952e+00 2.751435739687388e+00 0.000000000000000e+00
1.859162834281817e+00 2.747369082965917e+00 0.000000000000000e+00
1.880029954843695e+00 2.743926839757658e+00 0.000000000000000e+00
1.901539739848997e+00 2.742821288070317e+00 0.000000000000000e+00
1.922899874032816e+00 2.741088492632027e+00 0.000000000000000e+00
1.942217859964571e+00 2.732414745782292e+00 0.000000000000000e+00
1.963276394387398e+00 2.734137546907533e+00 0.000000000000000e+00
1.984334132081588e+00 2.735062609400746e+00 0.000000000000000e+00
2.005391809683380e+00 2.736870793783994e+00 0.000000000000000e+00
2.026277652109536e+00 2.738176093497035e+00 0.000000000000000e+00
2.046658677622220e+00 2.745727405714980e+00 0.000000000000000e+00
2.066221468776021e+00 2.754979725508766e+00 0.000000000000000e+00
2.085748809210975e+00 2.763073846823542e+00 0.000000000000000e+00
2.105438620128830e+00 2.770336963865416e+00 0.000000000000000e+00
2.123274933120685e+00 2.783217303613781e+00 0.000000000000000e+00
2.141764600262702e+00 2.794288918040520e+00 0.000000000000000e+00
2.161727519323248e+00 2.801923414004096e+00 0.000000000000000e+00
2.180580026354338e+00 2.812570575747353e+00 0.000000000000000e+00
2.199794938369883e+00 2.823160196794125e+00 0.000000000000000e+00
2.219245011532792e+00 2.832095908151461e+00 0.000000000000000e+00
2.239279655666649e+00 2.839091480528106e+00 0.000000000000000e+00
2.260475153406147e+00 2.844834844876625e+00 0.000000000000000e+00
2.280439293166697e+00 2.850889889703854e+00 0.000000000000000e+00
2.302116552380217e+00 2.853351423910182e+00 0.000000000000000e+00
2.323279940442100e+00 2.854206443741988e+00 0.000000000000000e+00
2.344932341035591e+00 2.856372818555306e+00 0.000000000000000e+00
2.366397609037677e+00 2.855582689725537e+00 0.000000000000000e+00
2.387961877780046e+00 2.853033528671325e+00 0.000000000000000e+00
2.408621418231919e+00 2.850072665005578e+00 0.000000000000000e+00
2.430032289570520e+00 2.847429269627144e+00 0.000000000000000e+00
2.451223900289436e+00 2.843228161189258e+00 0.000000000000000e+00
2.471475366289760e+00 2.836857188329991e+00 0.000000000000000e+00
2.491620533734265e+00 2.830884228246957e+00 0.000000000000000e+00
2.512119010736571e+00 2.825128694788675e+00 0.000000000000000e+00
2.532265799259726e+00 2.817713840842107e+00 0.000000000000000e+00
2.551760052341153e+00 2.809125024354996e+00 0.000000000000000e+00
2.571711207580600e+00 2.801552855292933e+00 0.000000000000000e+00
2.591752768792892e+00 2.794178836112717e+00 0.000000000000000e+00
2.610916202314462e+00 2.786263557631894e+00 0.000000000000000e+00
2.631294381941909e+00 2.778040062249240e+00 0.000000000000000e+00
2.650317735981199e+00 2.769773658981178e+00 0.000000000000000e+00
2.670874921569095e+00 2.763288812421883e+00 0.000000000000000e+00
2.691493647672766e+00 2.757018413680131e+00 0.000000000000000e+00
2.710966462165846e+00 2.750326080324370e+00 0.000000000000000e+00
2.732359007037187e+00 2.744762035565824e+00 0.000000000000000e+00
2.752060565559587e+00 2.740078931105944e+00 0.000000000000000e+00
2.773705165087119e+00 2.734686586512681e+00 0.000000000000000e+00
2.792905761930651e+00 2.729325317690919e+00 0.000000000000000e+00
2.815011534450550e+00 2.724698927814199e+00 0.000000000000000e+00
2.834807415327587e+00 2.720680567003996e+00 0.000000000000000e+00
2.856125072177182e+00 2.717413266857404e+00 0.000000000000000e+00
2.877405103230997e+00 2.713131314442138e+00 0.000000000000000e+00
2.897554170954380e+00 2.708791249171946e+00 0.000000000000000e+00
2.919441895026249e+00 2.705079407927893e+00 0.000000000000000e+00
2.939406193411174e+00 2.701039540620406e+00 0.000000000000000e+00
2.960587585634282e+00 2.697150524414655e+00 0.000000000000000e+00
2.981838215908556e+00 2.694289791563623e+00 0.000000000000000e+00
3.002213464030566e+00 2.690414450436514e+00 0.000000000000000e+00
3.023477245157186e+00 2.686860019437330e+00 0.000000000000000e+00
3.044536183072460e+00 2.684105962230416e+00 0.000000000000000e+00
3.065234370857534e+00 2.680341777474152e+00 0.000000000000000e+00
3.086215348229376e+00 2.676977717073890e+00 0.000000000000000e+00
3.106524559404370e+00 2.674148835109299e+00 0.000000000000000e+00
3.128272549126828e+00 2.671306788980997e+00 0.000000000000000e+00
3.148559544355689e+00 2.668683164820739e+00 0.000000000000000e+00
3.169557848070039e+00 2.666429157836373e+00 0.000000000000000e+00
3.190754544696936e+00 2.664718410112890e+00 0.000000000000000e+00
3.211469889207717e+00 2.662065606879385e+00 0.000000000000000e+00
3.233043661847524e+00 2.660230670091634e+00 0.000000000000000e+00
3.254030379147954e+00 2.658253430318131e+00 0.000000000000000e+00
3.274487868915262e+00 2.656476382004056e+00 0.000000000000000e+00
3.296274509784883e+00 2.655498140816509e+00 0.000000000000000e+00
3.316515091569518e+00 2.653785240082339e+00 0.000000000000000e+00
3.337868120136142e+00 2.652486213162384e+00 0.000000000000000e+00
3.359165025170574e+00 2.651983328213823e+00 0.000000000000000e+00
3.380115734828989e+00 2.651065732204377e+00 0.000000000000000e+00
3.401577942097663e+00 2.650464273630899e+00 0.000000000000000e+00
3.422280140172968e+00 2.650861521737199e+00 0.000000000000000e+00
3.444053356784895e+00 2.651817670526510e+00 0.000000000000000e+00
3.464862634177904e+00 2.652622780580072e+00 0.000000000000000e+00
3.486606585529799e+00 2.653672173987440e+00 0.000000000000000e+00
3.507751400967732e+00 2.655396212251922e+00 0.000000000000000e+00
3.529373235114136e+00 2.657246415327016e+00 0.000000000000000e+00
3.550942857663161e+00 2.658832246858308e+00 0.000000000000000e+00
3.572510344505098e+00 2.660911700937067e+00 0.000000000000000e+00
3.593798541419949e+00 2.662706282592659e+00 0.000000000000000e+00
3.615886361918621e+00 2.664999787329733e+00 0.000000000000000e+00
3.636566816139933e+00 2.667947011609767e+00 0.000000000000000e+00
3.658744815499636e+00 2.670291641945457e+00 0.000000000000000e+00
3.679957780889486e+00 2.673449363922748e+00 0.000000000000000e+00
3.701687441246641e+00 2.676795190018209e+00 0.000000000000000e+00
3.723032575043871e+00 2.680162395108654e+00 0.000000000000000e+00
3.744335704277594e+00 2.683681698141277e+00 0.000000000000000e+00
3.766224380929760e+00 2.687465126273406e+00 0.000000000000000e+00
3.786782770105075e+00 2.691901609951123e+00 0.000000000000000e+00
3.808261156377620e+00 2.696215356160276e+00 0.000000000000000e+00
3.829380576920324e+00 2.701049674102266e+00 0.000000000000000e+00
3.850197185006002e+00 2.707482805122514e+00 0.000000000000000e+00
3.869733954809723e+00 2.714858152779335e+00 0.000000000000000e+00
3.890368630261623e+00 2.723652452422928e+00 0.000000000000000e+00
3.909461723608093e+00 2.733504349093793e+00 0.000000000000000e+00
3.926771495862385e+00 2.744857911944687e+00 0.000000000000000e+00
3.943719448694295e+00 2.758679095314370e+00 0.000000000000000e+00
3.958026673855195e+00 2.774739745998366e+00 0.000000000000000e+00
3.969126832906207e+00 2.791738005477669e+00 0.000000000000000e+00
3.979365703230402e+00 2.810878882805383e+00 0.000000000000000e+00
3.986353563744047e+00 2.830797834510681e+00 0.000000000000000e+00
3.990495251813874e+00 2.851988662041115e+00 0.000000000000000e+00
3.994379637136239e+00 2.873404443199508e+00 0.000000000000000e+00
3.999364020281309e+00 2.895017596546674e+00 0.000000000000000e+00
4.001979312161530e+00 2.915683981181185e+00 0.000000000000000e+00
4.000222567364447e+00 2.936503605201291e+00 0.000000000000000e+00
4.000588636681593e+00 2.959370313739217e+00 0.000000000000000e+00
4.003381485789188e+00 2.980274065344748e+00 0.000000000000000e+00

POINT_DATA   310
SCALARS fX_Lag double
LOOKUP_TABLE default

-3.509522e+02 
8.130037e+02 
-5.915262e+02 
-7.311608e+02 
4.595460e+03 
-3.866017e+03 
1.671586e+03 
-1.635904e+03 
2.793713e+03 
-4.396737e+03 
5.532576e+03 
-4.636825e+03 
1.562902e+03 
8.344374e+03 
-1.535961e+04 
7.976420e+03 
1.262576e+03 
-7.777335e+02 
-1.735218e+03 
-9.830215e+02 
3.343626e+03 
1.326044e+03 
-4.643274e+03 
1.084496e+04 
-1.411234e+04 
1.595674e+04 
-1.541023e+04 
1.439365e+04 
-1.059396e+04 
6.350749e+03 
1.061804e+03 
-1.880641e+03 
-7.804705e+03 
7.730264e+03 
-2.326256e+03 
-2.126032e+03 
7.413396e+03 
-1.323599e+04 
-3.304468e+02 
1.472188e+04 
-1.176515e+04 
4.384730e+03 
-2.727716e+03 
4.045050e+03 
-6.615079e+02 
-4.822090e+03 
1.271369e+03 
-9.922645e+02 
6.326829e+02 
-1.377871e+03 
7.026916e+03 
-1.853715e+03 
-4.364018e+03 
-1.576274e+03 
6.437597e+03 
-3.170158e+03 
-2.479989e+02 
1.973455e+03 
2.936749e+03 
-3.459430e+03 
-8.844901e+02 
6.864263e+03 
-1.194387e+04 
1.003487e+04 
-5.926785e+03 
6.258687e+03 
-2.555101e+03 
1.744853e+03 
-8.785902e+03 
6.904088e+03 
3.680331e+02 
-3.893414e+03 
-2.382227e+03 
2.547219e+03 
1.665077e+03 
-1.779520e+03 
8.681400e+02 
4.164359e+01 
-6.055549e+03 
1.157735e+04 
-1.199592e+04 
8.608393e+03 
4.083355e+01 
-9.441246e+03 
1.505090e+04 
-1.800015e+04 
1.956978e+04 
-2.326498e+04 
2.608054e+04 
-2.327110e+04 
1.353828e+04 
1.286347e+03 
-1.057721e+04 
1.564814e+04 
-1.821899e+04 
1.122022e+04 
-9.108321e+02 
-6.925736e+03 
8.456372e+03 
-2.932179e+03 
-2.315437e+03 
1.657014e+03 
-7.249087e+03 
1.458191e+04 
-1.436023e+04 
6.562005e+03 
1.174670e+03 
-4.299441e+03 
7.889580e+03 
-5.496149e+03 
-5.421377e+03 
1.260009e+04 
-1.520048e+04 
1.065874e+04 
-5.801818e+02 
-2.889430e+03 
5.399237e+03 
-7.412985e+03 
1.085646e+04 
-9.751248e+03 
9.311043e+03 
-5.613316e+03 
4.781746e+03 
-6.784078e+02 
5.929703e+02 
-2.550629e+03 
8.210477e+03 
-1.387385e+04 
1.325543e+04 
-8.831709e+03 
6.006871e+03 
-2.866177e+03 
-2.448282e+02 
5.795690e+03 
-1.194615e+04 
8.346954e+03 
-1.722872e+03 
1.523580e+03 
-8.188962e+03 
1.312949e+04 
-1.038286e+04 
-8.758098e+03 
8.511431e+03 
-4.629883e+03 
-9.127583e+03 
5.937831e+03 
-5.523804e+03 
-1.443709e+03 
-1.982781e+02 
1.997647e+03 
-4.258013e+03 
-3.013689e+03 
2.653026e+03 
1.476374e+03 
-5.695303e+03 
-3.509522e+02 
8.130037e+02 
-5.915262e+02 
-7.311608e+02 
4.595460e+03 
-3.866017e+03 
1.671586e+03 
-1.635904e+03 
2.793713e+03 
-4.396737e+03 
5.532576e+03 
-4.636825e+03 
1.562902e+03 
8.344374e+03 
-1.535961e+04 
7.976420e+03 
1.262576e+03 
-7.777335e+02 
-1.735218e+03 
-9.830215e+02 
3.343626e+03 
1.326044e+03 
-4.643274e+03 
1.084496e+04 
-1.411234e+04 
1.595674e+04 
-1.541023e+04 
1.439365e+04 
-1.059396e+04 
6.350749e+03 
1.061804e+03 
-1.880641e+03 
-7.804705e+03 
7.730264e+03 
-2.326256e+03 
-2.126032e+03 
7.413396e+03 
-1.323599e+04 
-3.304468e+02 
1.472188e+04 
-1.176515e+04 
4.384730e+03 
-2.727716e+03 
4.045050e+03 
-6.615079e+02 
-4.822090e+03 
1.271369e+03 
-9.922645e+02 
6.326829e+02 
-1.377871e+03 
7.026916e+03 
-1.853715e+03 
-4.364018e+03 
-1.576274e+03 
6.437597e+03 
-3.170158e+03 
-2.479989e+02 
1.973455e+03 
2.936749e+03 
-3.459430e+03 
-8.844901e+02 
6.864263e+03 
-1.194387e+04 
1.003487e+04 
-5.926785e+03 
6.258687e+03 
-2.555101e+03 
1.744853e+03 
-8.785902e+03 
6.904088e+03 
3.680331e+02 
-3.893414e+03 
-2.382227e+03 
2.547219e+03 
1.665077e+03 
-1.779520e+03 
8.681400e+02 
4.164359e+01 
-6.055549e+03 
1.157735e+04 
-1.199592e+04 
8.608393e+03 
4.083355e+01 
-9.441246e+03 
1.505090e+04 
-1.800015e+04 
1.956978e+04 
-2.326498e+04 
2.608054e+04 
-2.327110e+04 
1.353828e+04 
1.286347e+03 
-1.057721e+04 
1.564814e+04 
-1.821899e+04 
1.122022e+04 
-9.108321e+02 
-6.925736e+03 
8.456372e+03 
-2.932179e+03 
-2.315437e+03 
1.657014e+03 
-7.249087e+03 
1.458191e+04 
-1.436023e+04 
6.562005e+03 
1.174670e+03 
-4.299441e+03 
7.889580e+03 
-5.496149e+03 
-5.421377e+03 
1.260009e+04 
-1.520048e+04 
1.065874e+04 
-5.801818e+02 
-2.889430e+03 
5.399237e+03 
-7.412985e+03 
1.085646e+04 
-9.751248e+03 
9.311043e+03 
-5.613316e+03 
4.781746e+03 
-6.784078e+02 
5.929703e+02 
-2.550629e+03 
8.210477e+03 
-1.387385e+04 
1.325543e+04 
-8.831709e+03 
6.006871e+03 
-2.866177e+03 
-2.448282e+02 
5.795690e+03 
-1.194615e+04 
8.346954e+03 
-1.722872e+03 
1.523580e+03 
-8.188962e+03 
1.312949e+04 
-1.038286e+04 
-8.758098e+03 
8.511431e+03 
-4.629883e+03 
-9.127583e+03 
5.937831e+03 
-5.523804e+03 
-1.443709e+03 
-1.982781e+02 
1.997647e+03 
-4.258013e+03 
-3.013689e+03 
2.653026e+03 
1.476374e+03 
-5.695303e+03 
