# vtk DataFile Version 2.0
fX_Lag
ASCII
DATASET UNSTRUCTURED_GRID

FIELD FieldData 1
TIME 1 1 double
0.17000000
POINTS 310 float
1.002393058088515e+00 2.000759734362589e+00 0.000000000000000e+00
1.021031286705550e+00 2.007562361511836e+00 0.000000000000000e+00
1.040000297408343e+00 2.012900526261542e+00 0.000000000000000e+00
1.059200185400974e+00 2.018822804395650e+00 0.000000000000000e+00
1.077336984601171e+00 2.025756397770849e+00 0.000000000000000e+00
1.096672810755682e+00 2.031359992243945e+00 0.000000000000000e+00
1.115929072577226e+00 2.035874641071041e+00 0.000000000000000e+00
1.134906123438061e+00 2.041320014636158e+00 0.000000000000000e+00
1.154365758255258e+00 2.046057640689440e+00 0.000000000000000e+00
1.173036655535694e+00 2.052409178868619e+00 0.000000000000000e+00
1.192667614684778e+00 2.056242745524390e+00 0.000000000000000e+00
1.211733813854868e+00 2.061699871227565e+00 0.000000000000000e+00
1.231207886458979e+00 2.065707145633114e+00 0.000000000000000e+00
1.250257289447605e+00 2.071606121477525e+00 0.000000000000000e+00
1.269779441559552e+00 2.075820461906602e+00 0.000000000000000e+00
1.288667194982341e+00 2.080951182956164e+00 0.000000000000000e+00
1.308376448033795e+00 2.085695852296856e+00 0.000000000000000e+00
1.327411148696261e+00 2.090297646552150e+00 0.000000000000000e+00
1.346802349162676e+00 2.095854884684691e+00 0.000000000000000e+00
1.366031768859989e+00 2.100497081475742e+00 0.000000000000000e+00
1.385244061973969e+00 2.105836270377818e+00 0.000000000000000e+00
1.404481589892760e+00 2.110843395809444e+00 0.000000000000000e+00
1.423770136510427e+00 2.116367284840251e+00 0.000000000000000e+00
1.442828451162806e+00 2.121184540813462e+00 0.000000000000000e+00
1.462591773192863e+00 2.125854795215555e+00 0.000000000000000e+00
1.481594710174975e+00 2.130602072210421e+00 0.000000000000000e+00
1.501411285462875e+00 2.135396623780586e+00 0.000000000000000e+00
1.520358276574576e+00 2.139821892218846e+00 0.000000000000000e+00
1.540261083388537e+00 2.144351046284480e+00 0.000000000000000e+00
1.559487041490289e+00 2.147804588802543e+00 0.000000000000000e+00
1.579222098877249e+00 2.152653330306876e+00 0.000000000000000e+00
1.598967714819407e+00 2.154579209935885e+00 0.000000000000000e+00
1.618646738088243e+00 2.158856558415395e+00 0.000000000000000e+00
1.637686541103086e+00 2.164207368298924e+00 0.000000000000000e+00
1.657536587119279e+00 2.168205780142111e+00 0.000000000000000e+00
1.677010118610205e+00 2.172243184891402e+00 0.000000000000000e+00
1.696058158981934e+00 2.178825585955015e+00 0.000000000000000e+00
1.716056764822155e+00 2.178182806670380e+00 0.000000000000000e+00
1.735064612253214e+00 2.185020012659284e+00 0.000000000000000e+00
1.754191866703343e+00 2.190696026203557e+00 0.000000000000000e+00
1.774171098454175e+00 2.193883213632781e+00 0.000000000000000e+00
1.793279540778623e+00 2.199000103634628e+00 0.000000000000000e+00
1.813038615143899e+00 2.204231789223093e+00 0.000000000000000e+00
1.832243644682392e+00 2.208925615803430e+00 0.000000000000000e+00
1.851794553098725e+00 2.214128210994586e+00 0.000000000000000e+00
1.871518424056701e+00 2.217805743378985e+00 0.000000000000000e+00
1.889458891983491e+00 2.227040047388272e+00 0.000000000000000e+00
1.909371252184723e+00 2.229886501815889e+00 0.000000000000000e+00
1.928339933170624e+00 2.236176830441975e+00 0.000000000000000e+00
1.947437061760640e+00 2.243427252641602e+00 0.000000000000000e+00
1.965528269147248e+00 2.251985484333638e+00 0.000000000000000e+00
1.984799719832944e+00 2.257432891864868e+00 0.000000000000000e+00
2.003825627974941e+00 2.264182797520620e+00 0.000000000000000e+00
2.022529720292795e+00 2.271556580200494e+00 0.000000000000000e+00
2.040828268708140e+00 2.280373345938342e+00 0.000000000000000e+00
2.060390349339423e+00 2.284838335847139e+00 0.000000000000000e+00
2.079538055664622e+00 2.291062543039441e+00 0.000000000000000e+00
2.097552272585884e+00 2.300375270103824e+00 0.000000000000000e+00
2.117112265365910e+00 2.305368741510225e+00 0.000000000000000e+00
2.136541953126387e+00 2.310077103720498e+00 0.000000000000000e+00
2.155966996110263e+00 2.316711585350267e+00 0.000000000000000e+00
2.174394473267385e+00 2.323627439090780e+00 0.000000000000000e+00
2.194309969787819e+00 2.328841274755430e+00 0.000000000000000e+00
2.213945866837764e+00 2.331803761183574e+00 0.000000000000000e+00
2.233438534322825e+00 2.338171140755889e+00 0.000000000000000e+00
2.252358039093124e+00 2.344484858308231e+00 0.000000000000000e+00
2.272335346754862e+00 2.347523548927260e+00 0.000000000000000e+00
2.292159411843448e+00 2.351559390927914e+00 0.000000000000000e+00
2.311870156361732e+00 2.356744837613081e+00 0.000000000000000e+00
2.330545159695188e+00 2.362205250239678e+00 0.000000000000000e+00
2.350964727852638e+00 2.365676843425035e+00 0.000000000000000e+00
2.370895456823864e+00 2.369406807969127e+00 0.000000000000000e+00
2.389779325465104e+00 2.374851179551239e+00 0.000000000000000e+00
2.409465569400978e+00 2.379542602065004e+00 0.000000000000000e+00
2.429682271610015e+00 2.382987517344250e+00 0.000000000000000e+00
2.449687039191856e+00 2.386338678687248e+00 0.000000000000000e+00
2.468803211595787e+00 2.390405909329920e+00 0.000000000000000e+00
2.489082585082020e+00 2.393375381143613e+00 0.000000000000000e+00
2.509813194612379e+00 2.395139668225517e+00 0.000000000000000e+00
2.529301453946729e+00 2.396716769009245e+00 0.000000000000000e+00
2.549685772103746e+00 2.397909675497687e+00 0.000000000000000e+00
2.569407301645574e+00 2.399828717877065e+00 0.000000000000000e+00
2.590086434313431e+00 2.399350508881347e+00 0.000000000000000e+00
2.610660099070509e+00 2.399099467489971e+00 0.000000000000000e+00
2.629898021015218e+00 2.400792908685836e+00 0.000000000000000e+00
2.651126639340484e+00 2.400220124603234e+00 0.000000000000000e+00
2.671220630140940e+00 2.398554728175510e+00 0.000000000000000e+00
2.691445034488103e+00 2.398241132478308e+00 0.000000000000000e+00
2.711279900468566e+00 2.399872522417915e+00 0.000000000000000e+00
2.732297990002073e+00 2.399382978721046e+00 0.000000000000000e+00
2.752592628321517e+00 2.400108086945004e+00 0.000000000000000e+00
2.772800267433410e+00 2.400659750707511e+00 0.000000000000000e+00
2.793107966904275e+00 2.401862403512616e+00 0.000000000000000e+00
2.813633510290573e+00 2.403280501576206e+00 0.000000000000000e+00
2.834199997704391e+00 2.403466223935440e+00 0.000000000000000e+00
2.853963175794038e+00 2.404657295232851e+00 0.000000000000000e+00
2.874645609944459e+00 2.405691977927965e+00 0.000000000000000e+00
2.894472678703143e+00 2.405306892564743e+00 0.000000000000000e+00
2.915549949053141e+00 2.405955011081417e+00 0.000000000000000e+00
2.935338793421666e+00 2.406205620686574e+00 0.000000000000000e+00
2.955621460242115e+00 2.406343992260801e+00 0.000000000000000e+00
2.976927706334351e+00 2.405828542972794e+00 0.000000000000000e+00
2.995782377737726e+00 2.403566384697885e+00 0.000000000000000e+00
3.016492409162650e+00 2.402545876943495e+00 0.000000000000000e+00
3.037104281168121e+00 2.401669181608040e+00 0.000000000000000e+00
3.057024489411520e+00 2.400356105765889e+00 0.000000000000000e+00
3.077911309992807e+00 2.397402558610797e+00 0.000000000000000e+00
3.095901276948962e+00 2.392639567762022e+00 0.000000000000000e+00
3.117309961957243e+00 2.388363157222359e+00 0.000000000000000e+00
3.136645712081311e+00 2.383059476612127e+00 0.000000000000000e+00
3.155025588928685e+00 2.377078384823509e+00 0.000000000000000e+00
3.175292136059605e+00 2.370904580776247e+00 0.000000000000000e+00
3.193849999931801e+00 2.363999968618781e+00 0.000000000000000e+00
3.213401877597502e+00 2.356868213349913e+00 0.000000000000000e+00
3.231923473294801e+00 2.348770735911312e+00 0.000000000000000e+00
3.250148039632113e+00 2.339926962452332e+00 0.000000000000000e+00
3.269532271743938e+00 2.331298724633790e+00 0.000000000000000e+00
3.287726415568770e+00 2.322583506838729e+00 0.000000000000000e+00
3.305728582325332e+00 2.313643336117567e+00 0.000000000000000e+00
3.324397844069683e+00 2.303591899523731e+00 0.000000000000000e+00
3.342276164878801e+00 2.294332948214267e+00 0.000000000000000e+00
3.361369862278681e+00 2.285741556557163e+00 0.000000000000000e+00
3.379677735993051e+00 2.276973120763162e+00 0.000000000000000e+00
3.398166836831019e+00 2.267373680356898e+00 0.000000000000000e+00
3.416765293019105e+00 2.257768306662397e+00 0.000000000000000e+00
3.435526404400326e+00 2.249368708553786e+00 0.000000000000000e+00
3.454895921916725e+00 2.241666000369227e+00 0.000000000000000e+00
3.473686078588000e+00 2.232140269862355e+00 0.000000000000000e+00
3.491648326109143e+00 2.221509819389357e+00 0.000000000000000e+00
3.510946223576939e+00 2.214209543020571e+00 0.000000000000000e+00
3.529214421708275e+00 2.204906769494602e+00 0.000000000000000e+00
3.548881408633636e+00 2.194484759262830e+00 0.000000000000000e+00
3.565824713416078e+00 2.184515160143851e+00 0.000000000000000e+00
3.584676581284234e+00 2.173984390455363e+00 0.000000000000000e+00
3.603682777421723e+00 2.165353282225633e+00 0.000000000000000e+00
3.620480387576967e+00 2.152735132821703e+00 0.000000000000000e+00
3.637982842628788e+00 2.141083667718288e+00 0.000000000000000e+00
3.656090705790915e+00 2.130499657975824e+00 0.000000000000000e+00
3.673735196170160e+00 2.118631947863963e+00 0.000000000000000e+00
3.690612867825624e+00 2.106269361886718e+00 0.000000000000000e+00
3.708080290124780e+00 2.094346515375814e+00 0.000000000000000e+00
3.726566276446726e+00 2.083545162265640e+00 0.000000000000000e+00
3.744088119448806e+00 2.072348443736433e+00 0.000000000000000e+00
3.761818900849207e+00 2.061508330591348e+00 0.000000000000000e+00
3.781525107972727e+00 2.052491330799691e+00 0.000000000000000e+00
3.800463358008948e+00 2.043545819748260e+00 0.000000000000000e+00
3.819549536385853e+00 2.033845266826269e+00 0.000000000000000e+00
3.839570653587577e+00 2.029060114021775e+00 0.000000000000000e+00
3.860403676498540e+00 2.024077908463001e+00 0.000000000000000e+00
3.880339814027541e+00 2.016865525967444e+00 0.000000000000000e+00
3.900795209283091e+00 2.010787085962174e+00 0.000000000000000e+00
3.922016540689359e+00 2.008999901153712e+00 0.000000000000000e+00
3.942472538385367e+00 2.007285967502140e+00 0.000000000000000e+00
3.963584326922238e+00 2.001097002540797e+00 0.000000000000000e+00
3.984316188427416e+00 2.001698064615768e+00 0.000000000000000e+00
1.002393058088513e+00 2.999240265637413e+00 0.000000000000000e+00
1.021031286705550e+00 2.992437638488173e+00 0.000000000000000e+00
1.040000297408345e+00 2.987099473738472e+00 0.000000000000000e+00
1.059200185400976e+00 2.981177195604361e+00 0.000000000000000e+00
1.077336984601170e+00 2.974243602229164e+00 0.000000000000000e+00
1.096672810755687e+00 2.968640007756072e+00 0.000000000000000e+00
1.115929072577227e+00 2.964125358928980e+00 0.000000000000000e+00
1.134906123438068e+00 2.958679985363870e+00 0.000000000000000e+00
1.154365758255264e+00 2.953942359310597e+00 0.000000000000000e+00
1.173036655535702e+00 2.947590821131421e+00 0.000000000000000e+00
1.192667614684785e+00 2.943757254475648e+00 0.000000000000000e+00
1.211733813854874e+00 2.938300128772469e+00 0.000000000000000e+00
1.231207886458985e+00 2.934292854366920e+00 0.000000000000000e+00
1.250257289447608e+00 2.928393878522509e+00 0.000000000000000e+00
1.269779441559557e+00 2.924179538093421e+00 0.000000000000000e+00
1.288667194982344e+00 2.919048817043864e+00 0.000000000000000e+00
1.308376448033800e+00 2.914304147703171e+00 0.000000000000000e+00
1.327411148696265e+00 2.909702353447878e+00 0.000000000000000e+00
1.346802349162681e+00 2.904145115315333e+00 0.000000000000000e+00
1.366031768859992e+00 2.899502918524287e+00 0.000000000000000e+00
1.385244061973978e+00 2.894163729622217e+00 0.000000000000000e+00
1.404481589892761e+00 2.889156604190582e+00 0.000000000000000e+00
1.423770136510435e+00 2.883632715159782e+00 0.000000000000000e+00
1.442828451162809e+00 2.878815459186562e+00 0.000000000000000e+00
1.462591773192865e+00 2.874145204784464e+00 0.000000000000000e+00
1.481594710174978e+00 2.869397927789600e+00 0.000000000000000e+00
1.501411285462877e+00 2.864603376219431e+00 0.000000000000000e+00
1.520358276574578e+00 2.860178107781171e+00 0.000000000000000e+00
1.540261083388537e+00 2.855648953715535e+00 0.000000000000000e+00
1.559487041490288e+00 2.852195411197466e+00 0.000000000000000e+00
1.579222098877249e+00 2.847346669693136e+00 0.000000000000000e+00
1.598967714819405e+00 2.845420790064127e+00 0.000000000000000e+00
1.618646738088242e+00 2.841143441584618e+00 0.000000000000000e+00
1.637686541103084e+00 2.835792631701087e+00 0.000000000000000e+00
1.657536587119277e+00 2.831794219857895e+00 0.000000000000000e+00
1.677010118610201e+00 2.827756815108613e+00 0.000000000000000e+00
1.696058158981934e+00 2.821174414045005e+00 0.000000000000000e+00
1.716056764822155e+00 2.821817193329652e+00 0.000000000000000e+00
1.735064612253212e+00 2.814979987340746e+00 0.000000000000000e+00
1.754191866703342e+00 2.809303973796473e+00 0.000000000000000e+00
1.774171098454176e+00 2.806116786367254e+00 0.000000000000000e+00
1.793279540778623e+00 2.800999896365404e+00 0.000000000000000e+00
1.813038615143901e+00 2.795768210776942e+00 0.000000000000000e+00
1.832243644682392e+00 2.791074384196604e+00 0.000000000000000e+00
1.851794553098727e+00 2.785871789005453e+00 0.000000000000000e+00
1.871518424056704e+00 2.782194256621060e+00 0.000000000000000e+00
1.889458891983494e+00 2.772959952611771e+00 0.000000000000000e+00
1.909371252184725e+00 2.770113498184150e+00 0.000000000000000e+00
1.928339933170628e+00 2.763823169558075e+00 0.000000000000000e+00
1.947437061760647e+00 2.756572747358452e+00 0.000000000000000e+00
1.965528269147252e+00 2.748014515666408e+00 0.000000000000000e+00
1.984799719832948e+00 2.742567108135178e+00 0.000000000000000e+00
2.003825627974947e+00 2.735817202479433e+00 0.000000000000000e+00
2.022529720292801e+00 2.728443419799557e+00 0.000000000000000e+00
2.040828268708149e+00 2.719626654061717e+00 0.000000000000000e+00
2.060390349339429e+00 2.715161664152915e+00 0.000000000000000e+00
2.079538055664630e+00 2.708937456960609e+00 0.000000000000000e+00
2.097552272585890e+00 2.699624729896231e+00 0.000000000000000e+00
2.117112265365914e+00 2.694631258489824e+00 0.000000000000000e+00
2.136541953126396e+00 2.689922896279561e+00 0.000000000000000e+00
2.155966996110268e+00 2.683288414649784e+00 0.000000000000000e+00
2.174394473267391e+00 2.676372560909272e+00 0.000000000000000e+00
2.194309969787824e+00 2.671158725244626e+00 0.000000000000000e+00
2.213945866837769e+00 2.668196238816472e+00 0.000000000000000e+00
2.233438534322826e+00 2.661828859244151e+00 0.000000000000000e+00
2.252358039093126e+00 2.655515141691811e+00 0.000000000000000e+00
2.272335346754863e+00 2.652476451072789e+00 0.000000000000000e+00
2.292159411843449e+00 2.648440609072126e+00 0.000000000000000e+00
2.311870156361733e+00 2.643255162386953e+00 0.000000000000000e+00
2.330545159695186e+00 2.637794749760360e+00 0.000000000000000e+00
2.350964727852642e+00 2.634323156575006e+00 0.000000000000000e+00
2.370895456823863e+00 2.630593192030912e+00 0.000000000000000e+00
2.389779325465106e+00 2.625148820448798e+00 0.000000000000000e+00
2.409465569400979e+00 2.620457397935045e+00 0.000000000000000e+00
2.429682271610023e+00 2.617012482655797e+00 0.000000000000000e+00
2.449687039191859e+00 2.613661321312800e+00 0.000000000000000e+00
2.468803211595798e+00 2.609594090670134e+00 0.000000000000000e+00
2.489082585082026e+00 2.606624618856444e+00 0.000000000000000e+00
2.509813194612386e+00 2.604860331774541e+00 0.000000000000000e+00
2.529301453946740e+00 2.603283230990814e+00 0.000000000000000e+00
2.549685772103754e+00 2.602090324502368e+00 0.000000000000000e+00
2.569407301645583e+00 2.600171282122993e+00 0.000000000000000e+00
2.590086434313440e+00 2.600649491118716e+00 0.000000000000000e+00
2.610660099070517e+00 2.600900532510087e+00 0.000000000000000e+00
2.629898021015225e+00 2.599207091314219e+00 0.000000000000000e+00
2.651126639340490e+00 2.599779875396822e+00 0.000000000000000e+00
2.671220630140945e+00 2.601445271824550e+00 0.000000000000000e+00
2.691445034488106e+00 2.601758867521749e+00 0.000000000000000e+00
2.711279900468570e+00 2.600127477582138e+00 0.000000000000000e+00
2.732297990002076e+00 2.600617021279003e+00 0.000000000000000e+00
2.752592628321521e+00 2.599891913055056e+00 0.000000000000000e+00
2.772800267433414e+00 2.599340249292542e+00 0.000000000000000e+00
2.793107966904279e+00 2.598137596487427e+00 0.000000000000000e+00
2.813633510290574e+00 2.596719498423839e+00 0.000000000000000e+00
2.834199997704394e+00 2.596533776064604e+00 0.000000000000000e+00
2.853963175794036e+00 2.595342704767186e+00 0.000000000000000e+00
2.874645609944464e+00 2.594308022072067e+00 0.000000000000000e+00
2.894472678703141e+00 2.594693107435291e+00 0.000000000000000e+00
2.915549949053142e+00 2.594044988918619e+00 0.000000000000000e+00
2.935338793421660e+00 2.593794379313457e+00 0.000000000000000e+00
2.955621460242114e+00 2.593656007739223e+00 0.000000000000000e+00
2.976927706334346e+00 2.594171457027227e+00 0.000000000000000e+00
2.995782377737723e+00 2.596433615302137e+00 0.000000000000000e+00
3.016492409162647e+00 2.597454123056528e+00 0.000000000000000e+00
3.037104281168112e+00 2.598330818391985e+00 0.000000000000000e+00
3.057024489411521e+00 2.599643894234135e+00 0.000000000000000e+00
3.077911309992797e+00 2.602597441389229e+00 0.000000000000000e+00
3.095901276948962e+00 2.607360432238008e+00 0.000000000000000e+00
3.117309961957239e+00 2.611636842777666e+00 0.000000000000000e+00
3.136645712081309e+00 2.616940523387906e+00 0.000000000000000e+00
3.155025588928676e+00 2.622921615176533e+00 0.000000000000000e+00
3.175292136059592e+00 2.629095419223797e+00 0.000000000000000e+00
3.193849999931800e+00 2.636000031381259e+00 0.000000000000000e+00
3.213401877597493e+00 2.643131786650118e+00 0.000000000000000e+00
3.231923473294798e+00 2.651229264088723e+00 0.000000000000000e+00
3.250148039632094e+00 2.660073037547718e+00 0.000000000000000e+00
3.269532271743927e+00 2.668701275366265e+00 0.000000000000000e+00
3.287726415568747e+00 2.677416493161323e+00 0.000000000000000e+00
3.305728582325319e+00 2.686356663882493e+00 0.000000000000000e+00
3.324397844069654e+00 2.696408100476334e+00 0.000000000000000e+00
3.342276164878783e+00 2.705667051785796e+00 0.000000000000000e+00
3.361369862278657e+00 2.714258443442896e+00 0.000000000000000e+00
3.379677735993033e+00 2.723026879236888e+00 0.000000000000000e+00
3.398166836831012e+00 2.732626319643151e+00 0.000000000000000e+00
3.416765293019087e+00 2.742231693337647e+00 0.000000000000000e+00
3.435526404400315e+00 2.750631291446251e+00 0.000000000000000e+00
3.454895921916711e+00 2.758333999630813e+00 0.000000000000000e+00
3.473686078587990e+00 2.767859730137693e+00 0.000000000000000e+00
3.491648326109130e+00 2.778490180610686e+00 0.000000000000000e+00
3.510946223576926e+00 2.785790456979467e+00 0.000000000000000e+00
3.529214421708262e+00 2.795093230505446e+00 0.000000000000000e+00
3.548881408633616e+00 2.805515240737217e+00 0.000000000000000e+00
3.565824713416065e+00 2.815484839856187e+00 0.000000000000000e+00
3.584676581284227e+00 2.826015609544669e+00 0.000000000000000e+00
3.603682777421715e+00 2.834646717774411e+00 0.000000000000000e+00
3.620480387576948e+00 2.847264867178346e+00 0.000000000000000e+00
3.637982842628779e+00 2.858916332281758e+00 0.000000000000000e+00
3.656090705790904e+00 2.869500342024206e+00 0.000000000000000e+00
3.673735196170155e+00 2.881368052136070e+00 0.000000000000000e+00
3.690612867825615e+00 2.893730638113313e+00 0.000000000000000e+00
3.708080290124769e+00 2.905653484624221e+00 0.000000000000000e+00
3.726566276446717e+00 2.916454837734399e+00 0.000000000000000e+00
3.744088119448790e+00 2.927651556263605e+00 0.000000000000000e+00
3.761818900849199e+00 2.938491669408693e+00 0.000000000000000e+00
3.781525107972713e+00 2.947508669200348e+00 0.000000000000000e+00
3.800463358008944e+00 2.956454180251772e+00 0.000000000000000e+00
3.819549536385842e+00 2.966154733173763e+00 0.000000000000000e+00
3.839570653587570e+00 2.970939885978255e+00 0.000000000000000e+00
3.860403676498532e+00 2.975922091537026e+00 0.000000000000000e+00
3.880339814027543e+00 2.983134474032576e+00 0.000000000000000e+00
3.900795209283088e+00 2.989212914037833e+00 0.000000000000000e+00
3.922016540689360e+00 2.991000098846305e+00 0.000000000000000e+00
3.942472538385366e+00 2.992714032497879e+00 0.000000000000000e+00
3.963584326922241e+00 2.998902997459215e+00 0.000000000000000e+00
3.984316188427417e+00 2.998301935384235e+00 0.000000000000000e+00

POINT_DATA   310
SCALARS fX_Lag double
LOOKUP_TABLE default

4.292195e+02 
-1.138323e+03 
3.660133e+03 
-6.476941e+03 
6.873118e+03 
-3.280563e+03 
-4.528924e+02 
2.782461e+03 
-3.018350e+03 
2.872095e+03 
-1.655631e+03 
6.042579e+02 
4.777797e+02 
4.341931e+02 
-3.879774e+03 
6.862993e+03 
-6.745201e+03 
5.696110e+03 
-3.777042e+03 
1.576136e+03 
-5.526302e+02 
1.803212e+03 
-3.968309e+03 
6.346299e+03 
-7.053681e+03 
7.762213e+03 
-9.034561e+03 
9.361955e+03 
-8.606111e+03 
7.659905e+03 
-4.847750e+03 
2.933764e+03 
-3.460361e+03 
4.657655e+03 
-3.704560e+03 
2.358705e+03 
-1.230353e+03 
1.621788e+03 
-2.176534e+03 
2.894291e+03 
-4.484818e+03 
6.399060e+03 
-6.503057e+03 
4.433310e+03 
-1.536300e+03 
5.192321e+02 
-1.442305e+01 
-1.412245e+03 
4.009132e+03 
-4.023937e+03 
4.932820e+02 
1.504181e+03 
-8.889322e+02 
1.674461e+03 
-2.013542e+03 
6.285164e+02 
9.708402e+02 
-1.143447e+02 
-1.759752e+03 
4.928189e+03 
-8.002337e+03 
8.735456e+03 
-6.705026e+03 
6.083696e+03 
-5.519471e+03 
2.727104e+03 
3.145603e+02 
1.606432e+03 
-8.929199e+03 
1.227361e+04 
-4.752861e+03 
-6.308965e+03 
6.261034e+03 
3.141084e+03 
-2.681744e+03 
-7.562143e+03 
9.633173e+03 
3.433363e+03 
-1.265838e+04 
8.392405e+03 
-5.629539e+03 
8.715738e+03 
-1.295829e+03 
-1.280146e+04 
1.903011e+04 
-1.074530e+04 
7.430187e+02 
-3.179461e+03 
1.150584e+04 
-7.067169e+03 
-1.016145e+03 
1.127210e+03 
2.215506e+03 
-2.781441e+00 
-7.728711e+03 
9.014446e+03 
-8.768630e+03 
1.237201e+04 
-1.298357e+04 
4.787062e+03 
1.021079e+04 
-2.281050e+04 
1.746643e+04 
-1.086549e+03 
-6.751656e+03 
1.110473e+04 
-2.448220e+04 
3.176015e+04 
-1.772204e+04 
-7.354100e+03 
1.805138e+04 
-1.366281e+04 
9.368153e+03 
-5.649463e+03 
3.236604e+02 
9.250920e+03 
-9.775992e+03 
-5.821040e+02 
9.683685e+03 
-9.489163e+03 
7.162262e+03 
-5.883273e+03 
4.535198e+03 
1.276714e+03 
-3.130172e+03 
2.939208e+03 
1.055610e+03 
-2.066942e+03 
-6.584700e+02 
-1.654202e+03 
1.523279e+04 
-2.327336e+04 
1.706923e+04 
-5.813659e+03 
-4.926923e+02 
8.287620e+02 
-4.259582e+01 
1.696932e+03 
-3.124235e+03 
1.979440e+03 
3.018971e+03 
-5.623508e+03 
2.485658e+02 
8.586993e+03 
-6.565334e+03 
3.921573e+03 
-6.232383e+03 
8.182396e+03 
-2.538406e+03 
1.434712e+03 
3.788642e+02 
-6.731219e+03 
1.432817e+04 
-1.338680e+04 
4.279507e+03 
4.292195e+02 
-1.138323e+03 
3.660133e+03 
-6.476941e+03 
6.873118e+03 
-3.280563e+03 
-4.528924e+02 
2.782461e+03 
-3.018350e+03 
2.872095e+03 
-1.655631e+03 
6.042579e+02 
4.777797e+02 
4.341931e+02 
-3.879774e+03 
6.862993e+03 
-6.745201e+03 
5.696110e+03 
-3.777042e+03 
1.576136e+03 
-5.526302e+02 
1.803212e+03 
-3.968309e+03 
6.346299e+03 
-7.053681e+03 
7.762213e+03 
-9.034561e+03 
9.361955e+03 
-8.606111e+03 
7.659905e+03 
-4.847750e+03 
2.933764e+03 
-3.460361e+03 
4.657655e+03 
-3.704560e+03 
2.358705e+03 
-1.230353e+03 
1.621788e+03 
-2.176534e+03 
2.894291e+03 
-4.484818e+03 
6.399060e+03 
-6.503057e+03 
4.433310e+03 
-1.536300e+03 
5.192321e+02 
-1.442305e+01 
-1.412245e+03 
4.009132e+03 
-4.023937e+03 
4.932820e+02 
1.504181e+03 
-8.889322e+02 
1.674461e+03 
-2.013542e+03 
6.285164e+02 
9.708402e+02 
-1.143447e+02 
-1.759752e+03 
4.928189e+03 
-8.002337e+03 
8.735456e+03 
-6.705026e+03 
6.083696e+03 
-5.519471e+03 
2.727104e+03 
3.145603e+02 
1.606432e+03 
-8.929199e+03 
1.227361e+04 
-4.752861e+03 
-6.308965e+03 
6.261034e+03 
3.141084e+03 
-2.681744e+03 
-7.562143e+03 
9.633173e+03 
3.433363e+03 
-1.265838e+04 
8.392405e+03 
-5.629539e+03 
8.715738e+03 
-1.295829e+03 
-1.280146e+04 
1.903011e+04 
-1.074530e+04 
7.430187e+02 
-3.179461e+03 
1.150584e+04 
-7.067169e+03 
-1.016145e+03 
1.127210e+03 
2.215506e+03 
-2.781441e+00 
-7.728711e+03 
9.014446e+03 
-8.768630e+03 
1.237201e+04 
-1.298357e+04 
4.787062e+03 
1.021079e+04 
-2.281050e+04 
1.746643e+04 
-1.086549e+03 
-6.751656e+03 
1.110473e+04 
-2.448220e+04 
3.176015e+04 
-1.772204e+04 
-7.354100e+03 
1.805138e+04 
-1.366281e+04 
9.368153e+03 
-5.649463e+03 
3.236604e+02 
9.250920e+03 
-9.775992e+03 
-5.821040e+02 
9.683685e+03 
-9.489163e+03 
7.162262e+03 
-5.883273e+03 
4.535198e+03 
1.276714e+03 
-3.130172e+03 
2.939208e+03 
1.055610e+03 
-2.066942e+03 
-6.584700e+02 
-1.654202e+03 
1.523279e+04 
-2.327336e+04 
1.706923e+04 
-5.813659e+03 
-4.926923e+02 
8.287620e+02 
-4.259582e+01 
1.696932e+03 
-3.124235e+03 
1.979440e+03 
3.018971e+03 
-5.623508e+03 
2.485658e+02 
8.586993e+03 
-6.565334e+03 
3.921573e+03 
-6.232383e+03 
8.182396e+03 
-2.538406e+03 
1.434712e+03 
3.788642e+02 
-6.731219e+03 
1.432817e+04 
-1.338680e+04 
4.279507e+03 
