# vtk DataFile Version 2.0
fX_Lag
ASCII
DATASET UNSTRUCTURED_GRID

FIELD FieldData 1
TIME 1 1 double
0.02000000
POINTS 310 float
9.893518466891664e-01 2.002834835870062e+00 0.000000000000000e+00
1.001220196250967e+00 1.985607508483991e+00 0.000000000000000e+00
1.004561890908742e+00 1.968534970746026e+00 0.000000000000000e+00
1.007669209742065e+00 1.952703039631057e+00 0.000000000000000e+00
1.023931129544377e+00 1.945319241991063e+00 0.000000000000000e+00
1.042175592847959e+00 1.940474373538243e+00 0.000000000000000e+00
1.057444982718406e+00 1.934368420250224e+00 0.000000000000000e+00
1.072732515041139e+00 1.925274696831108e+00 0.000000000000000e+00
1.088363674873371e+00 1.923382184560316e+00 0.000000000000000e+00
1.104828981132138e+00 1.932858412354254e+00 0.000000000000000e+00
1.118518598153069e+00 1.946616021030531e+00 0.000000000000000e+00
1.133722278488636e+00 1.960226401242190e+00 0.000000000000000e+00
1.152039802961683e+00 1.965831858322722e+00 0.000000000000000e+00
1.172334810377696e+00 1.962334013576583e+00 0.000000000000000e+00
1.190258559462898e+00 1.952991011031193e+00 0.000000000000000e+00
1.207808598087143e+00 1.945274544171333e+00 0.000000000000000e+00
1.226281162494833e+00 1.942277039831572e+00 0.000000000000000e+00
1.244251777292082e+00 1.942729978343388e+00 0.000000000000000e+00
1.261888792405915e+00 1.946838356484251e+00 0.000000000000000e+00
1.279723517481268e+00 1.952581277203532e+00 0.000000000000000e+00
1.296699974236253e+00 1.958595052426159e+00 0.000000000000000e+00
1.315369784784795e+00 1.964872453461733e+00 0.000000000000000e+00
1.334323298567037e+00 1.972607402179858e+00 0.000000000000000e+00
1.352369869248516e+00 1.980785362786288e+00 0.000000000000000e+00
1.371291748015273e+00 1.985809889896599e+00 0.000000000000000e+00
1.390752123156608e+00 1.991809709163608e+00 0.000000000000000e+00
1.408465876423834e+00 2.003610281575468e+00 0.000000000000000e+00
1.423383362549834e+00 2.014492551064591e+00 0.000000000000000e+00
1.441880808488910e+00 2.025045776239438e+00 0.000000000000000e+00
1.459069228482783e+00 2.035475791786965e+00 0.000000000000000e+00
1.478067393417010e+00 2.043328927666879e+00 0.000000000000000e+00
1.497933024560894e+00 2.046893574211803e+00 0.000000000000000e+00
1.516275521333979e+00 2.059255725766278e+00 0.000000000000000e+00
1.527907770921194e+00 2.071660216519888e+00 0.000000000000000e+00
1.546506947933162e+00 2.080942370390069e+00 0.000000000000000e+00
1.564230104240007e+00 2.089436502701582e+00 0.000000000000000e+00
1.582244832785660e+00 2.100206878639359e+00 0.000000000000000e+00
1.600287809448927e+00 2.099664212382173e+00 0.000000000000000e+00
1.615612036954115e+00 2.114817109952062e+00 0.000000000000000e+00
1.624763507734376e+00 2.129861986011471e+00 0.000000000000000e+00
1.640250638016388e+00 2.145839232424004e+00 0.000000000000000e+00
1.653655674591848e+00 2.159211361142760e+00 0.000000000000000e+00
1.671525203260204e+00 2.164059987103632e+00 0.000000000000000e+00
1.688585524247845e+00 2.163881476366807e+00 0.000000000000000e+00
1.706938401603515e+00 2.170646428247096e+00 0.000000000000000e+00
1.724081924776536e+00 2.183809335239242e+00 0.000000000000000e+00
1.737885856314785e+00 2.199149310847782e+00 0.000000000000000e+00
1.756802968320065e+00 2.197634187678116e+00 0.000000000000000e+00
1.777736631272144e+00 2.205197855763685e+00 0.000000000000000e+00
1.797462179572372e+00 2.208020322049195e+00 0.000000000000000e+00
1.816761677947476e+00 2.207100085972089e+00 0.000000000000000e+00
1.834355097400633e+00 2.205589591700846e+00 0.000000000000000e+00
1.854414227443252e+00 2.208305074440531e+00 0.000000000000000e+00
1.872585976878253e+00 2.216121219804288e+00 0.000000000000000e+00
1.888255770304998e+00 2.225209407303146e+00 0.000000000000000e+00
1.908622446999599e+00 2.226153721412357e+00 0.000000000000000e+00
1.927921059574270e+00 2.230107203824551e+00 0.000000000000000e+00
1.946424747285127e+00 2.237392862606223e+00 0.000000000000000e+00
1.965702757197643e+00 2.236183877731583e+00 0.000000000000000e+00
1.986836215659505e+00 2.234288993397242e+00 0.000000000000000e+00
2.007472894040965e+00 2.239640262362476e+00 0.000000000000000e+00
2.025779497002095e+00 2.247169324575243e+00 0.000000000000000e+00
2.045865975330150e+00 2.249846500721119e+00 0.000000000000000e+00
2.066122759443809e+00 2.246176906774420e+00 0.000000000000000e+00
2.087513661788928e+00 2.242587046279104e+00 0.000000000000000e+00
2.107895109407625e+00 2.240149871080837e+00 0.000000000000000e+00
2.127575488661537e+00 2.234646549468737e+00 0.000000000000000e+00
2.145923082205349e+00 2.226109335132704e+00 0.000000000000000e+00
2.164051638797979e+00 2.215665330220392e+00 0.000000000000000e+00
2.182166667633032e+00 2.204001110343914e+00 0.000000000000000e+00
2.199398105513314e+00 2.189481508155362e+00 0.000000000000000e+00
2.214001947149116e+00 2.173626029338904e+00 0.000000000000000e+00
2.229229980332823e+00 2.158218726497581e+00 0.000000000000000e+00
2.244276236308828e+00 2.141234610363081e+00 0.000000000000000e+00
2.257261815887423e+00 2.123870845123766e+00 0.000000000000000e+00
2.270218607104933e+00 2.105546024016343e+00 0.000000000000000e+00
2.284197777833558e+00 2.087916929619737e+00 0.000000000000000e+00
2.297403256498940e+00 2.070789217599699e+00 0.000000000000000e+00
2.307804095378094e+00 2.051246841126542e+00 0.000000000000000e+00
2.315784650849481e+00 2.031077504977263e+00 0.000000000000000e+00
2.324798843526647e+00 2.012828130571913e+00 0.000000000000000e+00
2.335658013509059e+00 1.993885654167946e+00 0.000000000000000e+00
2.346989569959133e+00 1.974223899038706e+00 0.000000000000000e+00
2.359385714849999e+00 1.954809318208441e+00 0.000000000000000e+00
2.373677451414553e+00 1.936840538210022e+00 0.000000000000000e+00
2.389312120625192e+00 1.920369737648652e+00 0.000000000000000e+00
2.405302544551115e+00 1.904395543255280e+00 0.000000000000000e+00
2.421043032728320e+00 1.888441823014499e+00 0.000000000000000e+00
2.438062440228856e+00 1.874504251279774e+00 0.000000000000000e+00
2.456395144685961e+00 1.862103620493795e+00 0.000000000000000e+00
2.475415328220938e+00 1.849989537522672e+00 0.000000000000000e+00
2.494011564188542e+00 1.838309695090342e+00 0.000000000000000e+00
2.512633607882871e+00 1.828292738386310e+00 0.000000000000000e+00
2.532713199302464e+00 1.821486152080844e+00 0.000000000000000e+00
2.554320068353187e+00 1.817353746347771e+00 0.000000000000000e+00
2.576658485591023e+00 1.815012783996601e+00 0.000000000000000e+00
2.599078131049176e+00 1.814695110523440e+00 0.000000000000000e+00
2.621230520988969e+00 1.816832730856906e+00 0.000000000000000e+00
2.643727660205797e+00 1.821352307009566e+00 0.000000000000000e+00
2.666297515680110e+00 1.827798236944748e+00 0.000000000000000e+00
2.688327307064674e+00 1.835664901007269e+00 0.000000000000000e+00
2.709781376839980e+00 1.844979044788516e+00 0.000000000000000e+00
2.730718151579245e+00 1.854955517391109e+00 0.000000000000000e+00
2.751430563532854e+00 1.865361972417804e+00 0.000000000000000e+00
2.771901182072290e+00 1.875787740478360e+00 0.000000000000000e+00
2.792073652184101e+00 1.886001839231158e+00 0.000000000000000e+00
2.812091900774418e+00 1.895883753178555e+00 0.000000000000000e+00
2.832085323540877e+00 1.905308166921392e+00 0.000000000000000e+00
2.852163931465451e+00 1.914147686764187e+00 0.000000000000000e+00
2.872316461483597e+00 1.922264829495103e+00 0.000000000000000e+00
2.892718350911426e+00 1.929817695273388e+00 0.000000000000000e+00
2.913385135838635e+00 1.936755357152310e+00 0.000000000000000e+00
2.934358996576751e+00 1.943094259484101e+00 0.000000000000000e+00
2.955759481932970e+00 1.948755795170269e+00 0.000000000000000e+00
2.977664466775760e+00 1.953751956421292e+00 0.000000000000000e+00
3.000049173609471e+00 1.958149979041565e+00 0.000000000000000e+00
3.022809599730708e+00 1.961992119989771e+00 0.000000000000000e+00
3.046009833437432e+00 1.965364433650013e+00 0.000000000000000e+00
3.069633900123491e+00 1.968234092274122e+00 0.000000000000000e+00
3.093655267574789e+00 1.970731901579154e+00 0.000000000000000e+00
3.117954293099450e+00 1.972855503203241e+00 0.000000000000000e+00
3.142478615759898e+00 1.974725146174050e+00 0.000000000000000e+00
3.166959201777003e+00 1.976352617424969e+00 0.000000000000000e+00
3.191680738859629e+00 1.977797107565296e+00 0.000000000000000e+00
3.216435645795892e+00 1.979104028540128e+00 0.000000000000000e+00
3.241080766126778e+00 1.980305118456440e+00 0.000000000000000e+00
3.265780574420228e+00 1.981428830630042e+00 0.000000000000000e+00
3.290545602971140e+00 1.982480297378680e+00 0.000000000000000e+00
3.315194772979297e+00 1.983479875030208e+00 0.000000000000000e+00
3.339487816601102e+00 1.984440104366511e+00 0.000000000000000e+00
3.363746332489452e+00 1.985357723641371e+00 0.000000000000000e+00
3.388407565259257e+00 1.986200761334302e+00 0.000000000000000e+00
3.412714364298473e+00 1.986927456227359e+00 0.000000000000000e+00
3.436794916348095e+00 1.987632576094059e+00 0.000000000000000e+00
3.461388526459387e+00 1.988369396950938e+00 0.000000000000000e+00
3.485745452529347e+00 1.989091471532475e+00 0.000000000000000e+00
3.509853773276865e+00 1.989734592382528e+00 0.000000000000000e+00
3.534479186441694e+00 1.990322858593504e+00 0.000000000000000e+00
3.558914691891744e+00 1.990931036514254e+00 0.000000000000000e+00
3.583203430417377e+00 1.991589518075951e+00 0.000000000000000e+00
3.608140723467104e+00 1.992300284438571e+00 0.000000000000000e+00
3.633218350722766e+00 1.992945013056833e+00 0.000000000000000e+00
3.658106278311478e+00 1.993454908602327e+00 0.000000000000000e+00
3.683415729835591e+00 1.993931468699352e+00 0.000000000000000e+00
3.708660731856908e+00 1.994392494429954e+00 0.000000000000000e+00
3.733789649120825e+00 1.994869123618669e+00 0.000000000000000e+00
3.759149159544442e+00 1.995346019743193e+00 0.000000000000000e+00
3.784598241102592e+00 1.995820891649330e+00 0.000000000000000e+00
3.809850871205191e+00 1.996360396239075e+00 0.000000000000000e+00
3.835223774897676e+00 1.996878584475371e+00 0.000000000000000e+00
3.860233378297721e+00 1.997352092777987e+00 0.000000000000000e+00
3.885053353421576e+00 1.997740527419850e+00 0.000000000000000e+00
3.909504347525729e+00 1.998285654298919e+00 0.000000000000000e+00
3.934807360004157e+00 1.998697472779869e+00 0.000000000000000e+00
3.958646037206567e+00 1.999212290086271e+00 0.000000000000000e+00
9.893518466891678e-01 2.997165164129937e+00 0.000000000000000e+00
1.001220196250973e+00 3.014392491516004e+00 0.000000000000000e+00
1.004561890908752e+00 3.031465029253969e+00 0.000000000000000e+00
1.007669209742079e+00 3.047296960368937e+00 0.000000000000000e+00
1.023931129544389e+00 3.054680758008936e+00 0.000000000000000e+00
1.042175592847968e+00 3.059525626461755e+00 0.000000000000000e+00
1.057444982718418e+00 3.065631579749774e+00 0.000000000000000e+00
1.072732515041152e+00 3.074725303168885e+00 0.000000000000000e+00
1.088363674873385e+00 3.076617815439672e+00 0.000000000000000e+00
1.104828981132150e+00 3.067141587645735e+00 0.000000000000000e+00
1.118518598153079e+00 3.053383978969453e+00 0.000000000000000e+00
1.133722278488646e+00 3.039773598757795e+00 0.000000000000000e+00
1.152039802961694e+00 3.034168141677271e+00 0.000000000000000e+00
1.172334810377707e+00 3.037665986423423e+00 0.000000000000000e+00
1.190258559462906e+00 3.047008988968816e+00 0.000000000000000e+00
1.207808598087149e+00 3.054725455828676e+00 0.000000000000000e+00
1.226281162494840e+00 3.057722960168434e+00 0.000000000000000e+00
1.244251777292089e+00 3.057270021656616e+00 0.000000000000000e+00
1.261888792405923e+00 3.053161643515751e+00 0.000000000000000e+00
1.279723517481276e+00 3.047418722796472e+00 0.000000000000000e+00
1.296699974236262e+00 3.041404947573846e+00 0.000000000000000e+00
1.315369784784803e+00 3.035127546538271e+00 0.000000000000000e+00
1.334323298567047e+00 3.027392597820148e+00 0.000000000000000e+00
1.352369869248529e+00 3.019214637213721e+00 0.000000000000000e+00
1.371291748015287e+00 3.014190110103413e+00 0.000000000000000e+00
1.390752123156622e+00 3.008190290836407e+00 0.000000000000000e+00
1.408465876423847e+00 2.996389718424543e+00 0.000000000000000e+00
1.423383362549842e+00 2.985507448935412e+00 0.000000000000000e+00
1.441880808488911e+00 2.974954223760555e+00 0.000000000000000e+00
1.459069228482786e+00 2.964524208213026e+00 0.000000000000000e+00
1.478067393417013e+00 2.956671072333114e+00 0.000000000000000e+00
1.497933024560898e+00 2.953106425788191e+00 0.000000000000000e+00
1.516275521333983e+00 2.940744274233716e+00 0.000000000000000e+00
1.527907770921199e+00 2.928339783480107e+00 0.000000000000000e+00
1.546506947933168e+00 2.919057629609921e+00 0.000000000000000e+00
1.564230104240013e+00 2.910563497298408e+00 0.000000000000000e+00
1.582244832785671e+00 2.899793121360635e+00 0.000000000000000e+00
1.600287809448935e+00 2.900335787617837e+00 0.000000000000000e+00
1.615612036954118e+00 2.885182890047944e+00 0.000000000000000e+00
1.624763507734367e+00 2.870138013988531e+00 0.000000000000000e+00
1.640250638016372e+00 2.854160767575987e+00 0.000000000000000e+00
1.653655674591828e+00 2.840788638857229e+00 0.000000000000000e+00
1.671525203260186e+00 2.835940012896353e+00 0.000000000000000e+00
1.688585524247826e+00 2.836118523633188e+00 0.000000000000000e+00
1.706938401603495e+00 2.829353571752898e+00 0.000000000000000e+00
1.724081924776516e+00 2.816190664760748e+00 0.000000000000000e+00
1.737885856314783e+00 2.800850689152218e+00 0.000000000000000e+00
1.756802968320064e+00 2.802365812321885e+00 0.000000000000000e+00
1.777736631272143e+00 2.794802144236322e+00 0.000000000000000e+00
1.797462179572372e+00 2.791979677950815e+00 0.000000000000000e+00
1.816761677947478e+00 2.792899914027911e+00 0.000000000000000e+00
1.834355097400635e+00 2.794410408299155e+00 0.000000000000000e+00
1.854414227443253e+00 2.791694925559477e+00 0.000000000000000e+00
1.872585976878248e+00 2.783878780195718e+00 0.000000000000000e+00
1.888255770304990e+00 2.774790592696856e+00 0.000000000000000e+00
1.908622446999591e+00 2.773846278587646e+00 0.000000000000000e+00
1.927921059574268e+00 2.769892796175457e+00 0.000000000000000e+00
1.946424747285131e+00 2.762607137393788e+00 0.000000000000000e+00
1.965702757197650e+00 2.763816122268420e+00 0.000000000000000e+00
1.986836215659509e+00 2.765711006602750e+00 0.000000000000000e+00
2.007472894040968e+00 2.760359737637510e+00 0.000000000000000e+00
2.025779497002098e+00 2.752830675424752e+00 0.000000000000000e+00
2.045865975330153e+00 2.750153499278876e+00 0.000000000000000e+00
2.066122759443813e+00 2.753823093225577e+00 0.000000000000000e+00
2.087513661788928e+00 2.757412953720892e+00 0.000000000000000e+00
2.107895109407624e+00 2.759850128919169e+00 0.000000000000000e+00
2.127575488661534e+00 2.765353450531275e+00 0.000000000000000e+00
2.145923082205347e+00 2.773890664867307e+00 0.000000000000000e+00
2.164051638797978e+00 2.784334669779616e+00 0.000000000000000e+00
2.182166667633030e+00 2.795998889656090e+00 0.000000000000000e+00
2.199398105513311e+00 2.810518491844644e+00 0.000000000000000e+00
2.214001947149112e+00 2.826373970661098e+00 0.000000000000000e+00
2.229229980332816e+00 2.841781273502421e+00 0.000000000000000e+00
2.244276236308825e+00 2.858765389636917e+00 0.000000000000000e+00
2.257261815887418e+00 2.876129154876234e+00 0.000000000000000e+00
2.270218607104929e+00 2.894453975983654e+00 0.000000000000000e+00
2.284197777833555e+00 2.912083070380258e+00 0.000000000000000e+00
2.297403256498936e+00 2.929210782400294e+00 0.000000000000000e+00
2.307804095378090e+00 2.948753158873450e+00 0.000000000000000e+00
2.315784650849477e+00 2.968922495022727e+00 0.000000000000000e+00
2.324798843526642e+00 2.987171869428077e+00 0.000000000000000e+00
2.335658013509053e+00 3.006114345832044e+00 0.000000000000000e+00
2.346989569959126e+00 3.025776100961284e+00 0.000000000000000e+00
2.359385714849993e+00 3.045190681791549e+00 0.000000000000000e+00
2.373677451414546e+00 3.063159461789968e+00 0.000000000000000e+00
2.389312120625183e+00 3.079630262351339e+00 0.000000000000000e+00
2.405302544551108e+00 3.095604456744711e+00 0.000000000000000e+00
2.421043032728312e+00 3.111558176985494e+00 0.000000000000000e+00
2.438062440228849e+00 3.125495748720218e+00 0.000000000000000e+00
2.456395144685954e+00 3.137896379506197e+00 0.000000000000000e+00
2.475415328220932e+00 3.150010462477323e+00 0.000000000000000e+00
2.494011564188535e+00 3.161690304909652e+00 0.000000000000000e+00
2.512633607882864e+00 3.171707261613686e+00 0.000000000000000e+00
2.532713199302456e+00 3.178513847919154e+00 0.000000000000000e+00
2.554320068353181e+00 3.182646253652227e+00 0.000000000000000e+00
2.576658485591016e+00 3.184987216003397e+00 0.000000000000000e+00
2.599078131049171e+00 3.185304889476559e+00 0.000000000000000e+00
2.621230520988965e+00 3.183167269143096e+00 0.000000000000000e+00
2.643727660205792e+00 3.178647692990435e+00 0.000000000000000e+00
2.666297515680107e+00 3.172201763055253e+00 0.000000000000000e+00
2.688327307064671e+00 3.164335098992733e+00 0.000000000000000e+00
2.709781376839978e+00 3.155020955211487e+00 0.000000000000000e+00
2.730718151579242e+00 3.145044482608894e+00 0.000000000000000e+00
2.751430563532852e+00 3.134638027582197e+00 0.000000000000000e+00
2.771901182072288e+00 3.124212259521642e+00 0.000000000000000e+00
2.792073652184099e+00 3.113998160768845e+00 0.000000000000000e+00
2.812091900774416e+00 3.104116246821447e+00 0.000000000000000e+00
2.832085323540875e+00 3.094691833078609e+00 0.000000000000000e+00
2.852163931465449e+00 3.085852313235812e+00 0.000000000000000e+00
2.872316461483595e+00 3.077735170504898e+00 0.000000000000000e+00
2.892718350911425e+00 3.070182304726612e+00 0.000000000000000e+00
2.913385135838634e+00 3.063244642847690e+00 0.000000000000000e+00
2.934358996576750e+00 3.056905740515899e+00 0.000000000000000e+00
2.955759481932969e+00 3.051244204829731e+00 0.000000000000000e+00
2.977664466775761e+00 3.046248043578708e+00 0.000000000000000e+00
3.000049173609471e+00 3.041850020958435e+00 0.000000000000000e+00
3.022809599730707e+00 3.038007880010229e+00 0.000000000000000e+00
3.046009833437431e+00 3.034635566349988e+00 0.000000000000000e+00
3.069633900123491e+00 3.031765907725877e+00 0.000000000000000e+00
3.093655267574792e+00 3.029268098420846e+00 0.000000000000000e+00
3.117954293099451e+00 3.027144496796758e+00 0.000000000000000e+00
3.142478615759901e+00 3.025274853825950e+00 0.000000000000000e+00
3.166959201777005e+00 3.023647382575031e+00 0.000000000000000e+00
3.191680738859631e+00 3.022202892434704e+00 0.000000000000000e+00
3.216435645795895e+00 3.020895971459872e+00 0.000000000000000e+00
3.241080766126781e+00 3.019694881543559e+00 0.000000000000000e+00
3.265780574420230e+00 3.018571169369958e+00 0.000000000000000e+00
3.290545602971144e+00 3.017519702621320e+00 0.000000000000000e+00
3.315194772979299e+00 3.016520124969791e+00 0.000000000000000e+00
3.339487816601105e+00 3.015559895633488e+00 0.000000000000000e+00
3.363746332489455e+00 3.014642276358630e+00 0.000000000000000e+00
3.388407565259260e+00 3.013799238665697e+00 0.000000000000000e+00
3.412714364298477e+00 3.013072543772641e+00 0.000000000000000e+00
3.436794916348100e+00 3.012367423905939e+00 0.000000000000000e+00
3.461388526459391e+00 3.011630603049062e+00 0.000000000000000e+00
3.485745452529351e+00 3.010908528467525e+00 0.000000000000000e+00
3.509853773276869e+00 3.010265407617471e+00 0.000000000000000e+00
3.534479186441697e+00 3.009677141406495e+00 0.000000000000000e+00
3.558914691891747e+00 3.009068963485745e+00 0.000000000000000e+00
3.583203430417379e+00 3.008410481924047e+00 0.000000000000000e+00
3.608140723467107e+00 3.007699715561428e+00 0.000000000000000e+00
3.633218350722768e+00 3.007054986943167e+00 0.000000000000000e+00
3.658106278311482e+00 3.006545091397673e+00 0.000000000000000e+00
3.683415729835591e+00 3.006068531300648e+00 0.000000000000000e+00
3.708660731856910e+00 3.005607505570046e+00 0.000000000000000e+00
3.733789649120827e+00 3.005130876381330e+00 0.000000000000000e+00
3.759149159544443e+00 3.004653980256807e+00 0.000000000000000e+00
3.784598241102594e+00 3.004179108350670e+00 0.000000000000000e+00
3.809850871205191e+00 3.003639603760925e+00 0.000000000000000e+00
3.835223774897675e+00 3.003121415524630e+00 0.000000000000000e+00
3.860233378297721e+00 3.002647907222014e+00 0.000000000000000e+00
3.885053353421576e+00 3.002259472580150e+00 0.000000000000000e+00
3.909504347525728e+00 3.001714345701083e+00 0.000000000000000e+00
3.934807360004157e+00 3.001302527220131e+00 0.000000000000000e+00
3.958646037206567e+00 3.000787709913731e+00 0.000000000000000e+00

POINT_DATA   310
SCALARS fX_Lag double
LOOKUP_TABLE default

1.940586e+04 
-1.373494e+04 
-1.969590e+03 
-5.760794e+03 
7.104976e+03 
-2.248463e+04 
1.444475e+04 
-2.327402e+04 
3.113939e+04 
5.167295e+03 
8.665612e+03 
-9.649894e+03 
1.421452e+04 
-4.995400e+03 
-9.344518e+03 
-5.922124e+03 
-7.431186e+03 
1.402154e+03 
6.530032e+03 
-6.671285e+03 
1.391382e+04 
4.432575e+03 
-5.655454e+03 
-1.150233e+03 
9.385818e+03 
7.072261e+03 
-2.197775e+04 
2.650170e+04 
-8.776253e+03 
2.598745e+03 
-6.769804e+03 
1.789882e+04 
-3.782868e+04 
2.951847e+04 
-9.075408e+03 
1.190295e+04 
-2.887204e+04 
2.900995e+04 
-2.777937e+04 
2.856773e+04 
-2.493670e+04 
-6.705458e+03 
-1.348221e+04 
2.454617e+04 
1.752722e+04 
-9.542233e+03 
-8.992049e+03 
3.073104e+04 
-2.140128e+04 
-6.640647e+03 
-1.733106e+04 
2.494368e+04 
-5.793086e+03 
-1.506495e+04 
2.319507e+04 
-6.531615e+03 
3.318694e+02 
-5.024277e+03 
2.313681e+04 
2.897207e+03 
-1.678506e+04 
4.895877e+03 
-1.895379e+02 
8.336328e+03 
-1.047526e+04 
-9.758353e+00 
-3.053254e+03 
5.617040e+03 
5.985499e+03 
7.641104e+03 
-9.450383e+03 
8.742711e+02 
4.368552e+03 
-1.061223e+04 
1.014060e+03 
1.763351e+03 
-5.203774e+03 
4.742628e+02 
-2.936807e+03 
-2.623914e+03 
9.476431e+03 
5.168822e+03 
3.329488e+03 
9.285711e+02 
-1.197088e+03 
-3.341783e+03 
-2.701132e+03 
-2.943042e+03 
3.904366e+03 
5.856283e+03 
-1.759748e+03 
-3.873230e+03 
1.412453e+03 
8.272941e+03 
6.108502e+03 
2.389401e+02 
-2.730899e+03 
4.881395e+03 
3.002428e+03 
-3.926888e+03 
-1.969845e+03 
-2.985668e+03 
-1.666567e+03 
-3.251445e+03 
-2.995283e+03 
-1.904538e+03 
-1.366329e+03 
-5.384484e+02 
-8.875640e+01 
1.571057e+03 
1.942067e+03 
2.248452e+03 
3.518203e+03 
4.240970e+03 
3.894291e+03 
2.845462e+03 
3.720662e+03 
3.348392e+03 
2.855990e+03 
1.396765e+03 
1.065492e+03 
-1.147222e+03 
1.599617e+03 
-3.190122e+02 
-1.428203e+03 
-1.369525e+02 
-3.570434e+02 
-1.633354e+03 
-3.541957e+03 
5.879741e+01 
4.306135e+03 
-3.277790e+03 
-1.482067e+03 
5.892901e+03 
-1.842329e+03 
-1.628342e+03 
5.912225e+03 
-1.062293e+03 
-1.574222e+02 
7.823218e+03 
1.653504e+03 
-1.926364e+03 
4.441500e+03 
-1.802455e+02 
-5.948645e+02 
2.753241e+03 
1.080490e+03 
-2.331834e+03 
2.541134e+02 
-3.579390e+03 
-1.713981e+03 
-4.208303e+03 
6.770356e+03 
-1.667597e+04 
-1.020961e+02 
1.940586e+04 
-1.373494e+04 
-1.969590e+03 
-5.760794e+03 
7.104976e+03 
-2.248463e+04 
1.444475e+04 
-2.327402e+04 
3.113939e+04 
5.167295e+03 
8.665612e+03 
-9.649894e+03 
1.421452e+04 
-4.995400e+03 
-9.344518e+03 
-5.922124e+03 
-7.431186e+03 
1.402154e+03 
6.530032e+03 
-6.671285e+03 
1.391382e+04 
4.432575e+03 
-5.655454e+03 
-1.150233e+03 
9.385818e+03 
7.072261e+03 
-2.197775e+04 
2.650170e+04 
-8.776253e+03 
2.598745e+03 
-6.769804e+03 
1.789882e+04 
-3.782868e+04 
2.951847e+04 
-9.075408e+03 
1.190295e+04 
-2.887204e+04 
2.900995e+04 
-2.777937e+04 
2.856773e+04 
-2.493670e+04 
-6.705458e+03 
-1.348221e+04 
2.454617e+04 
1.752722e+04 
-9.542233e+03 
-8.992049e+03 
3.073104e+04 
-2.140128e+04 
-6.640647e+03 
-1.733106e+04 
2.494368e+04 
-5.793086e+03 
-1.506495e+04 
2.319507e+04 
-6.531615e+03 
3.318694e+02 
-5.024277e+03 
2.313681e+04 
2.897207e+03 
-1.678506e+04 
4.895877e+03 
-1.895379e+02 
8.336328e+03 
-1.047526e+04 
-9.758353e+00 
-3.053254e+03 
5.617040e+03 
5.985499e+03 
7.641104e+03 
-9.450383e+03 
8.742711e+02 
4.368552e+03 
-1.061223e+04 
1.014060e+03 
1.763351e+03 
-5.203774e+03 
4.742628e+02 
-2.936807e+03 
-2.623914e+03 
9.476431e+03 
5.168822e+03 
3.329488e+03 
9.285711e+02 
-1.197088e+03 
-3.341783e+03 
-2.701132e+03 
-2.943042e+03 
3.904366e+03 
5.856283e+03 
-1.759748e+03 
-3.873230e+03 
1.412453e+03 
8.272941e+03 
6.108502e+03 
2.389401e+02 
-2.730899e+03 
4.881395e+03 
3.002428e+03 
-3.926888e+03 
-1.969845e+03 
-2.985668e+03 
-1.666567e+03 
-3.251445e+03 
-2.995283e+03 
-1.904538e+03 
-1.366329e+03 
-5.384484e+02 
-8.875640e+01 
1.571057e+03 
1.942067e+03 
2.248452e+03 
3.518203e+03 
4.240970e+03 
3.894291e+03 
2.845462e+03 
3.720662e+03 
3.348392e+03 
2.855990e+03 
1.396765e+03 
1.065492e+03 
-1.147222e+03 
1.599617e+03 
-3.190122e+02 
-1.428203e+03 
-1.369525e+02 
-3.570434e+02 
-1.633354e+03 
-3.541957e+03 
5.879741e+01 
4.306135e+03 
-3.277790e+03 
-1.482067e+03 
5.892901e+03 
-1.842329e+03 
-1.628342e+03 
5.912225e+03 
-1.062293e+03 
-1.574222e+02 
7.823218e+03 
1.653504e+03 
-1.926364e+03 
4.441500e+03 
-1.802455e+02 
-5.948645e+02 
2.753241e+03 
1.080490e+03 
-2.331834e+03 
2.541134e+02 
-3.579390e+03 
-1.713981e+03 
-4.208303e+03 
6.770356e+03 
-1.667597e+04 
-1.020961e+02 
