# vtk DataFile Version 2.0
fX_Lag
ASCII
DATASET UNSTRUCTURED_GRID

FIELD FieldData 1
TIME 1 1 double
0.19500000
POINTS 310 float
1.010745457185475e+00 2.003997121456258e+00 0.000000000000000e+00
1.030234478735314e+00 2.011279155151001e+00 0.000000000000000e+00
1.049521704932003e+00 2.018107456583495e+00 0.000000000000000e+00
1.069076657545540e+00 2.025463916995223e+00 0.000000000000000e+00
1.088025652379163e+00 2.033631203398872e+00 0.000000000000000e+00
1.107552572658008e+00 2.040802586943007e+00 0.000000000000000e+00
1.126833864576485e+00 2.047628889618308e+00 0.000000000000000e+00
1.145981715422608e+00 2.056065275554451e+00 0.000000000000000e+00
1.165294476525145e+00 2.063312265555443e+00 0.000000000000000e+00
1.184176102699786e+00 2.071954602553707e+00 0.000000000000000e+00
1.203745404402231e+00 2.078465513909949e+00 0.000000000000000e+00
1.222639570298846e+00 2.087163471502659e+00 0.000000000000000e+00
1.242014792094546e+00 2.094410685428602e+00 0.000000000000000e+00
1.260781165589480e+00 2.102994306232764e+00 0.000000000000000e+00
1.280452073091338e+00 2.110128075232997e+00 0.000000000000000e+00
1.299315069677291e+00 2.118114008491234e+00 0.000000000000000e+00
1.318902369393228e+00 2.125575204345873e+00 0.000000000000000e+00
1.338213640635102e+00 2.132748505314265e+00 0.000000000000000e+00
1.357612754913611e+00 2.140178707234375e+00 0.000000000000000e+00
1.377411128549349e+00 2.146452243747750e+00 0.000000000000000e+00
1.396920658375169e+00 2.153191723353291e+00 0.000000000000000e+00
1.416758991641049e+00 2.159458784306813e+00 0.000000000000000e+00
1.436505423682604e+00 2.165740198101902e+00 0.000000000000000e+00
1.456244127578400e+00 2.171428533340517e+00 0.000000000000000e+00
1.476553290676267e+00 2.177245762193811e+00 0.000000000000000e+00
1.495934492884552e+00 2.182997274444251e+00 0.000000000000000e+00
1.516353829220112e+00 2.188724763881864e+00 0.000000000000000e+00
1.535969081934642e+00 2.194036815833365e+00 0.000000000000000e+00
1.556367338115923e+00 2.199415130975199e+00 0.000000000000000e+00
1.576502252822998e+00 2.204178080345307e+00 0.000000000000000e+00
1.595668382771678e+00 2.210857700452303e+00 0.000000000000000e+00
1.616264569331427e+00 2.215438486135085e+00 0.000000000000000e+00
1.636192658294038e+00 2.221199722380358e+00 0.000000000000000e+00
1.655716099627093e+00 2.227173848562971e+00 0.000000000000000e+00
1.676259009124368e+00 2.232259562897243e+00 0.000000000000000e+00
1.696136523450534e+00 2.237587951555795e+00 0.000000000000000e+00
1.715338034500451e+00 2.245442402525225e+00 0.000000000000000e+00
1.736061126256660e+00 2.246986213589051e+00 0.000000000000000e+00
1.755618455090266e+00 2.254446816452812e+00 0.000000000000000e+00
1.775487563209091e+00 2.260057986812360e+00 0.000000000000000e+00
1.796090646701365e+00 2.263605639809488e+00 0.000000000000000e+00
1.815822027848224e+00 2.269055342396618e+00 0.000000000000000e+00
1.836303603001404e+00 2.274133227513542e+00 0.000000000000000e+00
1.856329316711094e+00 2.278417130494535e+00 0.000000000000000e+00
1.876764848732307e+00 2.282658527349509e+00 0.000000000000000e+00
1.897328051421360e+00 2.284819737030441e+00 0.000000000000000e+00
1.916740804416735e+00 2.292204762606464e+00 0.000000000000000e+00
1.937548322575538e+00 2.294209618250499e+00 0.000000000000000e+00
1.957516038951715e+00 2.298775050928000e+00 0.000000000000000e+00
1.977901268047467e+00 2.303184854503770e+00 0.000000000000000e+00
1.997854896391304e+00 2.308731336275987e+00 0.000000000000000e+00
2.018252192495407e+00 2.311432846375988e+00 0.000000000000000e+00
2.038560223731578e+00 2.315513775267320e+00 0.000000000000000e+00
2.058714507068869e+00 2.320127586609028e+00 0.000000000000000e+00
2.078525730341439e+00 2.325938888083181e+00 0.000000000000000e+00
2.099046914940478e+00 2.328023576209573e+00 0.000000000000000e+00
2.119312603392709e+00 2.332095048397853e+00 0.000000000000000e+00
2.138674446643197e+00 2.339200456909887e+00 0.000000000000000e+00
2.159065043332459e+00 2.342802760759460e+00 0.000000000000000e+00
2.179123387700369e+00 2.346297165524644e+00 0.000000000000000e+00
2.199371286200470e+00 2.351524002626227e+00 0.000000000000000e+00
2.218630843167316e+00 2.357506654891153e+00 0.000000000000000e+00
2.238965748020493e+00 2.362360327732369e+00 0.000000000000000e+00
2.258866538516689e+00 2.365130573524845e+00 0.000000000000000e+00
2.278643202362681e+00 2.371350805690220e+00 0.000000000000000e+00
2.298262488721464e+00 2.377968553927285e+00 0.000000000000000e+00
2.318320438749191e+00 2.381563023246118e+00 0.000000000000000e+00
2.338087040234647e+00 2.385651143166051e+00 0.000000000000000e+00
2.358190053932780e+00 2.391073114735716e+00 0.000000000000000e+00
2.377385240218035e+00 2.397305843866552e+00 0.000000000000000e+00
2.397498430694199e+00 2.401278845110636e+00 0.000000000000000e+00
2.417574976717450e+00 2.404774737049435e+00 0.000000000000000e+00
2.437227078971250e+00 2.409906409170135e+00 0.000000000000000e+00
2.457168132746941e+00 2.414614998206849e+00 0.000000000000000e+00
2.477080415549498e+00 2.417928288510841e+00 0.000000000000000e+00
2.497460425090798e+00 2.421058716638106e+00 0.000000000000000e+00
2.517189859280569e+00 2.424646730011433e+00 0.000000000000000e+00
2.537471463015898e+00 2.427352798242324e+00 0.000000000000000e+00
2.557803298088229e+00 2.429552481925689e+00 0.000000000000000e+00
2.577583149346804e+00 2.431528891944713e+00 0.000000000000000e+00
2.598362954934482e+00 2.433259784950532e+00 0.000000000000000e+00
2.618125273883740e+00 2.436214740550597e+00 0.000000000000000e+00
2.638472496077683e+00 2.436560094503962e+00 0.000000000000000e+00
2.658631362999453e+00 2.436843706576325e+00 0.000000000000000e+00
2.678746641285502e+00 2.440023170987347e+00 0.000000000000000e+00
2.699609947654999e+00 2.440831994950208e+00 0.000000000000000e+00
2.718824025449621e+00 2.440255839709876e+00 0.000000000000000e+00
2.739068535852371e+00 2.440604615507572e+00 0.000000000000000e+00
2.760098610468731e+00 2.441812407651692e+00 0.000000000000000e+00
2.779356386192385e+00 2.440041075927286e+00 0.000000000000000e+00
2.799894162317576e+00 2.439504980552425e+00 0.000000000000000e+00
2.819879672310007e+00 2.438239169290420e+00 0.000000000000000e+00
2.839767073182750e+00 2.436486203557395e+00 0.000000000000000e+00
2.859944206391800e+00 2.433649424985341e+00 0.000000000000000e+00
2.878858563717368e+00 2.428926006118552e+00 0.000000000000000e+00
2.898411561287735e+00 2.424193237710930e+00 0.000000000000000e+00
2.917824067171880e+00 2.417679120321457e+00 0.000000000000000e+00
2.934627481806932e+00 2.408494237201052e+00 0.000000000000000e+00
2.952871736571144e+00 2.397932919226739e+00 0.000000000000000e+00
2.969464459283714e+00 2.387377916423929e+00 0.000000000000000e+00
2.986659183705900e+00 2.377726229205910e+00 0.000000000000000e+00
3.003972090725670e+00 2.367502408072303e+00 0.000000000000000e+00
3.019526637168635e+00 2.354792495015265e+00 0.000000000000000e+00
3.035999708735465e+00 2.343290729473292e+00 0.000000000000000e+00
3.052591899251378e+00 2.332169830809294e+00 0.000000000000000e+00
3.069043636346006e+00 2.322520558476399e+00 0.000000000000000e+00
3.086359700076178e+00 2.312174664052962e+00 0.000000000000000e+00
3.102541769885302e+00 2.299584211004300e+00 0.000000000000000e+00
3.118583826312760e+00 2.288556550023633e+00 0.000000000000000e+00
3.134179581250363e+00 2.276336728789733e+00 0.000000000000000e+00
3.149183490879799e+00 2.262295241161168e+00 0.000000000000000e+00
3.163819139076935e+00 2.248483744395766e+00 0.000000000000000e+00
3.178599723527908e+00 2.232613958401818e+00 0.000000000000000e+00
3.194191634818424e+00 2.219409480191411e+00 0.000000000000000e+00
3.210469584325492e+00 2.206864322684349e+00 0.000000000000000e+00
3.226975483748573e+00 2.193830458500605e+00 0.000000000000000e+00
3.243653242878582e+00 2.181908216155104e+00 0.000000000000000e+00
3.261412432360013e+00 2.170280996019303e+00 0.000000000000000e+00
3.279039000647316e+00 2.160721082930882e+00 0.000000000000000e+00
3.297446525378231e+00 2.150321845000138e+00 0.000000000000000e+00
3.315301862549711e+00 2.140151735321986e+00 0.000000000000000e+00
3.333538114889940e+00 2.131053789416983e+00 0.000000000000000e+00
3.352179184289819e+00 2.122075867017960e+00 0.000000000000000e+00
3.370797410185106e+00 2.113207695974993e+00 0.000000000000000e+00
3.389640682185929e+00 2.104140969282640e+00 0.000000000000000e+00
3.408779612779707e+00 2.096672640671815e+00 0.000000000000000e+00
3.427732199021330e+00 2.090788118013153e+00 0.000000000000000e+00
3.447251024962262e+00 2.083212491325802e+00 0.000000000000000e+00
3.466275973690293e+00 2.074734728353238e+00 0.000000000000000e+00
3.485991597738343e+00 2.069757975124784e+00 0.000000000000000e+00
3.505397650058516e+00 2.064075982335181e+00 0.000000000000000e+00
3.525897789478007e+00 2.058296919201438e+00 0.000000000000000e+00
3.544670543458253e+00 2.052359836765246e+00 0.000000000000000e+00
3.564927857235719e+00 2.047208253201629e+00 0.000000000000000e+00
3.585059687951219e+00 2.044850012968344e+00 0.000000000000000e+00
3.604946845537056e+00 2.039017729076109e+00 0.000000000000000e+00
3.625057948173750e+00 2.034749389477757e+00 0.000000000000000e+00
3.645082086616044e+00 2.031894128947171e+00 0.000000000000000e+00
3.665627050292826e+00 2.028216033840976e+00 0.000000000000000e+00
3.685679733362424e+00 2.024565205118662e+00 0.000000000000000e+00
3.705833600484076e+00 2.021071233702858e+00 0.000000000000000e+00
3.726172374645993e+00 2.018919138219629e+00 0.000000000000000e+00
3.746601441729063e+00 2.016352859725271e+00 0.000000000000000e+00
3.766687105540354e+00 2.013878367190948e+00 0.000000000000000e+00
3.787696650728869e+00 2.012920393568813e+00 0.000000000000000e+00
3.807702605265787e+00 2.011234494860582e+00 0.000000000000000e+00
3.827690304422993e+00 2.008394757331932e+00 0.000000000000000e+00
3.848529646583045e+00 2.008870787192690e+00 0.000000000000000e+00
3.869356141586529e+00 2.008008497437842e+00 0.000000000000000e+00
3.888949399209794e+00 2.004879741127641e+00 0.000000000000000e+00
3.909387632232088e+00 2.003243664328692e+00 0.000000000000000e+00
3.930269813125805e+00 2.004671716753824e+00 0.000000000000000e+00
3.950429041278747e+00 2.004625920953492e+00 0.000000000000000e+00
3.970204934731836e+00 1.998907378317635e+00 0.000000000000000e+00
3.990625339997945e+00 2.001100608667304e+00 0.000000000000000e+00
1.010745457185478e+00 2.996002878543743e+00 0.000000000000000e+00
1.030234478735318e+00 2.988720844849005e+00 0.000000000000000e+00
1.049521704932009e+00 2.981892543416517e+00 0.000000000000000e+00
1.069076657545549e+00 2.974536083004791e+00 0.000000000000000e+00
1.088025652379171e+00 2.966368796601142e+00 0.000000000000000e+00
1.107552572658020e+00 2.959197413057012e+00 0.000000000000000e+00
1.126833864576496e+00 2.952371110381713e+00 0.000000000000000e+00
1.145981715422624e+00 2.943934724445571e+00 0.000000000000000e+00
1.165294476525161e+00 2.936687734444588e+00 0.000000000000000e+00
1.184176102699802e+00 2.928045397446321e+00 0.000000000000000e+00
1.203745404402248e+00 2.921534486090080e+00 0.000000000000000e+00
1.222639570298862e+00 2.912836528497368e+00 0.000000000000000e+00
1.242014792094565e+00 2.905589314571429e+00 0.000000000000000e+00
1.260781165589497e+00 2.897005693767266e+00 0.000000000000000e+00
1.280452073091354e+00 2.889871924767025e+00 0.000000000000000e+00
1.299315069677308e+00 2.881885991508794e+00 0.000000000000000e+00
1.318902369393247e+00 2.874424795654153e+00 0.000000000000000e+00
1.338213640635120e+00 2.867251494685762e+00 0.000000000000000e+00
1.357612754913630e+00 2.859821292765652e+00 0.000000000000000e+00
1.377411128549366e+00 2.853547756252278e+00 0.000000000000000e+00
1.396920658375192e+00 2.846808276646739e+00 0.000000000000000e+00
1.416758991641062e+00 2.840541215693209e+00 0.000000000000000e+00
1.436505423682629e+00 2.834259801898128e+00 0.000000000000000e+00
1.456244127578418e+00 2.828571466659507e+00 0.000000000000000e+00
1.476553290676286e+00 2.822754237806213e+00 0.000000000000000e+00
1.495934492884575e+00 2.817002725555780e+00 0.000000000000000e+00
1.516353829220133e+00 2.811275236118167e+00 0.000000000000000e+00
1.535969081934665e+00 2.805963184166667e+00 0.000000000000000e+00
1.556367338115947e+00 2.800584869024836e+00 0.000000000000000e+00
1.576502252823023e+00 2.795821919654729e+00 0.000000000000000e+00
1.595668382771705e+00 2.789142299547738e+00 0.000000000000000e+00
1.616264569331454e+00 2.784561513864957e+00 0.000000000000000e+00
1.636192658294067e+00 2.778800277619687e+00 0.000000000000000e+00
1.655716099627121e+00 2.772826151437077e+00 0.000000000000000e+00
1.676259009124397e+00 2.767740437102804e+00 0.000000000000000e+00
1.696136523450565e+00 2.762412048444258e+00 0.000000000000000e+00
1.715338034500485e+00 2.754557597474830e+00 0.000000000000000e+00
1.736061126256694e+00 2.753013786411011e+00 0.000000000000000e+00
1.755618455090298e+00 2.745553183547245e+00 0.000000000000000e+00
1.775487563209125e+00 2.739942013187699e+00 0.000000000000000e+00
1.796090646701398e+00 2.736394360190573e+00 0.000000000000000e+00
1.815822027848256e+00 2.730944657603439e+00 0.000000000000000e+00
1.836303603001438e+00 2.725866772486515e+00 0.000000000000000e+00
1.856329316711127e+00 2.721582869505521e+00 0.000000000000000e+00
1.876764848732339e+00 2.717341472650546e+00 0.000000000000000e+00
1.897328051421393e+00 2.715180262969623e+00 0.000000000000000e+00
1.916740804416767e+00 2.707795237393594e+00 0.000000000000000e+00
1.937548322575569e+00 2.705790381749554e+00 0.000000000000000e+00
1.957516038951747e+00 2.701224949072056e+00 0.000000000000000e+00
1.977901268047498e+00 2.696815145496288e+00 0.000000000000000e+00
1.997854896391333e+00 2.691268663724062e+00 0.000000000000000e+00
2.018252192495438e+00 2.688567153624061e+00 0.000000000000000e+00
2.038560223731606e+00 2.684486224732726e+00 0.000000000000000e+00
2.058714507068896e+00 2.679872413391013e+00 0.000000000000000e+00
2.078525730341467e+00 2.674061111916861e+00 0.000000000000000e+00
2.099046914940505e+00 2.671976423790460e+00 0.000000000000000e+00
2.119312603392734e+00 2.667904951602176e+00 0.000000000000000e+00
2.138674446643224e+00 2.660799543090146e+00 0.000000000000000e+00
2.159065043332483e+00 2.657197239240566e+00 0.000000000000000e+00
2.179123387700397e+00 2.653702834475386e+00 0.000000000000000e+00
2.199371286200491e+00 2.648475997373792e+00 0.000000000000000e+00
2.218630843167341e+00 2.642493345108866e+00 0.000000000000000e+00
2.238965748020516e+00 2.637639672267657e+00 0.000000000000000e+00
2.258866538516712e+00 2.634869426475169e+00 0.000000000000000e+00
2.278643202362699e+00 2.628649194309785e+00 0.000000000000000e+00
2.298262488721485e+00 2.622031446072723e+00 0.000000000000000e+00
2.318320438749211e+00 2.618436976753895e+00 0.000000000000000e+00
2.338087040234667e+00 2.614348856833956e+00 0.000000000000000e+00
2.358190053932799e+00 2.608926885264286e+00 0.000000000000000e+00
2.377385240218047e+00 2.602694156133445e+00 0.000000000000000e+00
2.397498430694215e+00 2.598721154889359e+00 0.000000000000000e+00
2.417574976717461e+00 2.595225262950562e+00 0.000000000000000e+00
2.437227078971265e+00 2.590093590829853e+00 0.000000000000000e+00
2.457168132746951e+00 2.585385001793147e+00 0.000000000000000e+00
2.477080415549513e+00 2.582071711489147e+00 0.000000000000000e+00
2.497460425090807e+00 2.578941283361882e+00 0.000000000000000e+00
2.517189859280584e+00 2.575353269988562e+00 0.000000000000000e+00
2.537471463015907e+00 2.572647201757675e+00 0.000000000000000e+00
2.557803298088241e+00 2.570447518074309e+00 0.000000000000000e+00
2.577583149346816e+00 2.568471108055284e+00 0.000000000000000e+00
2.598362954934490e+00 2.566740215049465e+00 0.000000000000000e+00
2.618125273883750e+00 2.563785259449402e+00 0.000000000000000e+00
2.638472496077691e+00 2.563439905496044e+00 0.000000000000000e+00
2.658631362999463e+00 2.563156293423671e+00 0.000000000000000e+00
2.678746641285509e+00 2.559976829012646e+00 0.000000000000000e+00
2.699609947655006e+00 2.559168005049788e+00 0.000000000000000e+00
2.718824025449625e+00 2.559744160290136e+00 0.000000000000000e+00
2.739068535852375e+00 2.559395384492448e+00 0.000000000000000e+00
2.760098610468736e+00 2.558187592348327e+00 0.000000000000000e+00
2.779356386192397e+00 2.559958924072721e+00 0.000000000000000e+00
2.799894162317577e+00 2.560495019447591e+00 0.000000000000000e+00
2.819879672310012e+00 2.561760830709594e+00 0.000000000000000e+00
2.839767073182759e+00 2.563513796442616e+00 0.000000000000000e+00
2.859944206391801e+00 2.566350575014678e+00 0.000000000000000e+00
2.878858563717380e+00 2.571073993881460e+00 0.000000000000000e+00
2.898411561287744e+00 2.575806762289074e+00 0.000000000000000e+00
2.917824067171890e+00 2.582320879678552e+00 0.000000000000000e+00
2.934627481806931e+00 2.591505762798965e+00 0.000000000000000e+00
2.952871736571147e+00 2.602067080773285e+00 0.000000000000000e+00
2.969464459283714e+00 2.612622083576085e+00 0.000000000000000e+00
2.986659183705900e+00 2.622273770794106e+00 0.000000000000000e+00
3.003972090725663e+00 2.632497591927732e+00 0.000000000000000e+00
3.019526637168623e+00 2.645207504984775e+00 0.000000000000000e+00
3.035999708735453e+00 2.656709270526747e+00 0.000000000000000e+00
3.052591899251360e+00 2.667830169190748e+00 0.000000000000000e+00
3.069043636345990e+00 2.677479441523646e+00 0.000000000000000e+00
3.086359700076160e+00 2.687825335947094e+00 0.000000000000000e+00
3.102541769885282e+00 2.700415788995756e+00 0.000000000000000e+00
3.118583826312743e+00 2.711443449976407e+00 0.000000000000000e+00
3.134179581250355e+00 2.723663271210305e+00 0.000000000000000e+00
3.149183490879789e+00 2.737704758838869e+00 0.000000000000000e+00
3.163819139076926e+00 2.751516255604272e+00 0.000000000000000e+00
3.178599723527898e+00 2.767386041598221e+00 0.000000000000000e+00
3.194191634818410e+00 2.780590519808621e+00 0.000000000000000e+00
3.210469584325480e+00 2.793135677315686e+00 0.000000000000000e+00
3.226975483748555e+00 2.806169541499447e+00 0.000000000000000e+00
3.243653242878572e+00 2.818091783844940e+00 0.000000000000000e+00
3.261412432359998e+00 2.829719003980732e+00 0.000000000000000e+00
3.279039000647308e+00 2.839278917069156e+00 0.000000000000000e+00
3.297446525378215e+00 2.849678154999909e+00 0.000000000000000e+00
3.315301862549698e+00 2.859848264678059e+00 0.000000000000000e+00
3.333538114889925e+00 2.868946210583073e+00 0.000000000000000e+00
3.352179184289796e+00 2.877924132982095e+00 0.000000000000000e+00
3.370797410185089e+00 2.886792304025069e+00 0.000000000000000e+00
3.389640682185903e+00 2.895859030717416e+00 0.000000000000000e+00
3.408779612779691e+00 2.903327359328233e+00 0.000000000000000e+00
3.427732199021311e+00 2.909211881986894e+00 0.000000000000000e+00
3.447251024962247e+00 2.916787508674246e+00 0.000000000000000e+00
3.466275973690281e+00 2.925265271646797e+00 0.000000000000000e+00
3.485991597738332e+00 2.930242024875243e+00 0.000000000000000e+00
3.505397650058508e+00 2.935924017664852e+00 0.000000000000000e+00
3.525897789477992e+00 2.941703080798598e+00 0.000000000000000e+00
3.544670543458243e+00 2.947640163234794e+00 0.000000000000000e+00
3.564927857235707e+00 2.952791746798398e+00 0.000000000000000e+00
3.585059687951209e+00 2.955149987031687e+00 0.000000000000000e+00
3.604946845537044e+00 2.960982270923921e+00 0.000000000000000e+00
3.625057948173741e+00 2.965250610522269e+00 0.000000000000000e+00
3.645082086616032e+00 2.968105871052846e+00 0.000000000000000e+00
3.665627050292820e+00 2.971783966159040e+00 0.000000000000000e+00
3.685679733362420e+00 2.975434794881343e+00 0.000000000000000e+00
3.705833600484064e+00 2.978928766297149e+00 0.000000000000000e+00
3.726172374645990e+00 2.981080861780381e+00 0.000000000000000e+00
3.746601441729052e+00 2.983647140274736e+00 0.000000000000000e+00
3.766687105540353e+00 2.986121632809053e+00 0.000000000000000e+00
3.787696650728860e+00 2.987079606431191e+00 0.000000000000000e+00
3.807702605265786e+00 2.988765505139418e+00 0.000000000000000e+00
3.827690304422983e+00 2.991605242668079e+00 0.000000000000000e+00
3.848529646583041e+00 2.991129212807327e+00 0.000000000000000e+00
3.869356141586522e+00 2.991991502562174e+00 0.000000000000000e+00
3.888949399209792e+00 2.995120258872365e+00 0.000000000000000e+00
3.909387632232082e+00 2.996756335671313e+00 0.000000000000000e+00
3.930269813125804e+00 2.995328283246192e+00 0.000000000000000e+00
3.950429041278745e+00 2.995374079046516e+00 0.000000000000000e+00
3.970204934731836e+00 3.001092621682363e+00 0.000000000000000e+00
3.990625339997945e+00 2.998899391332698e+00 0.000000000000000e+00

POINT_DATA   310
SCALARS fX_Lag double
LOOKUP_TABLE default

1.184552e+03 
-3.139415e+03 
3.989487e+03 
-2.653469e+03 
1.818227e+03 
-3.205077e+03 
4.002250e+03 
-2.447387e+03 
8.966830e+02 
-7.675556e+02 
1.081280e+03 
-6.993335e+02 
-7.872075e+02 
3.073200e+03 
-4.346047e+03 
4.639402e+03 
-3.307640e+03 
1.602694e+03 
1.903285e+02 
-1.319655e+03 
1.653859e+03 
-7.123071e+02 
-1.631644e+03 
5.608656e+03 
-8.779991e+03 
9.692709e+03 
-8.588019e+03 
7.422105e+03 
-3.894309e+03 
-3.900941e+03 
8.164100e+03 
-3.828891e+03 
-3.429289e+03 
7.492962e+03 
-5.537278e+03 
9.132739e+02 
1.414203e+03 
4.160175e+02 
-2.324189e+03 
2.965048e+03 
-4.563713e+03 
6.228000e+03 
-5.981996e+03 
3.854087e+03 
-1.789083e+03 
1.777106e+02 
2.082069e+03 
-4.361094e+03 
3.620039e+03 
-1.600728e+03 
-1.018784e+03 
1.276974e+03 
-4.826627e+02 
-4.407335e+02 
1.214239e+02 
3.390571e+02 
-8.703150e+02 
1.234243e+03 
-3.358624e+03 
5.184683e+03 
-7.308396e+03 
7.331127e+03 
-7.753888e+03 
5.906032e+03 
-4.549905e+02 
-2.850405e+03 
-1.820168e+03 
6.124910e+03 
-6.437022e+03 
3.484647e+03 
-1.252600e+03 
-1.025594e+03 
1.970839e+03 
-2.689372e+03 
4.059769e+03 
-5.852951e+03 
4.419577e+03 
3.527205e+01 
-5.809640e+03 
9.636494e+03 
-8.724699e+03 
3.976509e+03 
-1.898427e+03 
1.762113e+03 
5.348951e+03 
-1.644239e+04 
1.028000e+04 
8.092900e+03 
-1.704346e+04 
1.185709e+04 
-5.266640e+03 
-6.287281e+02 
4.135595e+03 
-8.583800e+03 
6.008471e+03 
3.368975e+03 
-1.281628e+04 
1.714828e+04 
-1.238487e+04 
7.832419e+02 
3.307720e+03 
-1.203042e+03 
2.250877e+02 
-1.029005e+03 
-7.445880e+03 
9.307261e+03 
1.916468e+03 
-7.903908e+03 
2.721055e+03 
5.107880e+03 
-3.178841e+03 
1.001968e+04 
-7.398843e+03 
7.924277e+02 
3.678018e+03 
-3.758738e+03 
6.179609e+03 
-9.535723e+03 
9.288075e+03 
-5.038595e+03 
-1.283963e+03 
2.951752e+03 
-5.388323e+02 
2.603147e+03 
-3.082893e+03 
-6.229981e+03 
1.017647e+04 
-1.377767e+03 
-4.217214e+03 
-1.018478e+03 
1.076962e+04 
-1.550853e+04 
1.182343e+04 
-6.152654e+03 
4.051276e+03 
-1.240939e+03 
-3.117922e+03 
6.403604e+03 
-4.869881e+03 
6.870368e+02 
-9.798902e+00 
1.508923e+03 
-3.416983e+03 
7.822391e+03 
-9.467938e+03 
1.178057e+03 
6.489974e+03 
-6.928240e+01 
-1.007652e+04 
6.723405e+03 
4.343401e+03 
-7.817630e+03 
3.811636e+03 
-5.034419e+01 
-5.746744e+02 
1.184552e+03 
-3.139415e+03 
3.989487e+03 
-2.653469e+03 
1.818227e+03 
-3.205077e+03 
4.002250e+03 
-2.447387e+03 
8.966830e+02 
-7.675556e+02 
1.081280e+03 
-6.993335e+02 
-7.872075e+02 
3.073200e+03 
-4.346047e+03 
4.639402e+03 
-3.307640e+03 
1.602694e+03 
1.903285e+02 
-1.319655e+03 
1.653859e+03 
-7.123071e+02 
-1.631644e+03 
5.608656e+03 
-8.779991e+03 
9.692709e+03 
-8.588019e+03 
7.422105e+03 
-3.894309e+03 
-3.900941e+03 
8.164100e+03 
-3.828891e+03 
-3.429289e+03 
7.492962e+03 
-5.537278e+03 
9.132739e+02 
1.414203e+03 
4.160175e+02 
-2.324189e+03 
2.965048e+03 
-4.563713e+03 
6.228000e+03 
-5.981996e+03 
3.854087e+03 
-1.789083e+03 
1.777106e+02 
2.082069e+03 
-4.361094e+03 
3.620039e+03 
-1.600728e+03 
-1.018784e+03 
1.276974e+03 
-4.826627e+02 
-4.407335e+02 
1.214239e+02 
3.390571e+02 
-8.703150e+02 
1.234243e+03 
-3.358624e+03 
5.184683e+03 
-7.308396e+03 
7.331127e+03 
-7.753888e+03 
5.906032e+03 
-4.549905e+02 
-2.850405e+03 
-1.820168e+03 
6.124910e+03 
-6.437022e+03 
3.484647e+03 
-1.252600e+03 
-1.025594e+03 
1.970839e+03 
-2.689372e+03 
4.059769e+03 
-5.852951e+03 
4.419577e+03 
3.527205e+01 
-5.809640e+03 
9.636494e+03 
-8.724699e+03 
3.976509e+03 
-1.898427e+03 
1.762113e+03 
5.348951e+03 
-1.644239e+04 
1.028000e+04 
8.092900e+03 
-1.704346e+04 
1.185709e+04 
-5.266640e+03 
-6.287281e+02 
4.135595e+03 
-8.583800e+03 
6.008471e+03 
3.368975e+03 
-1.281628e+04 
1.714828e+04 
-1.238487e+04 
7.832419e+02 
3.307720e+03 
-1.203042e+03 
2.250877e+02 
-1.029005e+03 
-7.445880e+03 
9.307261e+03 
1.916468e+03 
-7.903908e+03 
2.721055e+03 
5.107880e+03 
-3.178841e+03 
1.001968e+04 
-7.398843e+03 
7.924277e+02 
3.678018e+03 
-3.758738e+03 
6.179609e+03 
-9.535723e+03 
9.288075e+03 
-5.038595e+03 
-1.283963e+03 
2.951752e+03 
-5.388323e+02 
2.603147e+03 
-3.082893e+03 
-6.229981e+03 
1.017647e+04 
-1.377767e+03 
-4.217214e+03 
-1.018478e+03 
1.076962e+04 
-1.550853e+04 
1.182343e+04 
-6.152654e+03 
4.051276e+03 
-1.240939e+03 
-3.117922e+03 
6.403604e+03 
-4.869881e+03 
6.870368e+02 
-9.798902e+00 
1.508923e+03 
-3.416983e+03 
7.822391e+03 
-9.467938e+03 
1.178057e+03 
6.489974e+03 
-6.928240e+01 
-1.007652e+04 
6.723405e+03 
4.343401e+03 
-7.817630e+03 
3.811636e+03 
-5.034419e+01 
-5.746744e+02 
