# vtk DataFile Version 2.0
fX_Lag
ASCII
DATASET UNSTRUCTURED_GRID

FIELD FieldData 1
TIME 1 1 double
0.23000000
POINTS 310 float
1.005905190792183e+00 2.003727658952979e+00 0.000000000000000e+00
1.023801765040284e+00 2.013434503220201e+00 0.000000000000000e+00
1.041628453228095e+00 2.022778646594330e+00 0.000000000000000e+00
1.059515582858545e+00 2.032592271198751e+00 0.000000000000000e+00
1.076673690897804e+00 2.043210405119877e+00 0.000000000000000e+00
1.094520862332951e+00 2.053176134226383e+00 0.000000000000000e+00
1.112369088927250e+00 2.062523029493130e+00 0.000000000000000e+00
1.129925746802114e+00 2.073028343590287e+00 0.000000000000000e+00
1.147976239157853e+00 2.082264620496186e+00 0.000000000000000e+00
1.165375434478883e+00 2.093073095492295e+00 0.000000000000000e+00
1.183733662605987e+00 2.101896219086782e+00 0.000000000000000e+00
1.201111609938459e+00 2.112616074758570e+00 0.000000000000000e+00
1.219355845880342e+00 2.121682348305006e+00 0.000000000000000e+00
1.237202912206487e+00 2.131847197567283e+00 0.000000000000000e+00
1.255668778941505e+00 2.140462966497968e+00 0.000000000000000e+00
1.273729719945406e+00 2.150150222841229e+00 0.000000000000000e+00
1.292251691809490e+00 2.159042668233280e+00 0.000000000000000e+00
1.310774570616190e+00 2.167665941457256e+00 0.000000000000000e+00
1.329291969792002e+00 2.176702678042842e+00 0.000000000000000e+00
1.348090361971146e+00 2.184656773100206e+00 0.000000000000000e+00
1.366866708453118e+00 2.192995430442843e+00 0.000000000000000e+00
1.385904612469119e+00 2.200641314174831e+00 0.000000000000000e+00
1.404972507652675e+00 2.208526271654362e+00 0.000000000000000e+00
1.423910258502165e+00 2.215964672480205e+00 0.000000000000000e+00
1.443328785896973e+00 2.223234648886570e+00 0.000000000000000e+00
1.462291699531974e+00 2.230337375689158e+00 0.000000000000000e+00
1.481898466734739e+00 2.237560804753802e+00 0.000000000000000e+00
1.500737965825158e+00 2.244633433841156e+00 0.000000000000000e+00
1.520424638476958e+00 2.251309018891416e+00 0.000000000000000e+00
1.539869259864866e+00 2.257156678546580e+00 0.000000000000000e+00
1.559008169919099e+00 2.265139990007830e+00 0.000000000000000e+00
1.578614148877929e+00 2.270882643997599e+00 0.000000000000000e+00
1.597966860276225e+00 2.277505211883017e+00 0.000000000000000e+00
1.617182779118314e+00 2.284550298864119e+00 0.000000000000000e+00
1.636928261102611e+00 2.290451113042662e+00 0.000000000000000e+00
1.656370743887473e+00 2.296908540771363e+00 0.000000000000000e+00
1.674900174070822e+00 2.305698141814803e+00 0.000000000000000e+00
1.695142543513265e+00 2.308891499949344e+00 0.000000000000000e+00
1.713678446486699e+00 2.317879463317896e+00 0.000000000000000e+00
1.732806687094493e+00 2.325117445445126e+00 0.000000000000000e+00
1.752610814158356e+00 2.330939096728362e+00 0.000000000000000e+00
1.771300689737617e+00 2.338708381232609e+00 0.000000000000000e+00
1.790681638692477e+00 2.346135003495309e+00 0.000000000000000e+00
1.809649380594164e+00 2.353196400047437e+00 0.000000000000000e+00
1.829016582967289e+00 2.360563905839967e+00 0.000000000000000e+00
1.848661821496618e+00 2.365347118833848e+00 0.000000000000000e+00
1.867225364888202e+00 2.374984378305575e+00 0.000000000000000e+00
1.887276903286979e+00 2.378852672141094e+00 0.000000000000000e+00
1.906483402500774e+00 2.385025631401047e+00 0.000000000000000e+00
1.926494061277254e+00 2.390527701017708e+00 0.000000000000000e+00
1.945928753996839e+00 2.396769643834350e+00 0.000000000000000e+00
1.966292557933753e+00 2.399162159834636e+00 0.000000000000000e+00
1.986245541658456e+00 2.402331804337661e+00 0.000000000000000e+00
2.006729590216542e+00 2.405019219219849e+00 0.000000000000000e+00
2.026907485315948e+00 2.408363203129187e+00 0.000000000000000e+00
2.047292837196782e+00 2.407394395242306e+00 0.000000000000000e+00
2.067553746227266e+00 2.407167633920081e+00 0.000000000000000e+00
2.087902687539437e+00 2.409754814862508e+00 0.000000000000000e+00
2.108551223441681e+00 2.408118275680251e+00 0.000000000000000e+00
2.128406948474882e+00 2.406385347193436e+00 0.000000000000000e+00
2.149099675560975e+00 2.406384161756304e+00 0.000000000000000e+00
2.169142574083838e+00 2.407251297721434e+00 0.000000000000000e+00
2.189893566977015e+00 2.406298262068169e+00 0.000000000000000e+00
2.209633392895939e+00 2.402563547050648e+00 0.000000000000000e+00
2.229980350497613e+00 2.402294126401229e+00 0.000000000000000e+00
2.250369472854394e+00 2.401037986668869e+00 0.000000000000000e+00
2.270131708944453e+00 2.396093166048448e+00 0.000000000000000e+00
2.289760256624731e+00 2.390576113626758e+00 0.000000000000000e+00
2.309605989504626e+00 2.385482946207425e+00 0.000000000000000e+00
2.329163459365224e+00 2.381074336874062e+00 0.000000000000000e+00
2.348528581457212e+00 2.373660301176853e+00 0.000000000000000e+00
2.367546617115865e+00 2.366239338704402e+00 0.000000000000000e+00
2.387005095727295e+00 2.360677999987816e+00 0.000000000000000e+00
2.406818381340322e+00 2.355485636877037e+00 0.000000000000000e+00
2.426052851663592e+00 2.348933373491533e+00 0.000000000000000e+00
2.445511686629203e+00 2.342104777480242e+00 0.000000000000000e+00
2.465070486932577e+00 2.336629392172587e+00 0.000000000000000e+00
2.484516853691829e+00 2.330886321806009e+00 0.000000000000000e+00
2.503948782463166e+00 2.323993969722282e+00 0.000000000000000e+00
2.522909650431024e+00 2.316963008142029e+00 0.000000000000000e+00
2.542432465100204e+00 2.310547368360982e+00 0.000000000000000e+00
2.562164297998088e+00 2.305219320859818e+00 0.000000000000000e+00
2.581040870239308e+00 2.297970576479289e+00 0.000000000000000e+00
2.600750574359303e+00 2.291730999134355e+00 0.000000000000000e+00
2.620843238178983e+00 2.288664460108019e+00 0.000000000000000e+00
2.640526155406683e+00 2.283413007226158e+00 0.000000000000000e+00
2.660275837946319e+00 2.278517988524562e+00 0.000000000000000e+00
2.680560123359187e+00 2.276074430107947e+00 0.000000000000000e+00
2.700869977527026e+00 2.274270787147552e+00 0.000000000000000e+00
2.720784449220697e+00 2.270398281077050e+00 0.000000000000000e+00
2.741100016495832e+00 2.268013510921040e+00 0.000000000000000e+00
2.761363496316164e+00 2.266723808248897e+00 0.000000000000000e+00
2.781899580489309e+00 2.266341448813011e+00 0.000000000000000e+00
2.802018100521149e+00 2.265216370984183e+00 0.000000000000000e+00
2.822407226752109e+00 2.262606248688587e+00 0.000000000000000e+00
2.842644318226232e+00 2.261881610570880e+00 0.000000000000000e+00
2.863023232223652e+00 2.262020471314038e+00 0.000000000000000e+00
2.883335323165404e+00 2.259451835814380e+00 0.000000000000000e+00
2.903331723263147e+00 2.256315838263763e+00 0.000000000000000e+00
2.923579735542754e+00 2.253344726615456e+00 0.000000000000000e+00
2.943963058644723e+00 2.252251663856590e+00 0.000000000000000e+00
2.963903650304750e+00 2.251271085707491e+00 0.000000000000000e+00
2.984495484984371e+00 2.247615691054093e+00 0.000000000000000e+00
3.004128323210163e+00 2.244835659198621e+00 0.000000000000000e+00
3.024791532786866e+00 2.243037270201705e+00 0.000000000000000e+00
3.044711719526893e+00 2.241738274739880e+00 0.000000000000000e+00
3.065064914128367e+00 2.238499352573206e+00 0.000000000000000e+00
3.084874941669158e+00 2.233943605274559e+00 0.000000000000000e+00
3.105121292876345e+00 2.232031570142120e+00 0.000000000000000e+00
3.125263394690525e+00 2.230150895605274e+00 0.000000000000000e+00
3.145632576849016e+00 2.226267345894244e+00 0.000000000000000e+00
3.165043550860890e+00 2.222959850608305e+00 0.000000000000000e+00
3.185443977151100e+00 2.218324075719222e+00 0.000000000000000e+00
3.205490149835807e+00 2.215144627611975e+00 0.000000000000000e+00
3.225100829977149e+00 2.211646835309964e+00 0.000000000000000e+00
3.245223379659128e+00 2.205977644266737e+00 0.000000000000000e+00
3.264311632649008e+00 2.200969202773164e+00 0.000000000000000e+00
3.284774549220286e+00 2.196214731945387e+00 0.000000000000000e+00
3.303913791582251e+00 2.191927429188786e+00 0.000000000000000e+00
3.323837584235667e+00 2.186046595896574e+00 0.000000000000000e+00
3.343113222385564e+00 2.180219556596957e+00 0.000000000000000e+00
3.362836727255980e+00 2.174851365895546e+00 0.000000000000000e+00
3.382323205689168e+00 2.170043770313413e+00 0.000000000000000e+00
3.401916000760330e+00 2.163790310142789e+00 0.000000000000000e+00
3.420863093144979e+00 2.157079687738626e+00 0.000000000000000e+00
3.440419712511219e+00 2.151119078879548e+00 0.000000000000000e+00
3.459900567475574e+00 2.146598233860774e+00 0.000000000000000e+00
3.479322176687606e+00 2.140951224961913e+00 0.000000000000000e+00
3.498403761511196e+00 2.133492887886300e+00 0.000000000000000e+00
3.517936123125934e+00 2.129461518157567e+00 0.000000000000000e+00
3.537749147416773e+00 2.125104681443279e+00 0.000000000000000e+00
3.557602816754073e+00 2.120967188276992e+00 0.000000000000000e+00
3.576607080414484e+00 2.115378638079303e+00 0.000000000000000e+00
3.596655174776420e+00 2.111556831868374e+00 0.000000000000000e+00
3.616567092597690e+00 2.111055556094897e+00 0.000000000000000e+00
3.636425073736983e+00 2.107057324845069e+00 0.000000000000000e+00
3.656203033891040e+00 2.105072243737820e+00 0.000000000000000e+00
3.676446945663832e+00 2.103552016894950e+00 0.000000000000000e+00
3.696191628226781e+00 2.101658726931730e+00 0.000000000000000e+00
3.716404645442727e+00 2.100234702279863e+00 0.000000000000000e+00
3.736185211523296e+00 2.099047745472276e+00 0.000000000000000e+00
3.756423370196153e+00 2.097567176596868e+00 0.000000000000000e+00
3.775983551818320e+00 2.093812881557716e+00 0.000000000000000e+00
3.795226342005587e+00 2.089222473036018e+00 0.000000000000000e+00
3.815347970774378e+00 2.085841381066506e+00 0.000000000000000e+00
3.834471286460352e+00 2.080724951940218e+00 0.000000000000000e+00
3.852646184429448e+00 2.072683245543104e+00 0.000000000000000e+00
3.871609798639753e+00 2.066307730769756e+00 0.000000000000000e+00
3.890169342037879e+00 2.058490805477800e+00 0.000000000000000e+00
3.907580820031680e+00 2.048980085304643e+00 0.000000000000000e+00
3.925270729438621e+00 2.039277678141142e+00 0.000000000000000e+00
3.943541656283115e+00 2.031173732073154e+00 0.000000000000000e+00
3.961699218702434e+00 2.022871027984245e+00 0.000000000000000e+00
3.977109105168135e+00 2.010112516924729e+00 0.000000000000000e+00
3.995743391607698e+00 2.002470854955854e+00 0.000000000000000e+00
1.005905190792187e+00 2.996272341047022e+00 0.000000000000000e+00
1.023801765040290e+00 2.986565496779801e+00 0.000000000000000e+00
1.041628453228104e+00 2.977221353405680e+00 0.000000000000000e+00
1.059515582858555e+00 2.967407728801261e+00 0.000000000000000e+00
1.076673690897816e+00 2.956789594880136e+00 0.000000000000000e+00
1.094520862332967e+00 2.946823865773633e+00 0.000000000000000e+00
1.112369088927264e+00 2.937476970506887e+00 0.000000000000000e+00
1.129925746802131e+00 2.926971656409728e+00 0.000000000000000e+00
1.147976239157872e+00 2.917735379503835e+00 0.000000000000000e+00
1.165375434478901e+00 2.906926904507726e+00 0.000000000000000e+00
1.183733662606006e+00 2.898103780913238e+00 0.000000000000000e+00
1.201111609938477e+00 2.887383925241448e+00 0.000000000000000e+00
1.219355845880363e+00 2.878317651695015e+00 0.000000000000000e+00
1.237202912206508e+00 2.868152802432740e+00 0.000000000000000e+00
1.255668778941527e+00 2.859537033502050e+00 0.000000000000000e+00
1.273729719945429e+00 2.849849777158795e+00 0.000000000000000e+00
1.292251691809513e+00 2.840957331766743e+00 0.000000000000000e+00
1.310774570616213e+00 2.832334058542765e+00 0.000000000000000e+00
1.329291969792025e+00 2.823297321957180e+00 0.000000000000000e+00
1.348090361971169e+00 2.815343226899813e+00 0.000000000000000e+00
1.366866708453143e+00 2.807004569557181e+00 0.000000000000000e+00
1.385904612469140e+00 2.799358685825181e+00 0.000000000000000e+00
1.404972507652700e+00 2.791473728345659e+00 0.000000000000000e+00
1.423910258502184e+00 2.784035327519804e+00 0.000000000000000e+00
1.443328785896995e+00 2.776765351113433e+00 0.000000000000000e+00
1.462291699531995e+00 2.769662624310855e+00 0.000000000000000e+00
1.481898466734761e+00 2.762439195246207e+00 0.000000000000000e+00
1.500737965825180e+00 2.755366566158851e+00 0.000000000000000e+00
1.520424638476979e+00 2.748690981108592e+00 0.000000000000000e+00
1.539869259864889e+00 2.742843321453427e+00 0.000000000000000e+00
1.559008169919120e+00 2.734860009992176e+00 0.000000000000000e+00
1.578614148877950e+00 2.729117356002410e+00 0.000000000000000e+00
1.597966860276248e+00 2.722494788116987e+00 0.000000000000000e+00
1.617182779118333e+00 2.715449701135884e+00 0.000000000000000e+00
1.636928261102631e+00 2.709548886957337e+00 0.000000000000000e+00
1.656370743887492e+00 2.703091459228641e+00 0.000000000000000e+00
1.674900174070841e+00 2.694301858185197e+00 0.000000000000000e+00
1.695142543513284e+00 2.691108500050658e+00 0.000000000000000e+00
1.713678446486715e+00 2.682120536682104e+00 0.000000000000000e+00
1.732806687094510e+00 2.674882554554873e+00 0.000000000000000e+00
1.752610814158374e+00 2.669060903271638e+00 0.000000000000000e+00
1.771300689737631e+00 2.661291618767386e+00 0.000000000000000e+00
1.790681638692492e+00 2.653864996504686e+00 0.000000000000000e+00
1.809649380594176e+00 2.646803599952556e+00 0.000000000000000e+00
1.829016582967302e+00 2.639436094160022e+00 0.000000000000000e+00
1.848661821496633e+00 2.634652881166154e+00 0.000000000000000e+00
1.867225364888213e+00 2.625015621694417e+00 0.000000000000000e+00
1.887276903286990e+00 2.621147327858895e+00 0.000000000000000e+00
1.906483402500785e+00 2.614974368598948e+00 0.000000000000000e+00
1.926494061277266e+00 2.609472298982286e+00 0.000000000000000e+00
1.945928753996848e+00 2.603230356165639e+00 0.000000000000000e+00
1.966292557933764e+00 2.600837840165357e+00 0.000000000000000e+00
1.986245541658465e+00 2.597668195662336e+00 0.000000000000000e+00
2.006729590216553e+00 2.594980780780147e+00 0.000000000000000e+00
2.026907485315958e+00 2.591636796870818e+00 0.000000000000000e+00
2.047292837196792e+00 2.592605604757689e+00 0.000000000000000e+00
2.067553746227280e+00 2.592832366079910e+00 0.000000000000000e+00
2.087902687539446e+00 2.590245185137490e+00 0.000000000000000e+00
2.108551223441692e+00 2.591881724319738e+00 0.000000000000000e+00
2.128406948474894e+00 2.593614652806567e+00 0.000000000000000e+00
2.149099675560983e+00 2.593615838243695e+00 0.000000000000000e+00
2.169142574083849e+00 2.592748702278576e+00 0.000000000000000e+00
2.189893566977024e+00 2.593701737931849e+00 0.000000000000000e+00
2.209633392895949e+00 2.597436452949365e+00 0.000000000000000e+00
2.229980350497621e+00 2.597705873598780e+00 0.000000000000000e+00
2.250369472854405e+00 2.598962013331155e+00 0.000000000000000e+00
2.270131708944457e+00 2.603906833951586e+00 0.000000000000000e+00
2.289760256624738e+00 2.609423886373282e+00 0.000000000000000e+00
2.309605989504628e+00 2.614517053792614e+00 0.000000000000000e+00
2.329163459365228e+00 2.618925663125978e+00 0.000000000000000e+00
2.348528581457216e+00 2.626339698823193e+00 0.000000000000000e+00
2.367546617115862e+00 2.633760661295648e+00 0.000000000000000e+00
2.387005095727299e+00 2.639322000012233e+00 0.000000000000000e+00
2.406818381340319e+00 2.644514363123013e+00 0.000000000000000e+00
2.426052851663599e+00 2.651066626508506e+00 0.000000000000000e+00
2.445511686629205e+00 2.657895222519799e+00 0.000000000000000e+00
2.465070486932577e+00 2.663370607827465e+00 0.000000000000000e+00
2.484516853691829e+00 2.669113678194041e+00 0.000000000000000e+00
2.503948782463163e+00 2.676006030277769e+00 0.000000000000000e+00
2.522909650431025e+00 2.683036991858022e+00 0.000000000000000e+00
2.542432465100203e+00 2.689452631639071e+00 0.000000000000000e+00
2.562164297998087e+00 2.694780679140236e+00 0.000000000000000e+00
2.581040870239300e+00 2.702029423520774e+00 0.000000000000000e+00
2.600750574359302e+00 2.708269000865701e+00 0.000000000000000e+00
2.620843238178979e+00 2.711335539892036e+00 0.000000000000000e+00
2.640526155406679e+00 2.716586992773895e+00 0.000000000000000e+00
2.660275837946316e+00 2.721482011475488e+00 0.000000000000000e+00
2.680560123359183e+00 2.723925569892100e+00 0.000000000000000e+00
2.700869977527025e+00 2.725729212852495e+00 0.000000000000000e+00
2.720784449220692e+00 2.729601718922989e+00 0.000000000000000e+00
2.741100016495831e+00 2.731986489079005e+00 0.000000000000000e+00
2.761363496316161e+00 2.733276191751130e+00 0.000000000000000e+00
2.781899580489307e+00 2.733658551187002e+00 0.000000000000000e+00
2.802018100521146e+00 2.734783629015850e+00 0.000000000000000e+00
2.822407226752105e+00 2.737393751311445e+00 0.000000000000000e+00
2.842644318226233e+00 2.738118389429137e+00 0.000000000000000e+00
2.863023232223653e+00 2.737979528685965e+00 0.000000000000000e+00
2.883335323165397e+00 2.740548164185626e+00 0.000000000000000e+00
2.903331723263147e+00 2.743684161736241e+00 0.000000000000000e+00
2.923579735542752e+00 2.746655273384531e+00 0.000000000000000e+00
2.943963058644723e+00 2.747748336143390e+00 0.000000000000000e+00
2.963903650304748e+00 2.748728914292496e+00 0.000000000000000e+00
2.984495484984372e+00 2.752384308945894e+00 0.000000000000000e+00
3.004128323210162e+00 2.755164340801349e+00 0.000000000000000e+00
3.024791532786867e+00 2.756962729798264e+00 0.000000000000000e+00
3.044711719526892e+00 2.758261725260089e+00 0.000000000000000e+00
3.065064914128365e+00 2.761500647426771e+00 0.000000000000000e+00
3.084874941669158e+00 2.766056394725412e+00 0.000000000000000e+00
3.105121292876343e+00 2.767968429857838e+00 0.000000000000000e+00
3.125263394690528e+00 2.769849104394691e+00 0.000000000000000e+00
3.145632576849011e+00 2.773732654105732e+00 0.000000000000000e+00
3.165043550860895e+00 2.777040149391664e+00 0.000000000000000e+00
3.185443977151100e+00 2.781675924280739e+00 0.000000000000000e+00
3.205490149835808e+00 2.784855372387989e+00 0.000000000000000e+00
3.225100829977150e+00 2.788353164690005e+00 0.000000000000000e+00
3.245223379659130e+00 2.794022355733240e+00 0.000000000000000e+00
3.264311632649008e+00 2.799030797226800e+00 0.000000000000000e+00
3.284774549220286e+00 2.803785268054579e+00 0.000000000000000e+00
3.303913791582250e+00 2.808072570811189e+00 0.000000000000000e+00
3.323837584235665e+00 2.813953404103415e+00 0.000000000000000e+00
3.343113222385555e+00 2.819780443403021e+00 0.000000000000000e+00
3.362836727255980e+00 2.825148634104436e+00 0.000000000000000e+00
3.382323205689160e+00 2.829956229686561e+00 0.000000000000000e+00
3.401916000760328e+00 2.836209689857200e+00 0.000000000000000e+00
3.420863093144971e+00 2.842920312261360e+00 0.000000000000000e+00
3.440419712511214e+00 2.848880921120437e+00 0.000000000000000e+00
3.459900567475565e+00 2.853401766139225e+00 0.000000000000000e+00
3.479322176687595e+00 2.859048775038100e+00 0.000000000000000e+00
3.498403761511182e+00 2.866507112113709e+00 0.000000000000000e+00
3.517936123125917e+00 2.870538481842442e+00 0.000000000000000e+00
3.537749147416760e+00 2.874895318556744e+00 0.000000000000000e+00
3.557602816754055e+00 2.879032811723032e+00 0.000000000000000e+00
3.576607080414471e+00 2.884621361920725e+00 0.000000000000000e+00
3.596655174776403e+00 2.888443168131650e+00 0.000000000000000e+00
3.616567092597676e+00 2.888944443905138e+00 0.000000000000000e+00
3.636425073736964e+00 2.892942675154975e+00 0.000000000000000e+00
3.656203033891024e+00 2.894927756262217e+00 0.000000000000000e+00
3.676446945663815e+00 2.896447983105086e+00 0.000000000000000e+00
3.696191628226765e+00 2.898341273068305e+00 0.000000000000000e+00
3.716404645442715e+00 2.899765297720168e+00 0.000000000000000e+00
3.736185211523274e+00 2.900952254527759e+00 0.000000000000000e+00
3.756423370196140e+00 2.902432823403167e+00 0.000000000000000e+00
3.775983551818300e+00 2.906187118442311e+00 0.000000000000000e+00
3.795226342005577e+00 2.910777526963997e+00 0.000000000000000e+00
3.815347970774364e+00 2.914158618933506e+00 0.000000000000000e+00
3.834471286460345e+00 2.919275048059785e+00 0.000000000000000e+00
3.852646184429438e+00 2.927316754456901e+00 0.000000000000000e+00
3.871609798639745e+00 2.933692269230249e+00 0.000000000000000e+00
3.890169342037869e+00 2.941509194522202e+00 0.000000000000000e+00
3.907580820031678e+00 2.951019914695356e+00 0.000000000000000e+00
3.925270729438616e+00 2.960722321858852e+00 0.000000000000000e+00
3.943541656283109e+00 2.968826267926843e+00 0.000000000000000e+00
3.961699218702430e+00 2.977128972015749e+00 0.000000000000000e+00
3.977109105168136e+00 2.989887483075264e+00 0.000000000000000e+00
3.995743391607697e+00 2.997529145044143e+00 0.000000000000000e+00

POINT_DATA   310
SCALARS fX_Lag double
LOOKUP_TABLE default

1.321353e+03 
-1.926227e+03 
2.340678e+03 
-2.265420e+03 
2.460146e+03 
-2.464855e+03 
2.385160e+03 
-1.364848e+03 
1.504180e+03 
-4.577215e+02 
-1.326575e+01 
2.802720e+01 
1.171148e+03 
-1.091807e+03 
8.148738e+02 
7.610062e+02 
-9.391872e+02 
1.465915e+03 
-1.459492e+03 
1.079988e+03 
-4.931412e+01 
1.075949e+03 
-2.556186e+03 
3.719456e+03 
-4.563763e+03 
6.056166e+03 
-7.278779e+03 
6.416679e+03 
-4.501044e+03 
3.789086e+03 
-2.581607e+03 
1.409678e+02 
2.871137e+01 
1.574048e+03 
-1.276849e+03 
-2.448036e+02 
7.323670e+02 
5.148834e+01 
-9.931883e+02 
2.107138e+03 
-4.169744e+03 
4.931257e+03 
-4.779558e+03 
4.444889e+03 
-4.445299e+03 
5.355321e+03 
-3.271634e+03 
-2.740917e+03 
5.802333e+03 
-3.587080e+03 
1.374828e+03 
-3.048763e+03 
4.582710e+03 
-2.203612e+03 
-1.551054e+02 
-1.492641e+03 
2.348521e+03 
2.198669e+03 
-7.840554e+03 
7.578344e+03 
-6.258208e+03 
7.100444e+03 
-7.165316e+03 
2.822345e+03 
8.110802e+02 
-1.043396e+03 
8.470095e+01 
9.922911e+02 
-4.015849e+03 
5.984104e+03 
-2.999178e+03 
-1.215399e+03 
2.412021e+03 
-1.915749e+03 
2.814676e+03 
-2.532456e+03 
-5.013670e+02 
2.871783e+03 
-3.782728e+03 
3.458958e+03 
-9.434773e+02 
-2.427734e+03 
4.554716e+03 
-2.870451e+03 
1.892061e+02 
-2.243877e+02 
1.028966e+03 
-4.690720e+02 
-1.170761e+03 
1.778310e+03 
-1.418526e+03 
2.367012e+03 
-3.904052e+03 
4.020031e+03 
-3.038824e+03 
1.304593e+03 
9.932892e+02 
-2.290692e+03 
2.172126e+03 
-4.545937e+02 
-4.454033e+03 
9.293186e+03 
-1.065149e+04 
9.090160e+03 
-7.767587e+03 
6.339001e+03 
-2.881848e+03 
2.329368e+02 
-1.017034e+03 
4.940837e+03 
-1.037875e+04 
1.197144e+04 
-6.039397e+03 
-3.648164e+03 
9.365024e+03 
-1.130928e+04 
1.237782e+04 
-1.355305e+04 
1.110093e+04 
-6.032997e+03 
3.070682e+03 
-3.453169e+03 
4.560065e+03 
-4.657990e+03 
3.319967e+03 
-4.058911e+03 
2.168776e+03 
2.078450e+03 
-4.891286e+03 
3.307458e+03 
3.374658e+01 
-4.692342e+03 
5.941022e+03 
-4.923317e+03 
3.486264e+03 
-3.672839e+03 
4.358639e+03 
-4.555491e+03 
4.190245e+03 
-4.557284e+03 
4.690870e+03 
-3.659783e+03 
-1.394299e+03 
5.989248e+03 
-5.996234e+03 
7.944797e+02 
1.163388e+03 
1.065109e+03 
-2.959845e+03 
2.997484e+03 
-1.614743e+03 
-3.473067e+02 
-5.978247e+01 
1.783449e+03 
-1.236342e+03 
1.321353e+03 
-1.926227e+03 
2.340678e+03 
-2.265420e+03 
2.460146e+03 
-2.464855e+03 
2.385160e+03 
-1.364848e+03 
1.504180e+03 
-4.577215e+02 
-1.326575e+01 
2.802720e+01 
1.171148e+03 
-1.091807e+03 
8.148738e+02 
7.610062e+02 
-9.391872e+02 
1.465915e+03 
-1.459492e+03 
1.079988e+03 
-4.931412e+01 
1.075949e+03 
-2.556186e+03 
3.719456e+03 
-4.563763e+03 
6.056166e+03 
-7.278779e+03 
6.416679e+03 
-4.501044e+03 
3.789086e+03 
-2.581607e+03 
1.409678e+02 
2.871137e+01 
1.574048e+03 
-1.276849e+03 
-2.448036e+02 
7.323670e+02 
5.148834e+01 
-9.931883e+02 
2.107138e+03 
-4.169744e+03 
4.931257e+03 
-4.779558e+03 
4.444889e+03 
-4.445299e+03 
5.355321e+03 
-3.271634e+03 
-2.740917e+03 
5.802333e+03 
-3.587080e+03 
1.374828e+03 
-3.048763e+03 
4.582710e+03 
-2.203612e+03 
-1.551054e+02 
-1.492641e+03 
2.348521e+03 
2.198669e+03 
-7.840554e+03 
7.578344e+03 
-6.258208e+03 
7.100444e+03 
-7.165316e+03 
2.822345e+03 
8.110802e+02 
-1.043396e+03 
8.470095e+01 
9.922911e+02 
-4.015849e+03 
5.984104e+03 
-2.999178e+03 
-1.215399e+03 
2.412021e+03 
-1.915749e+03 
2.814676e+03 
-2.532456e+03 
-5.013670e+02 
2.871783e+03 
-3.782728e+03 
3.458958e+03 
-9.434773e+02 
-2.427734e+03 
4.554716e+03 
-2.870451e+03 
1.892061e+02 
-2.243877e+02 
1.028966e+03 
-4.690720e+02 
-1.170761e+03 
1.778310e+03 
-1.418526e+03 
2.367012e+03 
-3.904052e+03 
4.020031e+03 
-3.038824e+03 
1.304593e+03 
9.932892e+02 
-2.290692e+03 
2.172126e+03 
-4.545937e+02 
-4.454033e+03 
9.293186e+03 
-1.065149e+04 
9.090160e+03 
-7.767587e+03 
6.339001e+03 
-2.881848e+03 
2.329368e+02 
-1.017034e+03 
4.940837e+03 
-1.037875e+04 
1.197144e+04 
-6.039397e+03 
-3.648164e+03 
9.365024e+03 
-1.130928e+04 
1.237782e+04 
-1.355305e+04 
1.110093e+04 
-6.032997e+03 
3.070682e+03 
-3.453169e+03 
4.560065e+03 
-4.657990e+03 
3.319967e+03 
-4.058911e+03 
2.168776e+03 
2.078450e+03 
-4.891286e+03 
3.307458e+03 
3.374658e+01 
-4.692342e+03 
5.941022e+03 
-4.923317e+03 
3.486264e+03 
-3.672839e+03 
4.358639e+03 
-4.555491e+03 
4.190245e+03 
-4.557284e+03 
4.690870e+03 
-3.659783e+03 
-1.394299e+03 
5.989248e+03 
-5.996234e+03 
7.944797e+02 
1.163388e+03 
1.065109e+03 
-2.959845e+03 
2.997484e+03 
-1.614743e+03 
-3.473067e+02 
-5.978247e+01 
1.783449e+03 
-1.236342e+03 
