# vtk DataFile Version 2.0
fY_Lag
ASCII
DATASET UNSTRUCTURED_GRID

FIELD FieldData 1
TIME 1 1 double
0.22500000
POINTS 310 float
1.010496349058069e+00 2.004167564023844e+00 0.000000000000000e+00
1.029433539921918e+00 2.012529768196451e+00 0.000000000000000e+00
1.048469716906797e+00 2.020255775332915e+00 0.000000000000000e+00
1.067775212517960e+00 2.028239750631341e+00 0.000000000000000e+00
1.086240066592882e+00 2.037193006721687e+00 0.000000000000000e+00
1.105214145490479e+00 2.045681450990714e+00 0.000000000000000e+00
1.123986748254199e+00 2.053926058991057e+00 0.000000000000000e+00
1.142403431962190e+00 2.063591655139142e+00 0.000000000000000e+00
1.161083497560513e+00 2.072199121555842e+00 0.000000000000000e+00
1.179098870931097e+00 2.082411661441319e+00 0.000000000000000e+00
1.197966876423940e+00 2.090782154251432e+00 0.000000000000000e+00
1.215778045401481e+00 2.101222770464974e+00 0.000000000000000e+00
1.234211722150485e+00 2.110326717225424e+00 0.000000000000000e+00
1.252103175238242e+00 2.120598606412569e+00 0.000000000000000e+00
1.270699860885136e+00 2.129397965285901e+00 0.000000000000000e+00
1.288764001741664e+00 2.139239544271895e+00 0.000000000000000e+00
1.307234356442976e+00 2.148444291093137e+00 0.000000000000000e+00
1.325647126978628e+00 2.157352222401002e+00 0.000000000000000e+00
1.344015968325926e+00 2.166598076862908e+00 0.000000000000000e+00
1.362724109169048e+00 2.174988196913680e+00 0.000000000000000e+00
1.381133879226777e+00 2.183946382996079e+00 0.000000000000000e+00
1.399709473338660e+00 2.192566271265412e+00 0.000000000000000e+00
1.418206792866062e+00 2.201564672203387e+00 0.000000000000000e+00
1.436614665609393e+00 2.210077264561690e+00 0.000000000000000e+00
1.455565403074226e+00 2.218419133785305e+00 0.000000000000000e+00
1.473771957295207e+00 2.226694031966260e+00 0.000000000000000e+00
1.492627798492200e+00 2.235527566126849e+00 0.000000000000000e+00
1.510674222376941e+00 2.244167756312470e+00 0.000000000000000e+00
1.529695912000824e+00 2.252368797345809e+00 0.000000000000000e+00
1.548538619856293e+00 2.259357152057950e+00 0.000000000000000e+00
1.567119693931039e+00 2.268138921651025e+00 0.000000000000000e+00
1.586385764822461e+00 2.274423868151211e+00 0.000000000000000e+00
1.605457427349094e+00 2.281570183434792e+00 0.000000000000000e+00
1.624358523732896e+00 2.288989602282800e+00 0.000000000000000e+00
1.643840984465518e+00 2.295161391269372e+00 0.000000000000000e+00
1.663057863465813e+00 2.301508110050189e+00 0.000000000000000e+00
1.681594026217643e+00 2.309887822315239e+00 0.000000000000000e+00
1.701870131919696e+00 2.311969371996466e+00 0.000000000000000e+00
1.720686947109076e+00 2.319813987544236e+00 0.000000000000000e+00
1.740021980613762e+00 2.325646524795871e+00 0.000000000000000e+00
1.760068776348165e+00 2.329860684279700e+00 0.000000000000000e+00
1.779218955074948e+00 2.335843480855373e+00 0.000000000000000e+00
1.799112263679874e+00 2.341267275904398e+00 0.000000000000000e+00
1.818577570292585e+00 2.346332624136174e+00 0.000000000000000e+00
1.838377249109836e+00 2.351741835373550e+00 0.000000000000000e+00
1.858396033632555e+00 2.354918687017225e+00 0.000000000000000e+00
1.877075307600689e+00 2.363173857955345e+00 0.000000000000000e+00
1.897451342493650e+00 2.366169023676689e+00 0.000000000000000e+00
1.916703699146342e+00 2.371604177931588e+00 0.000000000000000e+00
1.936794853839173e+00 2.376902491211583e+00 0.000000000000000e+00
1.955895215357786e+00 2.383418143124756e+00 0.000000000000000e+00
1.976250855765942e+00 2.386999445961720e+00 0.000000000000000e+00
1.995883912185300e+00 2.391538363278602e+00 0.000000000000000e+00
2.016035464232153e+00 2.395934790374045e+00 0.000000000000000e+00
2.035542345572616e+00 2.401137482232134e+00 0.000000000000000e+00
2.056144813154995e+00 2.402627923315031e+00 0.000000000000000e+00
2.076346738776150e+00 2.405134997014598e+00 0.000000000000000e+00
2.095974511168425e+00 2.410053260135276e+00 0.000000000000000e+00
2.116754153877394e+00 2.410276889479707e+00 0.000000000000000e+00
2.136686848896419e+00 2.409400390111013e+00 0.000000000000000e+00
2.157342690973994e+00 2.409489155405994e+00 0.000000000000000e+00
2.177489047465020e+00 2.409516709759827e+00 0.000000000000000e+00
2.198187053850650e+00 2.406967503892683e+00 0.000000000000000e+00
2.217280303634631e+00 2.401557205103838e+00 0.000000000000000e+00
2.237611271034678e+00 2.399613746669058e+00 0.000000000000000e+00
2.258185768834095e+00 2.397534190204841e+00 0.000000000000000e+00
2.278014496580268e+00 2.392947484344203e+00 0.000000000000000e+00
2.297842450447592e+00 2.389202396356122e+00 0.000000000000000e+00
2.318087948359199e+00 2.387116109876244e+00 0.000000000000000e+00
2.338541832786782e+00 2.385896331017245e+00 0.000000000000000e+00
2.358513899530623e+00 2.381829775771492e+00 0.000000000000000e+00
2.377907999450765e+00 2.376949913301896e+00 0.000000000000000e+00
2.397929589739010e+00 2.372839537323940e+00 0.000000000000000e+00
2.417960395860839e+00 2.368065619042966e+00 0.000000000000000e+00
2.436734255390044e+00 2.361067871603639e+00 0.000000000000000e+00
2.455591619673466e+00 2.353474585724934e+00 0.000000000000000e+00
2.475007818165981e+00 2.347245815042146e+00 0.000000000000000e+00
2.494578734811753e+00 2.341630643279527e+00 0.000000000000000e+00
2.514171826921608e+00 2.335749999873590e+00 0.000000000000000e+00
2.533393122693725e+00 2.330274982543807e+00 0.000000000000000e+00
2.553469614075415e+00 2.326040338126803e+00 0.000000000000000e+00
2.573769796688034e+00 2.323607155838297e+00 0.000000000000000e+00
2.593387343064473e+00 2.319522477380741e+00 0.000000000000000e+00
2.613620636910701e+00 2.316042133677982e+00 0.000000000000000e+00
2.633677341078168e+00 2.315115903147919e+00 0.000000000000000e+00
2.653612553240739e+00 2.311464017440965e+00 0.000000000000000e+00
2.673534502633913e+00 2.307608916553624e+00 0.000000000000000e+00
2.693696749976543e+00 2.305686193459795e+00 0.000000000000000e+00
2.713746977354347e+00 2.303728279639410e+00 0.000000000000000e+00
2.733277449714858e+00 2.299060338063398e+00 0.000000000000000e+00
2.753226260434004e+00 2.295324041427725e+00 0.000000000000000e+00
2.773046235016811e+00 2.292189839976502e+00 0.000000000000000e+00
2.793035985703673e+00 2.289272423319843e+00 0.000000000000000e+00
2.812390915565247e+00 2.284916366811526e+00 0.000000000000000e+00
2.831761873809839e+00 2.278720193407427e+00 0.000000000000000e+00
2.851344793825961e+00 2.275136583501635e+00 0.000000000000000e+00
2.871235520119824e+00 2.273169982326989e+00 0.000000000000000e+00
2.890843940312517e+00 2.268626610216240e+00 0.000000000000000e+00
2.910164839788831e+00 2.263854812586172e+00 0.000000000000000e+00
2.929824885302503e+00 2.259619821336898e+00 0.000000000000000e+00
2.949796809367584e+00 2.257612598798795e+00 0.000000000000000e+00
2.969299604105205e+00 2.255686251749959e+00 0.000000000000000e+00
2.989253226766950e+00 2.250731874234966e+00 0.000000000000000e+00
3.008338553744825e+00 2.246474953406778e+00 0.000000000000000e+00
3.028492774452739e+00 2.243343502801973e+00 0.000000000000000e+00
3.047930650901972e+00 2.241361000650813e+00 0.000000000000000e+00
3.067845431821406e+00 2.237714178602035e+00 0.000000000000000e+00
3.087283836520956e+00 2.232648776939871e+00 0.000000000000000e+00
3.107041099085432e+00 2.230180018778051e+00 0.000000000000000e+00
3.126645821823836e+00 2.227513116148681e+00 0.000000000000000e+00
3.146597430946927e+00 2.222751268462042e+00 0.000000000000000e+00
3.165538326982918e+00 2.219010242694652e+00 0.000000000000000e+00
3.185548244359266e+00 2.214192167258087e+00 0.000000000000000e+00
3.205193192286403e+00 2.211104974980578e+00 0.000000000000000e+00
3.224571671403804e+00 2.207729634307879e+00 0.000000000000000e+00
3.244384079182765e+00 2.202142192118594e+00 0.000000000000000e+00
3.263193361210750e+00 2.197232598522456e+00 0.000000000000000e+00
3.283338500890649e+00 2.192607272695033e+00 0.000000000000000e+00
3.302228613139175e+00 2.188203272471414e+00 0.000000000000000e+00
3.321813738673002e+00 2.181890480550340e+00 0.000000000000000e+00
3.340691094687479e+00 2.175613660219277e+00 0.000000000000000e+00
3.360029275097216e+00 2.169963118199353e+00 0.000000000000000e+00
3.379330333686513e+00 2.165057438580679e+00 0.000000000000000e+00
3.398704418973276e+00 2.158783046040902e+00 0.000000000000000e+00
3.417329514634674e+00 2.151921139611246e+00 0.000000000000000e+00
3.436592014144082e+00 2.145701508948061e+00 0.000000000000000e+00
3.455983954230259e+00 2.141087637755175e+00 0.000000000000000e+00
3.475400380520458e+00 2.135595184841558e+00 0.000000000000000e+00
3.494246202308481e+00 2.128157963454115e+00 0.000000000000000e+00
3.513551928416658e+00 2.123739359029438e+00 0.000000000000000e+00
3.533011772830282e+00 2.118278757838708e+00 0.000000000000000e+00
3.552488500923480e+00 2.112334205874586e+00 0.000000000000000e+00
3.570660381978268e+00 2.104690416715023e+00 0.000000000000000e+00
3.590089629702601e+00 2.098872265071960e+00 0.000000000000000e+00
3.609807315589882e+00 2.096489019072497e+00 0.000000000000000e+00
3.629266021663203e+00 2.090452727624701e+00 0.000000000000000e+00
3.648644102343750e+00 2.086048344286412e+00 0.000000000000000e+00
3.668335397945371e+00 2.081688756154957e+00 0.000000000000000e+00
3.687623756926315e+00 2.077136230678945e+00 0.000000000000000e+00
3.707632485368892e+00 2.073453273756455e+00 0.000000000000000e+00
3.727269595576059e+00 2.070885553188102e+00 0.000000000000000e+00
3.747340618190081e+00 2.068827447307382e+00 0.000000000000000e+00
3.767214805868951e+00 2.065993676893884e+00 0.000000000000000e+00
3.787078664713703e+00 2.063723249900823e+00 0.000000000000000e+00
3.807355996387320e+00 2.063935385863083e+00 0.000000000000000e+00
3.827195614860187e+00 2.062673596593459e+00 0.000000000000000e+00
3.847150338450230e+00 2.058782093893202e+00 0.000000000000000e+00
3.866979774574784e+00 2.057131188009567e+00 0.000000000000000e+00
3.886842017809620e+00 2.053914328772317e+00 0.000000000000000e+00
3.905973859581057e+00 2.048343614091018e+00 0.000000000000000e+00
3.924961167424517e+00 2.041142683484036e+00 0.000000000000000e+00
3.943503752786102e+00 2.034117714715944e+00 0.000000000000000e+00
3.961533987734931e+00 2.025391623845410e+00 0.000000000000000e+00
3.977123531064420e+00 2.011863658089231e+00 0.000000000000000e+00
3.995243000271775e+00 2.003858354525399e+00 0.000000000000000e+00
1.010496349058069e+00 2.995832435976158e+00 0.000000000000000e+00
1.029433539921919e+00 2.987470231803552e+00 0.000000000000000e+00
1.048469716906801e+00 2.979744224667096e+00 0.000000000000000e+00
1.067775212517965e+00 2.971760249368671e+00 0.000000000000000e+00
1.086240066592886e+00 2.962806993278328e+00 0.000000000000000e+00
1.105214145490488e+00 2.954318549009304e+00 0.000000000000000e+00
1.123986748254207e+00 2.946073941008967e+00 0.000000000000000e+00
1.142403431962201e+00 2.936408344860884e+00 0.000000000000000e+00
1.161083497560526e+00 2.927800878444192e+00 0.000000000000000e+00
1.179098870931112e+00 2.917588338558716e+00 0.000000000000000e+00
1.197966876423955e+00 2.909217845748600e+00 0.000000000000000e+00
1.215778045401494e+00 2.898777229535058e+00 0.000000000000000e+00
1.234211722150502e+00 2.889673282774612e+00 0.000000000000000e+00
1.252103175238258e+00 2.879401393587468e+00 0.000000000000000e+00
1.270699860885151e+00 2.870602034714128e+00 0.000000000000000e+00
1.288764001741678e+00 2.860760455728139e+00 0.000000000000000e+00
1.307234356442989e+00 2.851555708906893e+00 0.000000000000000e+00
1.325647126978641e+00 2.842647777599024e+00 0.000000000000000e+00
1.344015968325938e+00 2.833401923137119e+00 0.000000000000000e+00
1.362724109169059e+00 2.825011803086345e+00 0.000000000000000e+00
1.381133879226791e+00 2.816053617003951e+00 0.000000000000000e+00
1.399709473338669e+00 2.807433728734610e+00 0.000000000000000e+00
1.418206792866078e+00 2.798435327796646e+00 0.000000000000000e+00
1.436614665609403e+00 2.789922735438338e+00 0.000000000000000e+00
1.455565403074237e+00 2.781580866214719e+00 0.000000000000000e+00
1.473771957295219e+00 2.773305968033773e+00 0.000000000000000e+00
1.492627798492211e+00 2.764472433873181e+00 0.000000000000000e+00
1.510674222376953e+00 2.755832243687559e+00 0.000000000000000e+00
1.529695912000835e+00 2.747631202654220e+00 0.000000000000000e+00
1.548538619856304e+00 2.740642847942079e+00 0.000000000000000e+00
1.567119693931049e+00 2.731861078349002e+00 0.000000000000000e+00
1.586385764822472e+00 2.725576131848822e+00 0.000000000000000e+00
1.605457427349106e+00 2.718429816565238e+00 0.000000000000000e+00
1.624358523732906e+00 2.711010397717229e+00 0.000000000000000e+00
1.643840984465529e+00 2.704838608730653e+00 0.000000000000000e+00
1.663057863465824e+00 2.698491889949838e+00 0.000000000000000e+00
1.681594026217653e+00 2.690112177684785e+00 0.000000000000000e+00
1.701870131919707e+00 2.688030628003558e+00 0.000000000000000e+00
1.720686947109083e+00 2.680186012455781e+00 0.000000000000000e+00
1.740021980613770e+00 2.674353475204142e+00 0.000000000000000e+00
1.760068776348172e+00 2.670139315720310e+00 0.000000000000000e+00
1.779218955074952e+00 2.664156519144628e+00 0.000000000000000e+00
1.799112263679879e+00 2.658732724095600e+00 0.000000000000000e+00
1.818577570292586e+00 2.653667375863819e+00 0.000000000000000e+00
1.838377249109838e+00 2.648258164626436e+00 0.000000000000000e+00
1.858396033632556e+00 2.645081312982769e+00 0.000000000000000e+00
1.877075307600686e+00 2.636826142044639e+00 0.000000000000000e+00
1.897451342493647e+00 2.633830976323291e+00 0.000000000000000e+00
1.916703699146341e+00 2.628395822068399e+00 0.000000000000000e+00
1.936794853839171e+00 2.623097508788401e+00 0.000000000000000e+00
1.955895215357780e+00 2.616581856875218e+00 0.000000000000000e+00
1.976250855765938e+00 2.613000554038253e+00 0.000000000000000e+00
1.995883912185295e+00 2.608461636721371e+00 0.000000000000000e+00
2.016035464232149e+00 2.604065209625928e+00 0.000000000000000e+00
2.035542345572615e+00 2.598862517767853e+00 0.000000000000000e+00
2.056144813154995e+00 2.597372076684953e+00 0.000000000000000e+00
2.076346738776154e+00 2.594865002985388e+00 0.000000000000000e+00
2.095974511168427e+00 2.589946739864721e+00 0.000000000000000e+00
2.116754153877397e+00 2.589723110520286e+00 0.000000000000000e+00
2.136686848896425e+00 2.590599609888994e+00 0.000000000000000e+00
2.157342690973997e+00 2.590510844594011e+00 0.000000000000000e+00
2.177489047465027e+00 2.590483290240191e+00 0.000000000000000e+00
2.198187053850653e+00 2.593032496107345e+00 0.000000000000000e+00
2.217280303634638e+00 2.598442794896183e+00 0.000000000000000e+00
2.237611271034684e+00 2.600386253330956e+00 0.000000000000000e+00
2.258185768834104e+00 2.602465809795182e+00 0.000000000000000e+00
2.278014496580272e+00 2.607052515655823e+00 0.000000000000000e+00
2.297842450447601e+00 2.610797603643906e+00 0.000000000000000e+00
2.318087948359204e+00 2.612883890123782e+00 0.000000000000000e+00
2.338541832786790e+00 2.614103668982785e+00 0.000000000000000e+00
2.358513899530630e+00 2.618170224228548e+00 0.000000000000000e+00
2.377907999450767e+00 2.623050086698153e+00 0.000000000000000e+00
2.397929589739018e+00 2.627160462676108e+00 0.000000000000000e+00
2.417960395860837e+00 2.631934380957084e+00 0.000000000000000e+00
2.436734255390054e+00 2.638932128396406e+00 0.000000000000000e+00
2.455591619673469e+00 2.646525414275114e+00 0.000000000000000e+00
2.475007818165982e+00 2.652754184957912e+00 0.000000000000000e+00
2.494578734811757e+00 2.658369356720529e+00 0.000000000000000e+00
2.514171826921610e+00 2.664250000126464e+00 0.000000000000000e+00
2.533393122693729e+00 2.669725017456245e+00 0.000000000000000e+00
2.553469614075418e+00 2.673959661873250e+00 0.000000000000000e+00
2.573769796688038e+00 2.676392844161751e+00 0.000000000000000e+00
2.593387343064472e+00 2.680477522619312e+00 0.000000000000000e+00
2.613620636910706e+00 2.683957866322062e+00 0.000000000000000e+00
2.633677341078170e+00 2.684884096852126e+00 0.000000000000000e+00
2.653612553240744e+00 2.688535982559077e+00 0.000000000000000e+00
2.673534502633919e+00 2.692391083446413e+00 0.000000000000000e+00
2.693696749976548e+00 2.694313806540240e+00 0.000000000000000e+00
2.713746977354353e+00 2.696271720360631e+00 0.000000000000000e+00
2.733277449714859e+00 2.700939661936641e+00 0.000000000000000e+00
2.753226260434009e+00 2.704675958572323e+00 0.000000000000000e+00
2.773046235016816e+00 2.707810160023528e+00 0.000000000000000e+00
2.793035985703678e+00 2.710727576680172e+00 0.000000000000000e+00
2.812390915565249e+00 2.715083633188507e+00 0.000000000000000e+00
2.831761873809840e+00 2.721279806592603e+00 0.000000000000000e+00
2.851344793825967e+00 2.724863416498381e+00 0.000000000000000e+00
2.871235520119830e+00 2.726830017673016e+00 0.000000000000000e+00
2.890843940312515e+00 2.731373389783773e+00 0.000000000000000e+00
2.910164839788838e+00 2.736145187413843e+00 0.000000000000000e+00
2.929824885302508e+00 2.740380178663103e+00 0.000000000000000e+00
2.949796809367590e+00 2.742387401201204e+00 0.000000000000000e+00
2.969299604105208e+00 2.744313748250053e+00 0.000000000000000e+00
2.989253226766956e+00 2.749268125765046e+00 0.000000000000000e+00
3.008338553744830e+00 2.753525046593208e+00 0.000000000000000e+00
3.028492774452751e+00 2.756656497198005e+00 0.000000000000000e+00
3.047930650901983e+00 2.758638999349164e+00 0.000000000000000e+00
3.067845431821413e+00 2.762285821397951e+00 0.000000000000000e+00
3.087283836520966e+00 2.767351223060107e+00 0.000000000000000e+00
3.107041099085442e+00 2.769819981221906e+00 0.000000000000000e+00
3.126645821823852e+00 2.772486883851277e+00 0.000000000000000e+00
3.146597430946931e+00 2.777248731537931e+00 0.000000000000000e+00
3.165538326982929e+00 2.780989757305327e+00 0.000000000000000e+00
3.185548244359272e+00 2.785807832741894e+00 0.000000000000000e+00
3.205193192286409e+00 2.788895025019408e+00 0.000000000000000e+00
3.224571671403810e+00 2.792270365692112e+00 0.000000000000000e+00
3.244384079182769e+00 2.797857807881406e+00 0.000000000000000e+00
3.263193361210753e+00 2.802767401477533e+00 0.000000000000000e+00
3.283338500890654e+00 2.807392727304955e+00 0.000000000000000e+00
3.302228613139178e+00 2.811796727528580e+00 0.000000000000000e+00
3.321813738673004e+00 2.818109519449668e+00 0.000000000000000e+00
3.340691094687475e+00 2.824386339780721e+00 0.000000000000000e+00
3.360029275097220e+00 2.830036881800653e+00 0.000000000000000e+00
3.379330333686507e+00 2.834942561419322e+00 0.000000000000000e+00
3.398704418973274e+00 2.841216953959113e+00 0.000000000000000e+00
3.417329514634669e+00 2.848078860388763e+00 0.000000000000000e+00
3.436592014144082e+00 2.854298491051944e+00 0.000000000000000e+00
3.455983954230252e+00 2.858912362244842e+00 0.000000000000000e+00
3.475400380520451e+00 2.864404815158475e+00 0.000000000000000e+00
3.494246202308474e+00 2.871842036545913e+00 0.000000000000000e+00
3.513551928416651e+00 2.876260640970587e+00 0.000000000000000e+00
3.533011772830278e+00 2.881721242161322e+00 0.000000000000000e+00
3.552488500923469e+00 2.887665794125434e+00 0.000000000000000e+00
3.570660381978267e+00 2.895309583284997e+00 0.000000000000000e+00
3.590089629702597e+00 2.901127734928045e+00 0.000000000000000e+00
3.609807315589881e+00 2.903510980927515e+00 0.000000000000000e+00
3.629266021663199e+00 2.909547272375318e+00 0.000000000000000e+00
3.648644102343749e+00 2.913951655713603e+00 0.000000000000000e+00
3.668335397945367e+00 2.918311243845054e+00 0.000000000000000e+00
3.687623756926310e+00 2.922863769321064e+00 0.000000000000000e+00
3.707632485368892e+00 2.926546726243551e+00 0.000000000000000e+00
3.727269595576050e+00 2.929114446811913e+00 0.000000000000000e+00
3.747340618190079e+00 2.931172552692642e+00 0.000000000000000e+00
3.767214805868939e+00 2.934006323106141e+00 0.000000000000000e+00
3.787078664713700e+00 2.936276750099197e+00 0.000000000000000e+00
3.807355996387313e+00 2.936064614136940e+00 0.000000000000000e+00
3.827195614860182e+00 2.937326403406558e+00 0.000000000000000e+00
3.847150338450221e+00 2.941217906106820e+00 0.000000000000000e+00
3.866979774574777e+00 2.942868811990453e+00 0.000000000000000e+00
3.886842017809612e+00 2.946085671227700e+00 0.000000000000000e+00
3.905973859581054e+00 2.951656385908995e+00 0.000000000000000e+00
3.924961167424509e+00 2.958857316515974e+00 0.000000000000000e+00
3.943503752786095e+00 2.965882285284074e+00 0.000000000000000e+00
3.961533987734926e+00 2.974608376154601e+00 0.000000000000000e+00
3.977123531064420e+00 2.988136341910772e+00 0.000000000000000e+00
3.995243000271776e+00 2.996141645474603e+00 0.000000000000000e+00

POINT_DATA   310
SCALARS fY_Lag double
LOOKUP_TABLE default

5.015321e+02 
-9.321880e+02 
1.441481e+03 
-8.165008e+02 
7.557869e+02 
-1.218697e+03 
2.006773e+03 
-1.490388e+03 
1.454419e+03 
-1.286665e+03 
1.214122e+03 
-1.048086e+03 
8.794709e+02 
-1.028124e+03 
5.168041e+02 
-3.340696e+01 
-9.405784e+02 
6.346723e+02 
-7.048757e+02 
1.016362e+02 
-1.447363e+02 
5.298167e+02 
-1.397325e+03 
1.592799e+03 
-2.849360e+03 
3.640134e+03 
-3.472437e+03 
2.558703e+03 
-2.761368e+03 
2.384596e+03 
-2.128454e+03 
6.323963e+02 
-1.102631e+02 
-1.443583e+02 
-4.942098e+02 
1.064937e+03 
-2.644114e+03 
2.498631e+03 
-1.380314e+03 
-5.906504e+01 
-3.746424e+02 
1.248946e+03 
-1.432816e+03 
1.037586e+03 
-1.373605e+03 
2.356594e+03 
-1.988736e+03 
-2.890016e+02 
1.975736e+03 
-1.144283e+03 
-1.305699e+02 
-5.789225e+02 
1.013673e+03 
-7.477962e+02 
-9.371503e+02 
2.241169e+02 
6.509887e+02 
-1.666708e+03 
-5.377159e+02 
3.494077e+02 
-9.837810e+01 
-1.780844e+03 
6.185183e+02 
7.232028e+01 
-3.121062e+02 
-8.506264e+02 
6.950034e+02 
4.893512e+02 
3.016456e+02 
-1.217487e+03 
5.125125e+02 
-6.441070e+02 
-6.854678e+02 
5.300491e+02 
-1.244069e+03 
3.997998e+02 
3.537516e+02 
-3.766726e+02 
1.430270e+03 
-6.371835e+02 
1.061625e+03 
-8.576593e+00 
-5.557301e+02 
1.491286e+03 
-1.176065e+03 
-1.862661e+02 
8.592245e+02 
5.676498e+01 
-8.072499e+02 
-1.560295e+02 
6.589809e+02 
-1.552513e+02 
1.675345e+02 
-1.856579e+03 
1.950128e+03 
3.256843e+02 
-9.880169e+02 
3.754270e+02 
-2.465270e+02 
8.269087e+02 
4.779774e+02 
-2.575283e+03 
2.413623e+03 
-1.186971e+03 
1.394775e+03 
-1.409459e+03 
-1.942097e+02 
1.054147e+03 
1.378962e+02 
-2.089051e+03 
2.726406e+03 
-2.872872e+03 
1.980849e+03 
2.732180e+02 
-2.751386e+03 
3.093488e+03 
-2.730091e+03 
2.819312e+03 
-3.610529e+03 
2.060538e+03 
-5.070552e+02 
7.958762e+02 
-1.655366e+03 
1.396419e+03 
-1.077456e+03 
1.325565e+03 
-9.027148e+02 
-9.175845e+02 
2.161031e+03 
-1.195725e+03 
-7.588301e+02 
1.645605e+03 
-1.292161e+03 
1.902614e+03 
-2.123553e+03 
1.741839e+03 
-6.053852e+02 
7.223144e+02 
-8.139254e+02 
1.260527e+03 
-2.866689e+02 
-1.044828e+02 
3.522062e+02 
7.489293e+02 
-3.636290e+02 
-1.376279e+03 
1.203699e+03 
-7.080278e+02 
-4.457606e+02 
-1.799717e+03 
1.589963e+03 
-1.428754e+03 
-5.263058e+03 
6.265475e+03 
-2.439861e+03 
-5.015321e+02 
9.321880e+02 
-1.441481e+03 
8.165008e+02 
-7.557869e+02 
1.218697e+03 
-2.006773e+03 
1.490388e+03 
-1.454419e+03 
1.286665e+03 
-1.214122e+03 
1.048086e+03 
-8.794709e+02 
1.028124e+03 
-5.168041e+02 
3.340696e+01 
9.405784e+02 
-6.346723e+02 
7.048757e+02 
-1.016362e+02 
1.447363e+02 
-5.298167e+02 
1.397325e+03 
-1.592799e+03 
2.849360e+03 
-3.640134e+03 
3.472437e+03 
-2.558703e+03 
2.761368e+03 
-2.384596e+03 
2.128454e+03 
-6.323963e+02 
1.102631e+02 
1.443583e+02 
4.942098e+02 
-1.064937e+03 
2.644114e+03 
-2.498631e+03 
1.380314e+03 
5.906504e+01 
3.746424e+02 
-1.248946e+03 
1.432816e+03 
-1.037586e+03 
1.373605e+03 
-2.356594e+03 
1.988736e+03 
2.890016e+02 
-1.975736e+03 
1.144283e+03 
1.305699e+02 
5.789225e+02 
-1.013673e+03 
7.477962e+02 
9.371503e+02 
-2.241169e+02 
-6.509887e+02 
1.666708e+03 
5.377159e+02 
-3.494077e+02 
9.837810e+01 
1.780844e+03 
-6.185183e+02 
-7.232028e+01 
3.121062e+02 
8.506264e+02 
-6.950034e+02 
-4.893512e+02 
-3.016456e+02 
1.217487e+03 
-5.125125e+02 
6.441070e+02 
6.854678e+02 
-5.300491e+02 
1.244069e+03 
-3.997998e+02 
-3.537516e+02 
3.766726e+02 
-1.430270e+03 
6.371835e+02 
-1.061625e+03 
8.576593e+00 
5.557301e+02 
-1.491286e+03 
1.176065e+03 
1.862661e+02 
-8.592245e+02 
-5.676498e+01 
8.072499e+02 
1.560295e+02 
-6.589809e+02 
1.552513e+02 
-1.675345e+02 
1.856579e+03 
-1.950128e+03 
-3.256843e+02 
9.880169e+02 
-3.754270e+02 
2.465270e+02 
-8.269087e+02 
-4.779774e+02 
2.575283e+03 
-2.413623e+03 
1.186971e+03 
-1.394775e+03 
1.409459e+03 
1.942097e+02 
-1.054147e+03 
-1.378962e+02 
2.089051e+03 
-2.726406e+03 
2.872872e+03 
-1.980849e+03 
-2.732180e+02 
2.751386e+03 
-3.093488e+03 
2.730091e+03 
-2.819312e+03 
3.610529e+03 
-2.060538e+03 
5.070552e+02 
-7.958762e+02 
1.655366e+03 
-1.396419e+03 
1.077456e+03 
-1.325565e+03 
9.027148e+02 
9.175845e+02 
-2.161031e+03 
1.195725e+03 
7.588301e+02 
-1.645605e+03 
1.292161e+03 
-1.902614e+03 
2.123553e+03 
-1.741839e+03 
6.053852e+02 
-7.223144e+02 
8.139254e+02 
-1.260527e+03 
2.866689e+02 
1.044828e+02 
-3.522062e+02 
-7.489293e+02 
3.636290e+02 
1.376279e+03 
-1.203699e+03 
7.080278e+02 
4.457606e+02 
1.799717e+03 
-1.589963e+03 
1.428754e+03 
5.263058e+03 
-6.265475e+03 
2.439861e+03 
