# vtk DataFile Version 2.0
fY_Lag
ASCII
DATASET UNSTRUCTURED_GRID

FIELD FieldData 1
TIME 1 1 double
0.04000000
POINTS 310 float
1.021893480578561e+00 2.008621557295880e+00 0.000000000000000e+00
1.041890044163688e+00 2.017102984702904e+00 0.000000000000000e+00
1.062786367333008e+00 2.022895922138033e+00 0.000000000000000e+00
1.083712271346696e+00 2.028338853401896e+00 0.000000000000000e+00
1.102076055163348e+00 2.038524695131558e+00 0.000000000000000e+00
1.122131803420516e+00 2.047568562314150e+00 0.000000000000000e+00
1.141019299949668e+00 2.054833990447234e+00 0.000000000000000e+00
1.162267404004154e+00 2.062848511317858e+00 0.000000000000000e+00
1.181045430239908e+00 2.070561557786349e+00 0.000000000000000e+00
1.201803865707231e+00 2.078578664388732e+00 0.000000000000000e+00
1.222387381918645e+00 2.084149708945726e+00 0.000000000000000e+00
1.242122354226631e+00 2.090789515654473e+00 0.000000000000000e+00
1.262082818015289e+00 2.098262810457550e+00 0.000000000000000e+00
1.282958659466717e+00 2.105911919655033e+00 0.000000000000000e+00
1.304023174248467e+00 2.111597555500895e+00 0.000000000000000e+00
1.324116566443389e+00 2.118916272150251e+00 0.000000000000000e+00
1.345404703921148e+00 2.126352194434369e+00 0.000000000000000e+00
1.365422797795505e+00 2.130661582998157e+00 0.000000000000000e+00
1.385761268227017e+00 2.135145642334486e+00 0.000000000000000e+00
1.406093004788705e+00 2.141047396080744e+00 0.000000000000000e+00
1.426257477063452e+00 2.147564326095302e+00 0.000000000000000e+00
1.447147503250727e+00 2.152844655395450e+00 0.000000000000000e+00
1.468474404839313e+00 2.157513705892003e+00 0.000000000000000e+00
1.488956935019059e+00 2.162235475183994e+00 0.000000000000000e+00
1.510947174670299e+00 2.165940322954110e+00 0.000000000000000e+00
1.531433242742096e+00 2.170536461098095e+00 0.000000000000000e+00
1.552899887299520e+00 2.177553830931192e+00 0.000000000000000e+00
1.572971516903395e+00 2.181149311444335e+00 0.000000000000000e+00
1.595409767163380e+00 2.184710959762742e+00 0.000000000000000e+00
1.614646201377494e+00 2.190230173580740e+00 0.000000000000000e+00
1.636512518641561e+00 2.194896307400274e+00 0.000000000000000e+00
1.656783151955925e+00 2.193242131060711e+00 0.000000000000000e+00
1.678140388916726e+00 2.199319325048069e+00 0.000000000000000e+00
1.696280866728571e+00 2.205754828157275e+00 0.000000000000000e+00
1.718798927944819e+00 2.209045755734921e+00 0.000000000000000e+00
1.737768784640330e+00 2.215440615124360e+00 0.000000000000000e+00
1.758054266187737e+00 2.223698482240206e+00 0.000000000000000e+00
1.778013886233990e+00 2.219859457094675e+00 0.000000000000000e+00
1.799108451556435e+00 2.226330243774965e+00 0.000000000000000e+00
1.817420122134968e+00 2.232574739171780e+00 0.000000000000000e+00
1.839564782360759e+00 2.234773575745348e+00 0.000000000000000e+00
1.859032414261746e+00 2.238205749304058e+00 0.000000000000000e+00
1.880927626331151e+00 2.238054462526685e+00 0.000000000000000e+00
1.901323037461012e+00 2.235326950690874e+00 0.000000000000000e+00
1.921879213271026e+00 2.233102811468552e+00 0.000000000000000e+00
1.943078190711624e+00 2.234038400480327e+00 0.000000000000000e+00
1.961051867077507e+00 2.240243160604594e+00 0.000000000000000e+00
1.980120820462796e+00 2.231317450037988e+00 0.000000000000000e+00
2.001718771857038e+00 2.230439120943955e+00 0.000000000000000e+00
2.023025083853738e+00 2.230022364999631e+00 0.000000000000000e+00
2.044914744831250e+00 2.227917161177318e+00 0.000000000000000e+00
2.064315944213892e+00 2.222700724066696e+00 0.000000000000000e+00
2.084419996915099e+00 2.219492879035660e+00 0.000000000000000e+00
2.106558053529928e+00 2.221895201658718e+00 0.000000000000000e+00
2.126831614096106e+00 2.226295169567782e+00 0.000000000000000e+00
2.147834974743005e+00 2.223043063979924e+00 0.000000000000000e+00
2.169190282962901e+00 2.225347089774531e+00 0.000000000000000e+00
2.187123762456442e+00 2.237406504989119e+00 0.000000000000000e+00
2.206630593865913e+00 2.243811794941213e+00 0.000000000000000e+00
2.226922952343202e+00 2.245559110546685e+00 0.000000000000000e+00
2.248149630975950e+00 2.250935626246449e+00 0.000000000000000e+00
2.267908306631164e+00 2.258445396413931e+00 0.000000000000000e+00
2.288066448629611e+00 2.263003988365414e+00 0.000000000000000e+00
2.308909914964657e+00 2.263112912661072e+00 0.000000000000000e+00
2.331047799290021e+00 2.264602537443285e+00 0.000000000000000e+00
2.351574518351151e+00 2.266092804821681e+00 0.000000000000000e+00
2.373147898244602e+00 2.264968356710775e+00 0.000000000000000e+00
2.393865410095522e+00 2.260545803599185e+00 0.000000000000000e+00
2.414216360694261e+00 2.251465827522207e+00 0.000000000000000e+00
2.432232328117837e+00 2.243198598215228e+00 0.000000000000000e+00
2.450228423804937e+00 2.232226412050682e+00 0.000000000000000e+00
2.466654799619302e+00 2.218391987299736e+00 0.000000000000000e+00
2.482951521592833e+00 2.205723496009603e+00 0.000000000000000e+00
2.499928514766145e+00 2.192571309703770e+00 0.000000000000000e+00
2.516924587269382e+00 2.179264774426898e+00 0.000000000000000e+00
2.532957155309811e+00 2.165232292029907e+00 0.000000000000000e+00
2.549265360639542e+00 2.151189503932659e+00 0.000000000000000e+00
2.564251966680771e+00 2.136454521918898e+00 0.000000000000000e+00
2.578968674966476e+00 2.121587920994771e+00 0.000000000000000e+00
2.593649782551612e+00 2.106341674504213e+00 0.000000000000000e+00
2.608411613512164e+00 2.091614482694200e+00 0.000000000000000e+00
2.623226775707349e+00 2.076904336295712e+00 0.000000000000000e+00
2.638267125474825e+00 2.061642318113450e+00 0.000000000000000e+00
2.654502259676987e+00 2.047723707773895e+00 0.000000000000000e+00
2.670676511194771e+00 2.034394188095905e+00 0.000000000000000e+00
2.687541941920250e+00 2.021198876171641e+00 0.000000000000000e+00
2.704539243685350e+00 2.008207907841894e+00 0.000000000000000e+00
2.721493113613438e+00 1.995210770969073e+00 0.000000000000000e+00
2.738479310678211e+00 1.982450570156550e+00 0.000000000000000e+00
2.755305679655827e+00 1.969073025769894e+00 0.000000000000000e+00
2.771958701692124e+00 1.955810698899296e+00 0.000000000000000e+00
2.788493989920372e+00 1.943010727986575e+00 0.000000000000000e+00
2.805337164200830e+00 1.930547549668515e+00 0.000000000000000e+00
2.821922565570470e+00 1.918561227296783e+00 0.000000000000000e+00
2.839076117150949e+00 1.906090409024294e+00 0.000000000000000e+00
2.856506580691357e+00 1.894987483637290e+00 0.000000000000000e+00
2.874199654124473e+00 1.883568742325757e+00 0.000000000000000e+00
2.891357096857967e+00 1.872328863042069e+00 0.000000000000000e+00
2.909262519667947e+00 1.862315533522903e+00 0.000000000000000e+00
2.927758897476043e+00 1.853325174436237e+00 0.000000000000000e+00
2.946383106905748e+00 1.845318969338038e+00 0.000000000000000e+00
2.965883067024828e+00 1.838107569779415e+00 0.000000000000000e+00
2.984994416403852e+00 1.831086351816811e+00 0.000000000000000e+00
3.004922350214177e+00 1.824540824116367e+00 0.000000000000000e+00
3.023995178628326e+00 1.818793954593604e+00 0.000000000000000e+00
3.044040496349442e+00 1.813404750850032e+00 0.000000000000000e+00
3.063537303221155e+00 1.809111311850226e+00 0.000000000000000e+00
3.083380139899377e+00 1.805182818153024e+00 0.000000000000000e+00
3.103668261748786e+00 1.801929995715563e+00 0.000000000000000e+00
3.123865460955665e+00 1.798972085400604e+00 0.000000000000000e+00
3.144473006432034e+00 1.795687554678693e+00 0.000000000000000e+00
3.164345448862970e+00 1.791972824269194e+00 0.000000000000000e+00
3.184984065296161e+00 1.787586608560009e+00 0.000000000000000e+00
3.205543368446584e+00 1.782718769945403e+00 0.000000000000000e+00
3.226107815679587e+00 1.777247965854926e+00 0.000000000000000e+00
3.246412710630067e+00 1.771792081615864e+00 0.000000000000000e+00
3.267229784814152e+00 1.766568886315280e+00 0.000000000000000e+00
3.289215165133521e+00 1.762047979421346e+00 0.000000000000000e+00
3.309218667182549e+00 1.758392316660868e+00 0.000000000000000e+00
3.330917814120623e+00 1.756566607573266e+00 0.000000000000000e+00
3.352571271476411e+00 1.756919468798967e+00 0.000000000000000e+00
3.374390149168604e+00 1.758817623934030e+00 0.000000000000000e+00
3.395221116612766e+00 1.761745077638690e+00 0.000000000000000e+00
3.415907434368099e+00 1.766168565063132e+00 0.000000000000000e+00
3.436736890132714e+00 1.772723791450899e+00 0.000000000000000e+00
3.456787637549071e+00 1.780060945089535e+00 0.000000000000000e+00
3.476703207845650e+00 1.787708981379244e+00 0.000000000000000e+00
3.496278494076347e+00 1.795818511766488e+00 0.000000000000000e+00
3.515412918527215e+00 1.805264257414795e+00 0.000000000000000e+00
3.534073307799009e+00 1.816163590627799e+00 0.000000000000000e+00
3.552226492223337e+00 1.827501295754753e+00 0.000000000000000e+00
3.570200661025035e+00 1.839334263893429e+00 0.000000000000000e+00
3.587732551501458e+00 1.851586083341873e+00 0.000000000000000e+00
3.605043591942886e+00 1.864582760581710e+00 0.000000000000000e+00
3.621881007055638e+00 1.877968724674483e+00 0.000000000000000e+00
3.638155866463995e+00 1.891565623968927e+00 0.000000000000000e+00
3.653951047816943e+00 1.905257358347728e+00 0.000000000000000e+00
3.669807591565013e+00 1.918782205116072e+00 0.000000000000000e+00
3.686030826199522e+00 1.931786541515401e+00 0.000000000000000e+00
3.702712390056289e+00 1.944062829543543e+00 0.000000000000000e+00
3.719625884242737e+00 1.955911305182454e+00 0.000000000000000e+00
3.736911870073051e+00 1.967001965874905e+00 0.000000000000000e+00
3.754700731149523e+00 1.977218482383281e+00 0.000000000000000e+00
3.773030760782143e+00 1.986241174667586e+00 0.000000000000000e+00
3.791831872439755e+00 1.993854438166588e+00 0.000000000000000e+00
3.811201645319551e+00 2.000399749942048e+00 0.000000000000000e+00
3.830932184526981e+00 2.005354179298066e+00 0.000000000000000e+00
3.851136340356995e+00 2.008874250532846e+00 0.000000000000000e+00
3.872007480657403e+00 2.010974321346623e+00 0.000000000000000e+00
3.892398071448857e+00 2.012059911962382e+00 0.000000000000000e+00
3.912215974761009e+00 2.012026451589239e+00 0.000000000000000e+00
3.932338856309612e+00 2.010761698902826e+00 0.000000000000000e+00
3.952224579157190e+00 2.008067474901658e+00 0.000000000000000e+00
3.972319050315952e+00 2.004632094506466e+00 0.000000000000000e+00
3.991962222249423e+00 2.002866808541701e+00 0.000000000000000e+00
1.021893480578558e+00 2.991378442704120e+00 0.000000000000000e+00
1.041890044163683e+00 2.982897015297093e+00 0.000000000000000e+00
1.062786367333008e+00 2.977104077861961e+00 0.000000000000000e+00
1.083712271346686e+00 2.971661146598104e+00 0.000000000000000e+00
1.102076055163340e+00 2.961475304868431e+00 0.000000000000000e+00
1.122131803420506e+00 2.952431437685837e+00 0.000000000000000e+00
1.141019299949659e+00 2.945166009552755e+00 0.000000000000000e+00
1.162267404004147e+00 2.937151488682136e+00 0.000000000000000e+00
1.181045430239901e+00 2.929438442213635e+00 0.000000000000000e+00
1.201803865707224e+00 2.921421335611253e+00 0.000000000000000e+00
1.222387381918637e+00 2.915850291054253e+00 0.000000000000000e+00
1.242122354226622e+00 2.909210484345503e+00 0.000000000000000e+00
1.262082818015279e+00 2.901737189542427e+00 0.000000000000000e+00
1.282958659466710e+00 2.894088080344949e+00 0.000000000000000e+00
1.304023174248457e+00 2.888402444499082e+00 0.000000000000000e+00
1.324116566443377e+00 2.881083727849724e+00 0.000000000000000e+00
1.345404703921137e+00 2.873647805565607e+00 0.000000000000000e+00
1.365422797795495e+00 2.869338417001824e+00 0.000000000000000e+00
1.385761268227015e+00 2.864854357665507e+00 0.000000000000000e+00
1.406093004788703e+00 2.858952603919258e+00 0.000000000000000e+00
1.426257477063455e+00 2.852435673904706e+00 0.000000000000000e+00
1.447147503250731e+00 2.847155344604565e+00 0.000000000000000e+00
1.468474404839319e+00 2.842486294108025e+00 0.000000000000000e+00
1.488956935019068e+00 2.837764524816042e+00 0.000000000000000e+00
1.510947174670307e+00 2.834059677045924e+00 0.000000000000000e+00
1.531433242742106e+00 2.829463538901934e+00 0.000000000000000e+00
1.552899887299533e+00 2.822446169068843e+00 0.000000000000000e+00
1.572971516903411e+00 2.818850688555709e+00 0.000000000000000e+00
1.595409767163396e+00 2.815289040237305e+00 0.000000000000000e+00
1.614646201377510e+00 2.809769826419304e+00 0.000000000000000e+00
1.636512518641576e+00 2.805103692599770e+00 0.000000000000000e+00
1.656783151955940e+00 2.806757868939333e+00 0.000000000000000e+00
1.678140388916740e+00 2.800680674951973e+00 0.000000000000000e+00
1.696280866728587e+00 2.794245171842771e+00 0.000000000000000e+00
1.718798927944841e+00 2.790954244265118e+00 0.000000000000000e+00
1.737768784640343e+00 2.784559384875670e+00 0.000000000000000e+00
1.758054266187752e+00 2.776301517759814e+00 0.000000000000000e+00
1.778013886234001e+00 2.780140542905361e+00 0.000000000000000e+00
1.799108451556449e+00 2.773669756225069e+00 0.000000000000000e+00
1.817420122134980e+00 2.767425260828254e+00 0.000000000000000e+00
1.839564782360774e+00 2.765226424254696e+00 0.000000000000000e+00
1.859032414261757e+00 2.761794250695994e+00 0.000000000000000e+00
1.880927626331160e+00 2.761945537473367e+00 0.000000000000000e+00
1.901323037461019e+00 2.764673049309183e+00 0.000000000000000e+00
1.921879213271036e+00 2.766897188531503e+00 0.000000000000000e+00
1.943078190711629e+00 2.765961599519720e+00 0.000000000000000e+00
1.961051867077521e+00 2.759756839395462e+00 0.000000000000000e+00
1.980120820462820e+00 2.768682549962056e+00 0.000000000000000e+00
2.001718771857058e+00 2.769560879056092e+00 0.000000000000000e+00
2.023025083853756e+00 2.769977635000417e+00 0.000000000000000e+00
2.044914744831269e+00 2.772082838822720e+00 0.000000000000000e+00
2.064315944213915e+00 2.777299275933334e+00 0.000000000000000e+00
2.084419996915117e+00 2.780507120964371e+00 0.000000000000000e+00
2.106558053529946e+00 2.778104798341302e+00 0.000000000000000e+00
2.126831614096125e+00 2.773704830432228e+00 0.000000000000000e+00
2.147834974743025e+00 2.776956936020080e+00 0.000000000000000e+00
2.169190282962919e+00 2.774652910225477e+00 0.000000000000000e+00
2.187123762456462e+00 2.762593495010887e+00 0.000000000000000e+00
2.206630593865933e+00 2.756188205058792e+00 0.000000000000000e+00
2.226922952343223e+00 2.754440889453321e+00 0.000000000000000e+00
2.248149630975969e+00 2.749064373753544e+00 0.000000000000000e+00
2.267908306631185e+00 2.741554603586063e+00 0.000000000000000e+00
2.288066448629629e+00 2.736996011634574e+00 0.000000000000000e+00
2.308909914964679e+00 2.736887087338916e+00 0.000000000000000e+00
2.331047799290041e+00 2.735397462556702e+00 0.000000000000000e+00
2.351574518351169e+00 2.733907195178304e+00 0.000000000000000e+00
2.373147898244620e+00 2.735031643289214e+00 0.000000000000000e+00
2.393865410095537e+00 2.739454196400808e+00 0.000000000000000e+00
2.414216360694276e+00 2.748534172477788e+00 0.000000000000000e+00
2.432232328117849e+00 2.756801401784767e+00 0.000000000000000e+00
2.450228423804950e+00 2.767773587949311e+00 0.000000000000000e+00
2.466654799619314e+00 2.781608012700257e+00 0.000000000000000e+00
2.482951521592847e+00 2.794276503990396e+00 0.000000000000000e+00
2.499928514766158e+00 2.807428690296220e+00 0.000000000000000e+00
2.516924587269397e+00 2.820735225573098e+00 0.000000000000000e+00
2.532957155309825e+00 2.834767707970085e+00 0.000000000000000e+00
2.549265360639557e+00 2.848810496067333e+00 0.000000000000000e+00
2.564251966680785e+00 2.863545478081095e+00 0.000000000000000e+00
2.578968674966491e+00 2.878412079005222e+00 0.000000000000000e+00
2.593649782551628e+00 2.893658325495780e+00 0.000000000000000e+00
2.608411613512176e+00 2.908385517305793e+00 0.000000000000000e+00
2.623226775707361e+00 2.923095663704281e+00 0.000000000000000e+00
2.638267125474836e+00 2.938357681886545e+00 0.000000000000000e+00
2.654502259676999e+00 2.952276292226099e+00 0.000000000000000e+00
2.670676511194782e+00 2.965605811904087e+00 0.000000000000000e+00
2.687541941920260e+00 2.978801123828353e+00 0.000000000000000e+00
2.704539243685360e+00 2.991792092158097e+00 0.000000000000000e+00
2.721493113613447e+00 3.004789229030920e+00 0.000000000000000e+00
2.738479310678220e+00 3.017549429843444e+00 0.000000000000000e+00
2.755305679655836e+00 3.030926974230097e+00 0.000000000000000e+00
2.771958701692134e+00 3.044189301100699e+00 0.000000000000000e+00
2.788493989920379e+00 3.056989272013417e+00 0.000000000000000e+00
2.805337164200838e+00 3.069452450331478e+00 0.000000000000000e+00
2.821922565570477e+00 3.081438772703208e+00 0.000000000000000e+00
2.839076117150954e+00 3.093909590975700e+00 0.000000000000000e+00
2.856506580691357e+00 3.105012516362705e+00 0.000000000000000e+00
2.874199654124476e+00 3.116431257674238e+00 0.000000000000000e+00
2.891357096857968e+00 3.127671136957926e+00 0.000000000000000e+00
2.909262519667946e+00 3.137684466477093e+00 0.000000000000000e+00
2.927758897476044e+00 3.146674825563759e+00 0.000000000000000e+00
2.946383106905747e+00 3.154681030661957e+00 0.000000000000000e+00
2.965883067024830e+00 3.161892430220579e+00 0.000000000000000e+00
2.984994416403847e+00 3.168913648183183e+00 0.000000000000000e+00
3.004922350214179e+00 3.175459175883626e+00 0.000000000000000e+00
3.023995178628327e+00 3.181206045406386e+00 0.000000000000000e+00
3.044040496349441e+00 3.186595249149959e+00 0.000000000000000e+00
3.063537303221154e+00 3.190888688149765e+00 0.000000000000000e+00
3.083380139899377e+00 3.194817181846967e+00 0.000000000000000e+00
3.103668261748791e+00 3.198070004284425e+00 0.000000000000000e+00
3.123865460955662e+00 3.201027914599384e+00 0.000000000000000e+00
3.144473006432032e+00 3.204312445321297e+00 0.000000000000000e+00
3.164345448862973e+00 3.208027175730795e+00 0.000000000000000e+00
3.184984065296161e+00 3.212413391439984e+00 0.000000000000000e+00
3.205543368446576e+00 3.217281230054592e+00 0.000000000000000e+00
3.226107815679585e+00 3.222752034145068e+00 0.000000000000000e+00
3.246412710630065e+00 3.228207918384131e+00 0.000000000000000e+00
3.267229784814148e+00 3.233431113684718e+00 0.000000000000000e+00
3.289215165133507e+00 3.237952020578655e+00 0.000000000000000e+00
3.309218667182554e+00 3.241607683339129e+00 0.000000000000000e+00
3.330917814120618e+00 3.243433392426735e+00 0.000000000000000e+00
3.352571271476412e+00 3.243080531201036e+00 0.000000000000000e+00
3.374390149168605e+00 3.241182376065976e+00 0.000000000000000e+00
3.395221116612763e+00 3.238254922361321e+00 0.000000000000000e+00
3.415907434368099e+00 3.233831434936876e+00 0.000000000000000e+00
3.436736890132712e+00 3.227276208549111e+00 0.000000000000000e+00
3.456787637549072e+00 3.219939054910473e+00 0.000000000000000e+00
3.476703207845650e+00 3.212291018620765e+00 0.000000000000000e+00
3.496278494076347e+00 3.204181488233519e+00 0.000000000000000e+00
3.515412918527214e+00 3.194735742585209e+00 0.000000000000000e+00
3.534073307799007e+00 3.183836409372203e+00 0.000000000000000e+00
3.552226492223334e+00 3.172498704245250e+00 0.000000000000000e+00
3.570200661025030e+00 3.160665736106573e+00 0.000000000000000e+00
3.587732551501454e+00 3.148413916658128e+00 0.000000000000000e+00
3.605043591942881e+00 3.135417239418290e+00 0.000000000000000e+00
3.621881007055634e+00 3.122031275325517e+00 0.000000000000000e+00
3.638155866463992e+00 3.108434376031074e+00 0.000000000000000e+00
3.653951047816941e+00 3.094742641652275e+00 0.000000000000000e+00
3.669807591565011e+00 3.081217794883932e+00 0.000000000000000e+00
3.686030826199520e+00 3.068213458484604e+00 0.000000000000000e+00
3.702712390056287e+00 3.055937170456464e+00 0.000000000000000e+00
3.719625884242737e+00 3.044088694817553e+00 0.000000000000000e+00
3.736911870073048e+00 3.032998034125104e+00 0.000000000000000e+00
3.754700731149524e+00 3.022781517616727e+00 0.000000000000000e+00
3.773030760782138e+00 3.013758825332422e+00 0.000000000000000e+00
3.791831872439755e+00 3.006145561833419e+00 0.000000000000000e+00
3.811201645319547e+00 2.999600250057957e+00 0.000000000000000e+00
3.830932184526979e+00 2.994645820701941e+00 0.000000000000000e+00
3.851136340356993e+00 2.991125749467159e+00 0.000000000000000e+00
3.872007480657398e+00 2.989025678653380e+00 0.000000000000000e+00
3.892398071448853e+00 2.987940088037620e+00 0.000000000000000e+00
3.912215974761006e+00 2.987973548410762e+00 0.000000000000000e+00
3.932338856309610e+00 2.989238301097173e+00 0.000000000000000e+00
3.952224579157185e+00 2.991932525098344e+00 0.000000000000000e+00
3.972319050315948e+00 2.995367905493536e+00 0.000000000000000e+00
3.991962222249419e+00 2.997133191458301e+00 0.000000000000000e+00

POINT_DATA   310
SCALARS fY_Lag double
LOOKUP_TABLE default

7.889378e+02 
-3.416749e+03 
-6.755837e+02 
2.277082e+03 
3.370863e+03 
-6.912208e+03 
8.167969e+03 
-8.157851e+03 
6.405730e+03 
-5.403878e+03 
-2.856603e+02 
2.587123e+03 
2.681833e+03 
-3.877470e+03 
-5.033135e+02 
3.395492e+03 
-7.379917e+03 
1.478028e+03 
2.855089e+03 
6.628457e+02 
-1.067641e+03 
-6.607514e+02 
-1.743251e+03 
1.101631e+03 
-1.020592e+03 
5.925558e+03 
-7.915486e+03 
3.193856e+03 
-3.477310e+03 
3.906031e+03 
-5.729141e+03 
7.536804e+03 
-7.472773e+03 
6.177504e+03 
-2.712655e+03 
7.301071e+03 
-1.200896e+04 
1.006125e+04 
-7.578799e+03 
2.956609e+03 
-2.486555e+03 
-7.782651e+02 
-1.702736e+03 
3.906663e+02 
1.963226e+03 
-3.219037e+03 
-3.086372e+03 
4.919735e+03 
3.861307e+02 
-2.568795e+03 
6.376994e+02 
-2.872883e+02 
4.384101e+03 
7.044715e+02 
-5.168167e+03 
5.185409e+03 
1.143093e+04 
-9.604847e+03 
-2.815042e+03 
5.791209e+03 
-7.974984e+01 
-3.761071e+03 
-2.934330e+03 
3.317676e+03 
4.841629e+02 
-4.035568e+02 
-1.556148e+03 
-6.995186e+03 
1.161525e+04 
-4.108150e+03 
-4.330818e+03 
6.032189e+03 
-4.887266e+03 
-8.268722e+02 
7.392989e+02 
-1.608548e+03 
2.704447e+03 
6.627673e+02 
-1.680317e+03 
2.479362e+03 
-1.728772e+01 
-4.480005e+03 
1.288580e+03 
2.634387e+03 
-2.617548e+03 
3.876749e+02 
3.303500e+02 
9.702786e+02 
-2.090653e+03 
1.249080e+03 
2.551998e+03 
1.063544e+02 
3.180641e+03 
-4.672420e+03 
3.634044e+03 
-2.456509e+03 
2.455541e+03 
7.144371e+02 
7.225835e+02 
2.099960e+03 
-8.881847e+02 
1.779761e+03 
-1.506290e+03 
3.383276e+03 
-2.024786e+03 
2.347877e+03 
-2.668230e+02 
-1.758242e+02 
2.771992e+02 
-9.918628e+02 
6.257947e+02 
-2.190080e+03 
-4.014431e+02 
-7.914477e+02 
6.643714e+02 
-7.233536e+02 
-9.671974e+02 
4.547890e+03 
2.692470e+02 
2.715156e+03 
2.130766e+03 
-1.708532e+02 
1.392194e+03 
3.655654e+03 
-7.783062e+02 
1.239485e+02 
-3.242434e+02 
1.874811e+03 
2.602128e+03 
-4.269227e+02 
6.930110e+02 
-6.035176e+02 
1.476999e+03 
-1.053653e+03 
-1.699768e+03 
-1.480411e+03 
-3.383308e+02 
2.277017e+02 
-4.948356e+02 
-1.108468e+02 
-6.217285e+02 
-4.841828e+02 
-8.763924e+02 
-1.162491e+03 
6.971177e+01 
-1.249671e+03 
-7.764763e+02 
-7.067327e+02 
-1.211452e+03 
-6.051808e+02 
-5.647756e+02 
-5.078302e+02 
-9.659831e+02 
1.333796e+03 
-3.067441e+03 
-7.889378e+02 
3.416749e+03 
6.755837e+02 
-2.277082e+03 
-3.370863e+03 
6.912208e+03 
-8.167969e+03 
8.157851e+03 
-6.405730e+03 
5.403878e+03 
2.856603e+02 
-2.587123e+03 
-2.681833e+03 
3.877470e+03 
5.033135e+02 
-3.395492e+03 
7.379917e+03 
-1.478028e+03 
-2.855089e+03 
-6.628457e+02 
1.067641e+03 
6.607514e+02 
1.743251e+03 
-1.101631e+03 
1.020592e+03 
-5.925558e+03 
7.915486e+03 
-3.193856e+03 
3.477310e+03 
-3.906031e+03 
5.729141e+03 
-7.536804e+03 
7.472773e+03 
-6.177504e+03 
2.712655e+03 
-7.301071e+03 
1.200896e+04 
-1.006125e+04 
7.578799e+03 
-2.956609e+03 
2.486555e+03 
7.782651e+02 
1.702736e+03 
-3.906663e+02 
-1.963226e+03 
3.219037e+03 
3.086372e+03 
-4.919735e+03 
-3.861307e+02 
2.568795e+03 
-6.376994e+02 
2.872883e+02 
-4.384101e+03 
-7.044715e+02 
5.168167e+03 
-5.185409e+03 
-1.143093e+04 
9.604847e+03 
2.815042e+03 
-5.791209e+03 
7.974984e+01 
3.761071e+03 
2.934330e+03 
-3.317676e+03 
-4.841629e+02 
4.035568e+02 
1.556148e+03 
6.995186e+03 
-1.161525e+04 
4.108150e+03 
4.330818e+03 
-6.032189e+03 
4.887266e+03 
8.268722e+02 
-7.392989e+02 
1.608548e+03 
-2.704447e+03 
-6.627673e+02 
1.680317e+03 
-2.479362e+03 
1.728772e+01 
4.480005e+03 
-1.288580e+03 
-2.634387e+03 
2.617548e+03 
-3.876749e+02 
-3.303500e+02 
-9.702786e+02 
2.090653e+03 
-1.249080e+03 
-2.551998e+03 
-1.063544e+02 
-3.180641e+03 
4.672420e+03 
-3.634044e+03 
2.456509e+03 
-2.455541e+03 
-7.144371e+02 
-7.225835e+02 
-2.099960e+03 
8.881847e+02 
-1.779761e+03 
1.506290e+03 
-3.383276e+03 
2.024786e+03 
-2.347877e+03 
2.668230e+02 
1.758242e+02 
-2.771992e+02 
9.918628e+02 
-6.257947e+02 
2.190080e+03 
4.014431e+02 
7.914477e+02 
-6.643714e+02 
7.233536e+02 
9.671974e+02 
-4.547890e+03 
-2.692470e+02 
-2.715156e+03 
-2.130766e+03 
1.708532e+02 
-1.392194e+03 
-3.655654e+03 
7.783062e+02 
-1.239485e+02 
3.242434e+02 
-1.874811e+03 
-2.602128e+03 
4.269227e+02 
-6.930110e+02 
6.035176e+02 
-1.476999e+03 
1.053653e+03 
1.699768e+03 
1.480411e+03 
3.383308e+02 
-2.277017e+02 
4.948356e+02 
1.108468e+02 
6.217285e+02 
4.841828e+02 
8.763924e+02 
1.162491e+03 
-6.971177e+01 
1.249671e+03 
7.764763e+02 
7.067327e+02 
1.211452e+03 
6.051808e+02 
5.647756e+02 
5.078302e+02 
9.659831e+02 
-1.333796e+03 
3.067441e+03 
