# vtk DataFile Version 2.0
fY_Lag
ASCII
DATASET UNSTRUCTURED_GRID

FIELD FieldData 1
TIME 1 1 double
0.18000000
POINTS 310 float
1.008804038127627e+00 2.004118862501957e+00 0.000000000000000e+00
1.027435886254545e+00 2.012944977780820e+00 0.000000000000000e+00
1.046175654359818e+00 2.020558196880535e+00 0.000000000000000e+00
1.065175608579576e+00 2.028749881612563e+00 0.000000000000000e+00
1.083457422317177e+00 2.037949806649560e+00 0.000000000000000e+00
1.102525067624950e+00 2.045919447842618e+00 0.000000000000000e+00
1.121501098247668e+00 2.052999070922263e+00 0.000000000000000e+00
1.140400341871219e+00 2.061050768450719e+00 0.000000000000000e+00
1.159811698846246e+00 2.068199987997296e+00 0.000000000000000e+00
1.178428176179583e+00 2.076664354174305e+00 0.000000000000000e+00
1.198135851944687e+00 2.082631008891401e+00 0.000000000000000e+00
1.217231388149732e+00 2.090031493105337e+00 0.000000000000000e+00
1.236904575212690e+00 2.095860576805107e+00 0.000000000000000e+00
1.256058524703267e+00 2.103191536676230e+00 0.000000000000000e+00
1.276024185175633e+00 2.108747458675055e+00 0.000000000000000e+00
1.295317345364454e+00 2.114906376221503e+00 0.000000000000000e+00
1.315488516941440e+00 2.120373496087949e+00 0.000000000000000e+00
1.335174166044777e+00 2.125406861277558e+00 0.000000000000000e+00
1.355112496320045e+00 2.130826943680735e+00 0.000000000000000e+00
1.375190566252013e+00 2.135068722483419e+00 0.000000000000000e+00
1.395240913749741e+00 2.139647124053408e+00 0.000000000000000e+00
1.415397730634327e+00 2.143738705231961e+00 0.000000000000000e+00
1.435583010749018e+00 2.147969374516923e+00 0.000000000000000e+00
1.455604752915711e+00 2.151363510603983e+00 0.000000000000000e+00
1.476306984930461e+00 2.154696046326437e+00 0.000000000000000e+00
1.496121603727441e+00 2.158228577218715e+00 0.000000000000000e+00
1.516807689627188e+00 2.161691687995409e+00 0.000000000000000e+00
1.536693729406468e+00 2.164669506675940e+00 0.000000000000000e+00
1.557533090726087e+00 2.167547057250195e+00 0.000000000000000e+00
1.577695659214595e+00 2.169810436381793e+00 0.000000000000000e+00
1.597795683958063e+00 2.174190771768270e+00 0.000000000000000e+00
1.618334411755021e+00 2.176302520278115e+00 0.000000000000000e+00
1.638713923592350e+00 2.179960055983511e+00 0.000000000000000e+00
1.658579643495819e+00 2.184019688466553e+00 0.000000000000000e+00
1.679307046058880e+00 2.186925232798443e+00 0.000000000000000e+00
1.699456877491983e+00 2.190558855634655e+00 0.000000000000000e+00
1.718973413143017e+00 2.197290981372873e+00 0.000000000000000e+00
1.739706764175533e+00 2.197695525592335e+00 0.000000000000000e+00
1.759394682496393e+00 2.204241803078186e+00 0.000000000000000e+00
1.779263330997523e+00 2.209228492349758e+00 0.000000000000000e+00
1.799936144408805e+00 2.212472608911791e+00 0.000000000000000e+00
1.819545470485466e+00 2.217953897817468e+00 0.000000000000000e+00
1.839850847278489e+00 2.223453434181415e+00 0.000000000000000e+00
1.859771567262982e+00 2.227995621968277e+00 0.000000000000000e+00
1.880138048490024e+00 2.232633301887773e+00 0.000000000000000e+00
1.900561909230167e+00 2.235691783948963e+00 0.000000000000000e+00
1.919493775379780e+00 2.244382335678242e+00 0.000000000000000e+00
1.940123625083883e+00 2.247509844771549e+00 0.000000000000000e+00
1.959848329078646e+00 2.253382965295232e+00 0.000000000000000e+00
1.979850133607314e+00 2.259561250655894e+00 0.000000000000000e+00
1.999171084363372e+00 2.267144516246571e+00 0.000000000000000e+00
2.019340979855840e+00 2.271844615756653e+00 0.000000000000000e+00
2.039289129298377e+00 2.277889954202782e+00 0.000000000000000e+00
2.058869560881616e+00 2.284657289563234e+00 0.000000000000000e+00
2.077982374724600e+00 2.292985840666205e+00 0.000000000000000e+00
2.098104205309003e+00 2.297723399399506e+00 0.000000000000000e+00
2.117731771144181e+00 2.304720083908313e+00 0.000000000000000e+00
2.136013806507736e+00 2.314935637885619e+00 0.000000000000000e+00
2.155680986372591e+00 2.321492287673766e+00 0.000000000000000e+00
2.175242183548163e+00 2.327824602867288e+00 0.000000000000000e+00
2.194689642940763e+00 2.336259698612404e+00 0.000000000000000e+00
2.212860958181893e+00 2.345337888473241e+00 0.000000000000000e+00
2.232507800917131e+00 2.353028901769737e+00 0.000000000000000e+00
2.252091582024603e+00 2.358113765338207e+00 0.000000000000000e+00
2.271570872305831e+00 2.366328818425930e+00 0.000000000000000e+00
2.290616892889844e+00 2.374595104922622e+00 0.000000000000000e+00
2.310713220594473e+00 2.379507801112778e+00 0.000000000000000e+00
2.330841122164266e+00 2.384422626779126e+00 0.000000000000000e+00
2.351338777422976e+00 2.389795807266431e+00 0.000000000000000e+00
2.370624064710934e+00 2.395174741050874e+00 0.000000000000000e+00
2.391434697146138e+00 2.398126512567622e+00 0.000000000000000e+00
2.412370315741265e+00 2.400776045230470e+00 0.000000000000000e+00
2.432471473518031e+00 2.404764086825154e+00 0.000000000000000e+00
2.452925268958224e+00 2.408095300021337e+00 0.000000000000000e+00
2.473661771192140e+00 2.410333161030445e+00 0.000000000000000e+00
2.494599374930340e+00 2.412546333358350e+00 0.000000000000000e+00
2.514656765862542e+00 2.415206449784040e+00 0.000000000000000e+00
2.535639862797443e+00 2.416824409064027e+00 0.000000000000000e+00
2.556681309407623e+00 2.418073759059304e+00 0.000000000000000e+00
2.576764558450401e+00 2.419454921153447e+00 0.000000000000000e+00
2.598071142962228e+00 2.420451380110160e+00 0.000000000000000e+00
2.617959660303622e+00 2.422476910813062e+00 0.000000000000000e+00
2.639213849152199e+00 2.422240029075388e+00 0.000000000000000e+00
2.660370597080345e+00 2.422225121135914e+00 0.000000000000000e+00
2.679864583045352e+00 2.424814289164007e+00 0.000000000000000e+00
2.701392028129096e+00 2.425537863008048e+00 0.000000000000000e+00
2.721836503460324e+00 2.424837019616173e+00 0.000000000000000e+00
2.742637450071439e+00 2.425176557328145e+00 0.000000000000000e+00
2.763084888226469e+00 2.427178168892524e+00 0.000000000000000e+00
2.784185432560087e+00 2.426587882168402e+00 0.000000000000000e+00
2.804885590378253e+00 2.426873942356773e+00 0.000000000000000e+00
2.825274415522595e+00 2.426695081057963e+00 0.000000000000000e+00
2.845714074147580e+00 2.426570569815612e+00 0.000000000000000e+00
2.866732399509872e+00 2.425946517179432e+00 0.000000000000000e+00
2.887214570010144e+00 2.423853476732084e+00 0.000000000000000e+00
2.907239947768468e+00 2.422721219071894e+00 0.000000000000000e+00
2.928257034518653e+00 2.420773646460295e+00 0.000000000000000e+00
2.947782406367978e+00 2.417022677558329e+00 0.000000000000000e+00
2.968957127320365e+00 2.413299695802865e+00 0.000000000000000e+00
2.988333765459110e+00 2.408950913914473e+00 0.000000000000000e+00
3.008188934945071e+00 2.404645553319501e+00 0.000000000000000e+00
3.029088163259177e+00 2.399945329350810e+00 0.000000000000000e+00
3.047591218332256e+00 2.394369228932700e+00 0.000000000000000e+00
3.068317430941736e+00 2.389472589272651e+00 0.000000000000000e+00
3.088161479662889e+00 2.383722508375963e+00 0.000000000000000e+00
3.107031949396981e+00 2.377575921106458e+00 0.000000000000000e+00
3.126933252733949e+00 2.370078999001615e+00 0.000000000000000e+00
3.144506044631237e+00 2.361487129607330e+00 0.000000000000000e+00
3.164495487205773e+00 2.354773580926290e+00 0.000000000000000e+00
3.183691201052319e+00 2.347741209085377e+00 0.000000000000000e+00
3.202429357407577e+00 2.339850648205314e+00 0.000000000000000e+00
3.221641941865455e+00 2.331762983003969e+00 0.000000000000000e+00
3.239355171092103e+00 2.322273755764523e+00 0.000000000000000e+00
3.257612195296965e+00 2.312982326068713e+00 0.000000000000000e+00
3.275138723677688e+00 2.302565457416786e+00 0.000000000000000e+00
3.291590331072956e+00 2.290495595140221e+00 0.000000000000000e+00
3.308103629745327e+00 2.277996180786270e+00 0.000000000000000e+00
3.323954797447072e+00 2.265063547920445e+00 0.000000000000000e+00
3.339176333464981e+00 2.252413588130405e+00 0.000000000000000e+00
3.354290900115072e+00 2.237771241654196e+00 0.000000000000000e+00
3.368378741604773e+00 2.223018156333603e+00 0.000000000000000e+00
3.383017209880266e+00 2.208729422774950e+00 0.000000000000000e+00
3.397339293622025e+00 2.194416208698702e+00 0.000000000000000e+00
3.411430091390184e+00 2.179421805391842e+00 0.000000000000000e+00
3.425304744910234e+00 2.164135770993110e+00 0.000000000000000e+00
3.439899235117576e+00 2.149937935820874e+00 0.000000000000000e+00
3.455269329228783e+00 2.137083516686284e+00 0.000000000000000e+00
3.470818445973265e+00 2.123154307316752e+00 0.000000000000000e+00
3.485642613314314e+00 2.109213416000690e+00 0.000000000000000e+00
3.502917851025599e+00 2.098202416908033e+00 0.000000000000000e+00
3.519137030031364e+00 2.086629246371974e+00 0.000000000000000e+00
3.537051329125830e+00 2.075048414255024e+00 0.000000000000000e+00
3.553632698201984e+00 2.064497148056486e+00 0.000000000000000e+00
3.572186022774753e+00 2.055061936086411e+00 0.000000000000000e+00
3.591339605264169e+00 2.049419835864347e+00 0.000000000000000e+00
3.609778262218212e+00 2.041312011791107e+00 0.000000000000000e+00
3.629506864120699e+00 2.034373657513804e+00 0.000000000000000e+00
3.648916346343888e+00 2.029506887972292e+00 0.000000000000000e+00
3.668717081457022e+00 2.024697234461452e+00 0.000000000000000e+00
3.688338427517924e+00 2.020770428504835e+00 0.000000000000000e+00
3.708683407171555e+00 2.017238464086605e+00 0.000000000000000e+00
3.728821517091307e+00 2.014898605362015e+00 0.000000000000000e+00
3.748815287440848e+00 2.011705514290499e+00 0.000000000000000e+00
3.768726071038031e+00 2.009046113028451e+00 0.000000000000000e+00
3.789463916376807e+00 2.008653233979166e+00 0.000000000000000e+00
3.809467664630506e+00 2.007129130204142e+00 0.000000000000000e+00
3.829629169796653e+00 2.003861298117010e+00 0.000000000000000e+00
3.849843602102820e+00 2.004904415314636e+00 0.000000000000000e+00
3.870802927978618e+00 2.005734266376979e+00 0.000000000000000e+00
3.890558999513146e+00 2.003505343477776e+00 0.000000000000000e+00
3.910474505123321e+00 2.001629563556186e+00 0.000000000000000e+00
3.931458880177749e+00 2.003065943422377e+00 0.000000000000000e+00
3.951860333984023e+00 2.003699580839441e+00 0.000000000000000e+00
3.971285430276320e+00 1.998891461633322e+00 0.000000000000000e+00
3.991767601398208e+00 2.000766196889220e+00 0.000000000000000e+00
1.008804038127624e+00 2.995881137498043e+00 0.000000000000000e+00
1.027435886254543e+00 2.987055022219181e+00 0.000000000000000e+00
1.046175654359816e+00 2.979441803119469e+00 0.000000000000000e+00
1.065175608579575e+00 2.971250118387440e+00 0.000000000000000e+00
1.083457422317175e+00 2.962050193350446e+00 0.000000000000000e+00
1.102525067624953e+00 2.954080552157391e+00 0.000000000000000e+00
1.121501098247665e+00 2.947000929077748e+00 0.000000000000000e+00
1.140400341871221e+00 2.938949231549293e+00 0.000000000000000e+00
1.159811698846248e+00 2.931800012002724e+00 0.000000000000000e+00
1.178428176179585e+00 2.923335645825713e+00 0.000000000000000e+00
1.198135851944689e+00 2.917368991108615e+00 0.000000000000000e+00
1.217231388149731e+00 2.909968506894677e+00 0.000000000000000e+00
1.236904575212690e+00 2.904139423194910e+00 0.000000000000000e+00
1.256058524703265e+00 2.896808463323789e+00 0.000000000000000e+00
1.276024185175632e+00 2.891252541324957e+00 0.000000000000000e+00
1.295317345364451e+00 2.885093623778514e+00 0.000000000000000e+00
1.315488516941438e+00 2.879626503912069e+00 0.000000000000000e+00
1.335174166044775e+00 2.874593138722463e+00 0.000000000000000e+00
1.355112496320042e+00 2.869173056319285e+00 0.000000000000000e+00
1.375190566252008e+00 2.864931277516605e+00 0.000000000000000e+00
1.395240913749743e+00 2.860352875946620e+00 0.000000000000000e+00
1.415397730634320e+00 2.856261294768061e+00 0.000000000000000e+00
1.435583010749019e+00 2.852030625483111e+00 0.000000000000000e+00
1.455604752915708e+00 2.848636489396048e+00 0.000000000000000e+00
1.476306984930457e+00 2.845303953673596e+00 0.000000000000000e+00
1.496121603727440e+00 2.841771422781325e+00 0.000000000000000e+00
1.516807689627184e+00 2.838308312004631e+00 0.000000000000000e+00
1.536693729406466e+00 2.835330493324102e+00 0.000000000000000e+00
1.557533090726085e+00 2.832452942749850e+00 0.000000000000000e+00
1.577695659214592e+00 2.830189563618251e+00 0.000000000000000e+00
1.597795683958062e+00 2.825809228231779e+00 0.000000000000000e+00
1.618334411755019e+00 2.823697479721934e+00 0.000000000000000e+00
1.638713923592349e+00 2.820039944016542e+00 0.000000000000000e+00
1.658579643495818e+00 2.815980311533500e+00 0.000000000000000e+00
1.679307046058879e+00 2.813074767201609e+00 0.000000000000000e+00
1.699456877491982e+00 2.809441144365402e+00 0.000000000000000e+00
1.718973413143018e+00 2.802709018627185e+00 0.000000000000000e+00
1.739706764175533e+00 2.802304474407729e+00 0.000000000000000e+00
1.759394682496390e+00 2.795758196921871e+00 0.000000000000000e+00
1.779263330997521e+00 2.790771507650299e+00 0.000000000000000e+00
1.799936144408802e+00 2.787527391088269e+00 0.000000000000000e+00
1.819545470485461e+00 2.782046102182586e+00 0.000000000000000e+00
1.839850847278484e+00 2.776546565818639e+00 0.000000000000000e+00
1.859771567262974e+00 2.772004378031773e+00 0.000000000000000e+00
1.880138048490017e+00 2.767366698112275e+00 0.000000000000000e+00
1.900561909230160e+00 2.764308216051091e+00 0.000000000000000e+00
1.919493775379769e+00 2.755617664321805e+00 0.000000000000000e+00
1.940123625083871e+00 2.752490155228489e+00 0.000000000000000e+00
1.959848329078634e+00 2.746617034704809e+00 0.000000000000000e+00
1.979850133607303e+00 2.740438749344148e+00 0.000000000000000e+00
1.999171084363357e+00 2.732855483753464e+00 0.000000000000000e+00
2.019340979855826e+00 2.728155384243384e+00 0.000000000000000e+00
2.039289129298362e+00 2.722110045797256e+00 0.000000000000000e+00
2.058869560881600e+00 2.715342710436799e+00 0.000000000000000e+00
2.077982374724586e+00 2.707014159333832e+00 0.000000000000000e+00
2.098104205308989e+00 2.702276600600527e+00 0.000000000000000e+00
2.117731771144169e+00 2.695279916091721e+00 0.000000000000000e+00
2.136013806507726e+00 2.685064362114420e+00 0.000000000000000e+00
2.155680986372579e+00 2.678507712326270e+00 0.000000000000000e+00
2.175242183548157e+00 2.672175397132762e+00 0.000000000000000e+00
2.194689642940754e+00 2.663740301387643e+00 0.000000000000000e+00
2.212860958181888e+00 2.654662111526810e+00 0.000000000000000e+00
2.232507800917128e+00 2.646971098230325e+00 0.000000000000000e+00
2.252091582024599e+00 2.641886234661849e+00 0.000000000000000e+00
2.271570872305825e+00 2.633671181574122e+00 0.000000000000000e+00
2.290616892889843e+00 2.625404895077436e+00 0.000000000000000e+00
2.310713220594472e+00 2.620492198887290e+00 0.000000000000000e+00
2.330841122164265e+00 2.615577373220936e+00 0.000000000000000e+00
2.351338777422977e+00 2.610204192733629e+00 0.000000000000000e+00
2.370624064710930e+00 2.604825258949190e+00 0.000000000000000e+00
2.391434697146139e+00 2.601873487432447e+00 0.000000000000000e+00
2.412370315741262e+00 2.599223954769597e+00 0.000000000000000e+00
2.432471473518028e+00 2.595235913174906e+00 0.000000000000000e+00
2.452925268958221e+00 2.591904699978728e+00 0.000000000000000e+00
2.473661771192142e+00 2.589666838969614e+00 0.000000000000000e+00
2.494599374930333e+00 2.587453666641706e+00 0.000000000000000e+00
2.514656765862544e+00 2.584793550216020e+00 0.000000000000000e+00
2.535639862797438e+00 2.583175590936032e+00 0.000000000000000e+00
2.556681309407619e+00 2.581926240940753e+00 0.000000000000000e+00
2.576764558450400e+00 2.580545078846605e+00 0.000000000000000e+00
2.598071142962224e+00 2.579548619889882e+00 0.000000000000000e+00
2.617959660303618e+00 2.577523089186976e+00 0.000000000000000e+00
2.639213849152197e+00 2.577759970924653e+00 0.000000000000000e+00
2.660370597080342e+00 2.577774878864118e+00 0.000000000000000e+00
2.679864583045350e+00 2.575185710836020e+00 0.000000000000000e+00
2.701392028129093e+00 2.574462136991976e+00 0.000000000000000e+00
2.721836503460321e+00 2.575162980383854e+00 0.000000000000000e+00
2.742637450071435e+00 2.574823442671878e+00 0.000000000000000e+00
2.763084888226467e+00 2.572821831107496e+00 0.000000000000000e+00
2.784185432560088e+00 2.573412117831611e+00 0.000000000000000e+00
2.804885590378250e+00 2.573126057643252e+00 0.000000000000000e+00
2.825274415522592e+00 2.573304918942056e+00 0.000000000000000e+00
2.845714074147579e+00 2.573429430184399e+00 0.000000000000000e+00
2.866732399509869e+00 2.574053482820585e+00 0.000000000000000e+00
2.887214570010146e+00 2.576146523267933e+00 0.000000000000000e+00
2.907239947768464e+00 2.577278780928120e+00 0.000000000000000e+00
2.928257034518655e+00 2.579226353539720e+00 0.000000000000000e+00
2.947782406367974e+00 2.582977322441694e+00 0.000000000000000e+00
2.968957127320364e+00 2.586700304197165e+00 0.000000000000000e+00
2.988333765459108e+00 2.591049086085551e+00 0.000000000000000e+00
3.008188934945075e+00 2.595354446680521e+00 0.000000000000000e+00
3.029088163259175e+00 2.600054670649216e+00 0.000000000000000e+00
3.047591218332256e+00 2.605630771067334e+00 0.000000000000000e+00
3.068317430941736e+00 2.610527410727389e+00 0.000000000000000e+00
3.088161479662884e+00 2.616277491624079e+00 0.000000000000000e+00
3.107031949396985e+00 2.622424078893577e+00 0.000000000000000e+00
3.126933252733946e+00 2.629921000998412e+00 0.000000000000000e+00
3.144506044631250e+00 2.638512870392696e+00 0.000000000000000e+00
3.164495487205782e+00 2.645226419073721e+00 0.000000000000000e+00
3.183691201052331e+00 2.652258790914638e+00 0.000000000000000e+00
3.202429357407586e+00 2.660149351794710e+00 0.000000000000000e+00
3.221641941865457e+00 2.668237016996062e+00 0.000000000000000e+00
3.239355171092109e+00 2.677726244235516e+00 0.000000000000000e+00
3.257612195296964e+00 2.687017673931322e+00 0.000000000000000e+00
3.275138723677690e+00 2.697434542583254e+00 0.000000000000000e+00
3.291590331072948e+00 2.709504404859831e+00 0.000000000000000e+00
3.308103629745329e+00 2.722003819213778e+00 0.000000000000000e+00
3.323954797447068e+00 2.734936452079594e+00 0.000000000000000e+00
3.339176333464987e+00 2.747586411869640e+00 0.000000000000000e+00
3.354290900115068e+00 2.762228758345846e+00 0.000000000000000e+00
3.368378741604780e+00 2.776981843666432e+00 0.000000000000000e+00
3.383017209880271e+00 2.791270577225085e+00 0.000000000000000e+00
3.397339293622028e+00 2.805583791301329e+00 0.000000000000000e+00
3.411430091390185e+00 2.820578194608201e+00 0.000000000000000e+00
3.425304744910222e+00 2.835864229006933e+00 0.000000000000000e+00
3.439899235117570e+00 2.850062064179171e+00 0.000000000000000e+00
3.455269329228769e+00 2.862916483313762e+00 0.000000000000000e+00
3.470818445973251e+00 2.876845692683304e+00 0.000000000000000e+00
3.485642613314300e+00 2.890786583999364e+00 0.000000000000000e+00
3.502917851025586e+00 2.901797583092015e+00 0.000000000000000e+00
3.519137030031347e+00 2.913370753628082e+00 0.000000000000000e+00
3.537051329125809e+00 2.924951585745032e+00 0.000000000000000e+00
3.553632698201970e+00 2.935502851943570e+00 0.000000000000000e+00
3.572186022774739e+00 2.944938063913634e+00 0.000000000000000e+00
3.591339605264153e+00 2.950580164135704e+00 0.000000000000000e+00
3.609778262218192e+00 2.958687988208950e+00 0.000000000000000e+00
3.629506864120685e+00 2.965626342486249e+00 0.000000000000000e+00
3.648916346343869e+00 2.970493112027755e+00 0.000000000000000e+00
3.668717081457008e+00 2.975302765538598e+00 0.000000000000000e+00
3.688338427517910e+00 2.979229571495204e+00 0.000000000000000e+00
3.708683407171541e+00 2.982761535913433e+00 0.000000000000000e+00
3.728821517091299e+00 2.985101394638024e+00 0.000000000000000e+00
3.748815287440832e+00 2.988294485709536e+00 0.000000000000000e+00
3.768726071038022e+00 2.990953886971579e+00 0.000000000000000e+00
3.789463916376794e+00 2.991346766020864e+00 0.000000000000000e+00
3.809467664630501e+00 2.992870869795877e+00 0.000000000000000e+00
3.829629169796638e+00 2.996138701883017e+00 0.000000000000000e+00
3.849843602102812e+00 2.995095584685395e+00 0.000000000000000e+00
3.870802927978607e+00 2.994265733623052e+00 0.000000000000000e+00
3.890558999513139e+00 2.996494656522244e+00 0.000000000000000e+00
3.910474505123310e+00 2.998370436443822e+00 0.000000000000000e+00
3.931458880177743e+00 2.996934056577637e+00 0.000000000000000e+00
3.951860333984016e+00 2.996300419160570e+00 0.000000000000000e+00
3.971285430276313e+00 3.001108538366680e+00 0.000000000000000e+00
3.991767601398202e+00 2.999233803110783e+00 0.000000000000000e+00

POINT_DATA   310
SCALARS fY_Lag double
LOOKUP_TABLE default

4.261760e+02 
-2.047090e+03 
1.987453e+03 
-3.764633e+02 
1.577984e+02 
-1.927302e+03 
1.388962e+03 
7.869348e+01 
-2.153094e+02 
-7.670789e+02 
2.960601e+02 
-6.428498e+02 
6.452286e+02 
-3.509925e+02 
-1.056848e+03 
1.346472e+03 
-1.667113e+03 
9.850380e+02 
-9.619770e+02 
2.170497e+02 
-2.581317e+02 
1.613878e+02 
-9.762514e+02 
9.584482e+02 
-1.228370e+03 
1.315522e+03 
-1.555035e+03 
1.163104e+03 
-1.179295e+03 
1.390213e+03 
-1.108810e+03 
9.511380e+02 
-5.336819e+02 
4.380692e+02 
-1.528935e+02 
1.910040e+03 
-3.401876e+03 
3.642916e+03 
-1.439909e+03 
-2.109358e+02 
1.135698e+02 
1.756721e+03 
-1.977579e+03 
9.252695e+02 
-1.262507e+03 
3.790983e+03 
-3.414754e+03 
9.563480e+02 
1.275508e+03 
2.907858e+02 
-1.834763e+03 
1.101461e+03 
2.035549e+02 
1.359429e+03 
-2.669564e+03 
1.841666e+03 
2.627782e+03 
-3.147143e+03 
-6.348953e+02 
3.628028e+03 
-3.046768e+03 
2.167770e+03 
-4.115063e+03 
4.624958e+03 
-1.412604e+03 
-2.369095e+03 
-2.195270e+01 
1.467626e+03 
-2.943743e+03 
5.717346e+02 
-2.104528e+02 
-4.762237e+01 
6.199624e+01 
-5.820140e+02 
1.192256e+02 
-6.890867e+02 
2.262056e+02 
-2.625320e+02 
-5.383973e+02 
4.762420e+02 
-4.819474e+02 
-7.074593e+02 
1.899911e+02 
3.102293e+02 
3.944533e+02 
-1.114006e+03 
5.869760e+02 
8.326422e+02 
-1.539913e+03 
6.057125e+02 
-2.165851e+02 
1.750706e+01 
-4.093072e+02 
-7.619704e+02 
8.000802e+02 
-1.127596e+03 
5.907188e+02 
-2.685156e+03 
2.510297e+03 
-9.297265e+02 
-2.500594e+03 
4.717476e+03 
-4.652219e+03 
8.565434e+02 
1.997588e+03 
-5.209431e+03 
5.982683e+03 
-4.912189e+03 
1.819524e+03 
6.991384e+01 
-2.164682e+03 
2.469563e+03 
-1.797956e+03 
-1.708079e+02 
-9.526238e+02 
-2.023231e+03 
1.316429e+03 
3.748955e+03 
-8.559777e+03 
4.089317e+03 
-3.034534e+02 
1.665463e+03 
-2.843357e+03 
-3.322358e+02 
2.749958e+03 
2.252209e+03 
-5.825100e+03 
3.286369e+03 
3.628084e+02 
2.831580e+03 
-7.418437e+03 
9.550503e+03 
-5.020134e+03 
4.867984e+03 
-1.062797e+03 
-2.142529e+03 
3.592955e+03 
-7.745860e+02 
1.131922e+03 
-9.090636e+02 
1.144314e+03 
-2.625031e+02 
4.770453e+02 
6.330091e+02 
-2.286140e+02 
-1.056406e+03 
2.014581e+03 
2.044385e+02 
-1.135248e+03 
8.681340e+00 
1.681367e+03 
-8.384322e+02 
-1.524148e+03 
2.275195e+03 
-1.610354e+03 
-4.261760e+02 
2.047090e+03 
-1.987453e+03 
3.764633e+02 
-1.577984e+02 
1.927302e+03 
-1.388962e+03 
-7.869348e+01 
2.153094e+02 
7.670789e+02 
-2.960601e+02 
6.428498e+02 
-6.452286e+02 
3.509925e+02 
1.056848e+03 
-1.346472e+03 
1.667113e+03 
-9.850380e+02 
9.619770e+02 
-2.170497e+02 
2.581317e+02 
-1.613878e+02 
9.762514e+02 
-9.584482e+02 
1.228370e+03 
-1.315522e+03 
1.555035e+03 
-1.163104e+03 
1.179295e+03 
-1.390213e+03 
1.108810e+03 
-9.511380e+02 
5.336819e+02 
-4.380692e+02 
1.528935e+02 
-1.910040e+03 
3.401876e+03 
-3.642916e+03 
1.439909e+03 
2.109358e+02 
-1.135698e+02 
-1.756721e+03 
1.977579e+03 
-9.252695e+02 
1.262507e+03 
-3.790983e+03 
3.414754e+03 
-9.563480e+02 
-1.275508e+03 
-2.907858e+02 
1.834763e+03 
-1.101461e+03 
-2.035549e+02 
-1.359429e+03 
2.669564e+03 
-1.841666e+03 
-2.627782e+03 
3.147143e+03 
6.348953e+02 
-3.628028e+03 
3.046768e+03 
-2.167770e+03 
4.115063e+03 
-4.624958e+03 
1.412604e+03 
2.369095e+03 
2.195270e+01 
-1.467626e+03 
2.943743e+03 
-5.717346e+02 
2.104528e+02 
4.762237e+01 
-6.199624e+01 
5.820140e+02 
-1.192256e+02 
6.890867e+02 
-2.262056e+02 
2.625320e+02 
5.383973e+02 
-4.762420e+02 
4.819474e+02 
7.074593e+02 
-1.899911e+02 
-3.102293e+02 
-3.944533e+02 
1.114006e+03 
-5.869760e+02 
-8.326422e+02 
1.539913e+03 
-6.057125e+02 
2.165851e+02 
-1.750706e+01 
4.093072e+02 
7.619704e+02 
-8.000802e+02 
1.127596e+03 
-5.907188e+02 
2.685156e+03 
-2.510297e+03 
9.297265e+02 
2.500594e+03 
-4.717476e+03 
4.652219e+03 
-8.565434e+02 
-1.997588e+03 
5.209431e+03 
-5.982683e+03 
4.912189e+03 
-1.819524e+03 
-6.991384e+01 
2.164682e+03 
-2.469563e+03 
1.797956e+03 
1.708079e+02 
9.526238e+02 
2.023231e+03 
-1.316429e+03 
-3.748955e+03 
8.559777e+03 
-4.089317e+03 
3.034534e+02 
-1.665463e+03 
2.843357e+03 
3.322358e+02 
-2.749958e+03 
-2.252209e+03 
5.825100e+03 
-3.286369e+03 
-3.628084e+02 
-2.831580e+03 
7.418437e+03 
-9.550503e+03 
5.020134e+03 
-4.867984e+03 
1.062797e+03 
2.142529e+03 
-3.592955e+03 
7.745860e+02 
-1.131922e+03 
9.090636e+02 
-1.144314e+03 
2.625031e+02 
-4.770453e+02 
-6.330091e+02 
2.286140e+02 
1.056406e+03 
-2.014581e+03 
-2.044385e+02 
1.135248e+03 
-8.681340e+00 
-1.681367e+03 
8.384322e+02 
1.524148e+03 
-2.275195e+03 
1.610354e+03 
