# vtk DataFile Version 2.0
fY_Lag
ASCII
DATASET UNSTRUCTURED_GRID

FIELD FieldData 1
TIME 1 1 double
0.01000000
POINTS 310 float
1.034997804745472e+00 1.984067011590689e+00 0.000000000000000e+00
1.052384034124482e+00 1.973845989498989e+00 0.000000000000000e+00
1.075080138611809e+00 1.965573339060591e+00 0.000000000000000e+00
1.097484717981100e+00 1.956586104525625e+00 0.000000000000000e+00
1.117688812058895e+00 1.946718798773728e+00 0.000000000000000e+00
1.138670266854546e+00 1.938393592782776e+00 0.000000000000000e+00
1.160776994620366e+00 1.931238222683785e+00 0.000000000000000e+00
1.183275021718438e+00 1.923514710387690e+00 0.000000000000000e+00
1.206027311544469e+00 1.915649772129794e+00 0.000000000000000e+00
1.229775351848532e+00 1.909247199485803e+00 0.000000000000000e+00
1.253752013910903e+00 1.905347637533972e+00 0.000000000000000e+00
1.277743707979300e+00 1.903336431815899e+00 0.000000000000000e+00
1.301703493173457e+00 1.903474957911599e+00 0.000000000000000e+00
1.324907303493295e+00 1.906597000264487e+00 0.000000000000000e+00
1.346316631981716e+00 1.912613988668031e+00 0.000000000000000e+00
1.366405669138682e+00 1.921000694024099e+00 0.000000000000000e+00
1.385609385301566e+00 1.932422671687614e+00 0.000000000000000e+00
1.402179528715889e+00 1.945425493411704e+00 0.000000000000000e+00
1.417099220800612e+00 1.960104806589302e+00 0.000000000000000e+00
1.430264536258234e+00 1.976552630732295e+00 0.000000000000000e+00
1.442778356982621e+00 1.991518346978911e+00 0.000000000000000e+00
1.457987954059780e+00 2.002924528714712e+00 0.000000000000000e+00
1.475458207083163e+00 2.010892276141068e+00 0.000000000000000e+00
1.494822132335732e+00 2.015606716613207e+00 0.000000000000000e+00
1.516286854020054e+00 2.018809502976262e+00 0.000000000000000e+00
1.538730722785784e+00 2.024414463424301e+00 0.000000000000000e+00
1.561854169202726e+00 2.034375034686646e+00 0.000000000000000e+00
1.582981746279710e+00 2.042283100723636e+00 0.000000000000000e+00
1.605105934935295e+00 2.047611463653901e+00 0.000000000000000e+00
1.626887272721927e+00 2.056646149568962e+00 0.000000000000000e+00
1.648265255456727e+00 2.065188302558417e+00 0.000000000000000e+00
1.667365199656827e+00 2.065305280323515e+00 0.000000000000000e+00
1.689049476222737e+00 2.071772407816453e+00 0.000000000000000e+00
1.700320563057858e+00 2.085794839778234e+00 0.000000000000000e+00
1.715649838145420e+00 2.097826458306757e+00 0.000000000000000e+00
1.734564271713393e+00 2.108716531882879e+00 0.000000000000000e+00
1.754738593410235e+00 2.119337859953307e+00 0.000000000000000e+00
1.776394138896933e+00 2.115399863109745e+00 0.000000000000000e+00
1.788288278637796e+00 2.129621485328668e+00 0.000000000000000e+00
1.784886004646858e+00 2.145912463951413e+00 0.000000000000000e+00
1.798988713549529e+00 2.158053192415220e+00 0.000000000000000e+00
1.801770434123857e+00 2.175686435040386e+00 0.000000000000000e+00
1.797849129047181e+00 2.193516279183139e+00 0.000000000000000e+00
1.797793787065611e+00 2.207921305196751e+00 0.000000000000000e+00
1.799917001872258e+00 2.229069649990797e+00 0.000000000000000e+00
1.813448522904650e+00 2.242880965518515e+00 0.000000000000000e+00
1.832616828315523e+00 2.250031690512326e+00 0.000000000000000e+00
1.839695580502685e+00 2.232711214056093e+00 0.000000000000000e+00
1.855665695280313e+00 2.227570156404382e+00 0.000000000000000e+00
1.870589566845448e+00 2.238347621315913e+00 0.000000000000000e+00
1.890907904084321e+00 2.249247187059317e+00 0.000000000000000e+00
1.910146364152029e+00 2.251326038570992e+00 0.000000000000000e+00
1.930947630211896e+00 2.244154139715964e+00 0.000000000000000e+00
1.952725798497785e+00 2.237453292378638e+00 0.000000000000000e+00
1.972868305849368e+00 2.239900224590266e+00 0.000000000000000e+00
1.991470535207799e+00 2.232215362722073e+00 0.000000000000000e+00
2.009104614428586e+00 2.219649506104080e+00 0.000000000000000e+00
2.028264388013452e+00 2.207455177112872e+00 0.000000000000000e+00
2.043132951357730e+00 2.190532457973141e+00 0.000000000000000e+00
2.053502837006951e+00 2.173098727861715e+00 0.000000000000000e+00
2.065442586077113e+00 2.155660606185983e+00 0.000000000000000e+00
2.078736196876995e+00 2.136323556709914e+00 0.000000000000000e+00
2.087335911700143e+00 2.115488340617176e+00 0.000000000000000e+00
2.091094235088564e+00 2.095559529851987e+00 0.000000000000000e+00
2.097715898311558e+00 2.076047483335097e+00 0.000000000000000e+00
2.112051530224944e+00 2.061070069979301e+00 0.000000000000000e+00
2.126302846339195e+00 2.048706831879824e+00 0.000000000000000e+00
2.137856352022207e+00 2.034049340329231e+00 0.000000000000000e+00
2.149034404877519e+00 2.018286293339858e+00 0.000000000000000e+00
2.162719456775726e+00 2.005432002392577e+00 0.000000000000000e+00
2.177596654394752e+00 1.992705913623380e+00 0.000000000000000e+00
2.190552796790613e+00 1.976972020185592e+00 0.000000000000000e+00
2.201732509089033e+00 1.960509107167721e+00 0.000000000000000e+00
2.213891450805082e+00 1.944192929875290e+00 0.000000000000000e+00
2.227934260753740e+00 1.928662686334807e+00 0.000000000000000e+00
2.244034848523990e+00 1.912752970574296e+00 0.000000000000000e+00
2.262824277237553e+00 1.896809127734461e+00 0.000000000000000e+00
2.283877465836371e+00 1.884991554491662e+00 0.000000000000000e+00
2.306493314053875e+00 1.877943902660681e+00 0.000000000000000e+00
2.329660986321339e+00 1.875184613516687e+00 0.000000000000000e+00
2.352912099867690e+00 1.875379846495482e+00 0.000000000000000e+00
2.375551962022156e+00 1.878002221412756e+00 0.000000000000000e+00
2.397426069539884e+00 1.882827184257517e+00 0.000000000000000e+00
2.418590232259031e+00 1.889144431926516e+00 0.000000000000000e+00
2.439453427045458e+00 1.896547411545950e+00 0.000000000000000e+00
2.460145463630085e+00 1.904326132856065e+00 0.000000000000000e+00
2.480920213573172e+00 1.912265954055742e+00 0.000000000000000e+00
2.501984676711097e+00 1.920006446473132e+00 0.000000000000000e+00
2.523275948845591e+00 1.927337985018340e+00 0.000000000000000e+00
2.544736147078323e+00 1.934208570214841e+00 0.000000000000000e+00
2.566240030438499e+00 1.940419689150728e+00 0.000000000000000e+00
2.587868494254406e+00 1.946004139811450e+00 0.000000000000000e+00
2.609564255537051e+00 1.950921787188860e+00 0.000000000000000e+00
2.631414585938024e+00 1.955256051743198e+00 0.000000000000000e+00
2.653357301297672e+00 1.959064018487145e+00 0.000000000000000e+00
2.675403466715184e+00 1.962405412906657e+00 0.000000000000000e+00
2.697570287047208e+00 1.965343502875510e+00 0.000000000000000e+00
2.719921923378443e+00 1.967955770245127e+00 0.000000000000000e+00
2.742428110766331e+00 1.970284737791815e+00 0.000000000000000e+00
2.765151207373830e+00 1.972396115548581e+00 0.000000000000000e+00
2.788094340126966e+00 1.974306327226293e+00 0.000000000000000e+00
2.811322275024704e+00 1.976058722238057e+00 0.000000000000000e+00
2.834787881981125e+00 1.977670394492044e+00 0.000000000000000e+00
2.858513927869194e+00 1.979169960310924e+00 0.000000000000000e+00
2.882459729473630e+00 1.980562882862761e+00 0.000000000000000e+00
2.906640352130263e+00 1.981860919156172e+00 0.000000000000000e+00
2.930987488970791e+00 1.983068774612192e+00 0.000000000000000e+00
2.955497645656113e+00 1.984203514843403e+00 0.000000000000000e+00
2.980098311333203e+00 1.985264506164681e+00 0.000000000000000e+00
3.004766553007270e+00 1.986253892738856e+00 0.000000000000000e+00
3.029456799650606e+00 1.987173934803000e+00 0.000000000000000e+00
3.054160470708191e+00 1.988037451721792e+00 0.000000000000000e+00
3.078807405676874e+00 1.988843407712301e+00 0.000000000000000e+00
3.103394130265932e+00 1.989593721932003e+00 0.000000000000000e+00
3.127880754576976e+00 1.990290389024570e+00 0.000000000000000e+00
3.152264448084626e+00 1.990943039127642e+00 0.000000000000000e+00
3.176540196334852e+00 1.991551889065804e+00 0.000000000000000e+00
3.200665757831980e+00 1.992117130066883e+00 0.000000000000000e+00
3.224632148491635e+00 1.992641980841691e+00 0.000000000000000e+00
3.248461391673612e+00 1.993133532042776e+00 0.000000000000000e+00
3.272161143549190e+00 1.993591076240281e+00 0.000000000000000e+00
3.295669220806197e+00 1.994013730627957e+00 0.000000000000000e+00
3.318975496185607e+00 1.994405026442662e+00 0.000000000000000e+00
3.342144432509957e+00 1.994772651194692e+00 0.000000000000000e+00
3.365182220703134e+00 1.995112649388069e+00 0.000000000000000e+00
3.388003706391669e+00 1.995425327728563e+00 0.000000000000000e+00
3.410567206598976e+00 1.995712386236439e+00 0.000000000000000e+00
3.433033181037254e+00 1.995983011243022e+00 0.000000000000000e+00
3.455286529380853e+00 1.996236819099664e+00 0.000000000000000e+00
3.477251824083427e+00 1.996467115344593e+00 0.000000000000000e+00
3.499387090818542e+00 1.996673057216420e+00 0.000000000000000e+00
3.521367938397538e+00 1.996868642599373e+00 0.000000000000000e+00
3.542457734058133e+00 1.997054237758283e+00 0.000000000000000e+00
3.563609324940533e+00 1.997221903361222e+00 0.000000000000000e+00
3.585520340260245e+00 1.997369371172443e+00 0.000000000000000e+00
3.606909234812481e+00 1.997503564473837e+00 0.000000000000000e+00
3.627665646222188e+00 1.997629183756853e+00 0.000000000000000e+00
3.648834697310324e+00 1.997746932971312e+00 0.000000000000000e+00
3.669990013767773e+00 1.997851066112099e+00 0.000000000000000e+00
3.690657285729310e+00 1.997941515026592e+00 0.000000000000000e+00
3.711320922984202e+00 1.998014503515216e+00 0.000000000000000e+00
3.732353831300491e+00 1.998068461994176e+00 0.000000000000000e+00
3.753276585910148e+00 1.998123464943753e+00 0.000000000000000e+00
3.773811430513807e+00 1.998213989966833e+00 0.000000000000000e+00
3.794162747374708e+00 1.998326786472456e+00 0.000000000000000e+00
3.814803199671494e+00 1.998443021773434e+00 0.000000000000000e+00
3.835255437207543e+00 1.998484750312616e+00 0.000000000000000e+00
3.855098488786356e+00 1.998354795371611e+00 0.000000000000000e+00
3.874852547419334e+00 1.998206115733649e+00 0.000000000000000e+00
3.895700215423419e+00 1.998331430898631e+00 0.000000000000000e+00
3.916074660803829e+00 1.998838515520285e+00 0.000000000000000e+00
3.935171983239921e+00 1.999558752578688e+00 0.000000000000000e+00
3.954779526099306e+00 2.000287620020828e+00 0.000000000000000e+00
3.976630567988918e+00 2.000345994213911e+00 0.000000000000000e+00
3.995552105434546e+00 1.999831281765461e+00 0.000000000000000e+00
1.034997804745472e+00 3.015932988409311e+00 0.000000000000000e+00
1.052384034124482e+00 3.026154010501010e+00 0.000000000000000e+00
1.075080138611808e+00 3.034426660939410e+00 0.000000000000000e+00
1.097484717981100e+00 3.043413895474375e+00 0.000000000000000e+00
1.117688812058894e+00 3.053281201226272e+00 0.000000000000000e+00
1.138670266854545e+00 3.061606407217224e+00 0.000000000000000e+00
1.160776994620365e+00 3.068761777316215e+00 0.000000000000000e+00
1.183275021718438e+00 3.076485289612310e+00 0.000000000000000e+00
1.206027311544470e+00 3.084350227870206e+00 0.000000000000000e+00
1.229775351848531e+00 3.090752800514198e+00 0.000000000000000e+00
1.253752013910903e+00 3.094652362466029e+00 0.000000000000000e+00
1.277743707979300e+00 3.096663568184102e+00 0.000000000000000e+00
1.301703493173456e+00 3.096525042088401e+00 0.000000000000000e+00
1.324907303493295e+00 3.093402999735513e+00 0.000000000000000e+00
1.346316631981716e+00 3.087386011331968e+00 0.000000000000000e+00
1.366405669138683e+00 3.078999305975901e+00 0.000000000000000e+00
1.385609385301567e+00 3.067577328312386e+00 0.000000000000000e+00
1.402179528715891e+00 3.054574506588297e+00 0.000000000000000e+00
1.417099220800613e+00 3.039895193410699e+00 0.000000000000000e+00
1.430264536258235e+00 3.023447369267706e+00 0.000000000000000e+00
1.442778356982621e+00 3.008481653021090e+00 0.000000000000000e+00
1.457987954059780e+00 2.997075471285287e+00 0.000000000000000e+00
1.475458207083163e+00 2.989107723858932e+00 0.000000000000000e+00
1.494822132335731e+00 2.984393283386795e+00 0.000000000000000e+00
1.516286854020054e+00 2.981190497023738e+00 0.000000000000000e+00
1.538730722785783e+00 2.975585536575702e+00 0.000000000000000e+00
1.561854169202725e+00 2.965624965313356e+00 0.000000000000000e+00
1.582981746279710e+00 2.957716899276364e+00 0.000000000000000e+00
1.605105934935293e+00 2.952388536346101e+00 0.000000000000000e+00
1.626887272721926e+00 2.943353850431040e+00 0.000000000000000e+00
1.648265255456727e+00 2.934811697441587e+00 0.000000000000000e+00
1.667365199656826e+00 2.934694719676490e+00 0.000000000000000e+00
1.689049476222735e+00 2.928227592183556e+00 0.000000000000000e+00
1.700320563057854e+00 2.914205160221776e+00 0.000000000000000e+00
1.715649838145415e+00 2.902173541693247e+00 0.000000000000000e+00
1.734564271713385e+00 2.891283468117121e+00 0.000000000000000e+00
1.754738593410225e+00 2.880662140046686e+00 0.000000000000000e+00
1.776394138896928e+00 2.884600136890248e+00 0.000000000000000e+00
1.788288278637794e+00 2.870378514671326e+00 0.000000000000000e+00
1.784886004646856e+00 2.854087536048584e+00 0.000000000000000e+00
1.798988713549530e+00 2.841946807584777e+00 0.000000000000000e+00
1.801770434123859e+00 2.824313564959611e+00 0.000000000000000e+00
1.797849129047180e+00 2.806483720816860e+00 0.000000000000000e+00
1.797793787065610e+00 2.792078694803251e+00 0.000000000000000e+00
1.799917001872260e+00 2.770930350009205e+00 0.000000000000000e+00
1.813448522904652e+00 2.757119034481489e+00 0.000000000000000e+00
1.832616828315524e+00 2.749968309487681e+00 0.000000000000000e+00
1.839695580502690e+00 2.767288785943912e+00 0.000000000000000e+00
1.855665695280320e+00 2.772429843595616e+00 0.000000000000000e+00
1.870589566845453e+00 2.761652378684080e+00 0.000000000000000e+00
1.890907904084326e+00 2.750752812940673e+00 0.000000000000000e+00
1.910146364152033e+00 2.748673961429000e+00 0.000000000000000e+00
1.930947630211900e+00 2.755845860284031e+00 0.000000000000000e+00
1.952725798497788e+00 2.762546707621361e+00 0.000000000000000e+00
1.972868305849374e+00 2.760099775409739e+00 0.000000000000000e+00
1.991470535207804e+00 2.767784637277933e+00 0.000000000000000e+00
2.009104614428590e+00 2.780350493895929e+00 0.000000000000000e+00
2.028264388013454e+00 2.792544822887136e+00 0.000000000000000e+00
2.043132951357733e+00 2.809467542026866e+00 0.000000000000000e+00
2.053502837006954e+00 2.826901272138290e+00 0.000000000000000e+00
2.065442586077118e+00 2.844339393814022e+00 0.000000000000000e+00
2.078736196877000e+00 2.863676443290090e+00 0.000000000000000e+00
2.087335911700149e+00 2.884511659382828e+00 0.000000000000000e+00
2.091094235088566e+00 2.904440470148018e+00 0.000000000000000e+00
2.097715898311558e+00 2.923952516664908e+00 0.000000000000000e+00
2.112051530224944e+00 2.938929930020705e+00 0.000000000000000e+00
2.126302846339196e+00 2.951293168120179e+00 0.000000000000000e+00
2.137856352022209e+00 2.965950659670771e+00 0.000000000000000e+00
2.149034404877522e+00 2.981713706660145e+00 0.000000000000000e+00
2.162719456775727e+00 2.994567997607424e+00 0.000000000000000e+00
2.177596654394753e+00 3.007294086376622e+00 0.000000000000000e+00
2.190552796790612e+00 3.023027979814410e+00 0.000000000000000e+00
2.201732509089032e+00 3.039490892832282e+00 0.000000000000000e+00
2.213891450805083e+00 3.055807070124709e+00 0.000000000000000e+00
2.227934260753741e+00 3.071337313665194e+00 0.000000000000000e+00
2.244034848523990e+00 3.087247029425705e+00 0.000000000000000e+00
2.262824277237552e+00 3.103190872265541e+00 0.000000000000000e+00
2.283877465836369e+00 3.115008445508339e+00 0.000000000000000e+00
2.306493314053875e+00 3.122056097339318e+00 0.000000000000000e+00
2.329660986321338e+00 3.124815386483313e+00 0.000000000000000e+00
2.352912099867690e+00 3.124620153504517e+00 0.000000000000000e+00
2.375551962022155e+00 3.121997778587245e+00 0.000000000000000e+00
2.397426069539883e+00 3.117172815742484e+00 0.000000000000000e+00
2.418590232259030e+00 3.110855568073483e+00 0.000000000000000e+00
2.439453427045458e+00 3.103452588454051e+00 0.000000000000000e+00
2.460145463630084e+00 3.095673867143937e+00 0.000000000000000e+00
2.480920213573171e+00 3.087734045944258e+00 0.000000000000000e+00
2.501984676711097e+00 3.079993553526869e+00 0.000000000000000e+00
2.523275948845591e+00 3.072662014981661e+00 0.000000000000000e+00
2.544736147078322e+00 3.065791429785159e+00 0.000000000000000e+00
2.566240030438500e+00 3.059580310849273e+00 0.000000000000000e+00
2.587868494254405e+00 3.053995860188550e+00 0.000000000000000e+00
2.609564255537051e+00 3.049078212811140e+00 0.000000000000000e+00
2.631414585938025e+00 3.044743948256802e+00 0.000000000000000e+00
2.653357301297673e+00 3.040935981512855e+00 0.000000000000000e+00
2.675403466715185e+00 3.037594587093343e+00 0.000000000000000e+00
2.697570287047208e+00 3.034656497124490e+00 0.000000000000000e+00
2.719921923378444e+00 3.032044229754874e+00 0.000000000000000e+00
2.742428110766332e+00 3.029715262208184e+00 0.000000000000000e+00
2.765151207373831e+00 3.027603884451418e+00 0.000000000000000e+00
2.788094340126967e+00 3.025693672773707e+00 0.000000000000000e+00
2.811322275024705e+00 3.023941277761943e+00 0.000000000000000e+00
2.834787881981125e+00 3.022329605507955e+00 0.000000000000000e+00
2.858513927869195e+00 3.020830039689076e+00 0.000000000000000e+00
2.882459729473631e+00 3.019437117137239e+00 0.000000000000000e+00
2.906640352130264e+00 3.018139080843828e+00 0.000000000000000e+00
2.930987488970792e+00 3.016931225387808e+00 0.000000000000000e+00
2.955497645656114e+00 3.015796485156597e+00 0.000000000000000e+00
2.980098311333204e+00 3.014735493835319e+00 0.000000000000000e+00
3.004766553007271e+00 3.013746107261144e+00 0.000000000000000e+00
3.029456799650607e+00 3.012826065197000e+00 0.000000000000000e+00
3.054160470708191e+00 3.011962548278209e+00 0.000000000000000e+00
3.078807405676875e+00 3.011156592287699e+00 0.000000000000000e+00
3.103394130265932e+00 3.010406278067997e+00 0.000000000000000e+00
3.127880754576977e+00 3.009709610975431e+00 0.000000000000000e+00
3.152264448084626e+00 3.009056960872357e+00 0.000000000000000e+00
3.176540196334853e+00 3.008448110934196e+00 0.000000000000000e+00
3.200665757831979e+00 3.007882869933117e+00 0.000000000000000e+00
3.224632148491636e+00 3.007358019158309e+00 0.000000000000000e+00
3.248461391673613e+00 3.006866467957225e+00 0.000000000000000e+00
3.272161143549191e+00 3.006408923759718e+00 0.000000000000000e+00
3.295669220806197e+00 3.005986269372043e+00 0.000000000000000e+00
3.318975496185608e+00 3.005594973557338e+00 0.000000000000000e+00
3.342144432509957e+00 3.005227348805309e+00 0.000000000000000e+00
3.365182220703134e+00 3.004887350611931e+00 0.000000000000000e+00
3.388003706391670e+00 3.004574672271436e+00 0.000000000000000e+00
3.410567206598975e+00 3.004287613763562e+00 0.000000000000000e+00
3.433033181037253e+00 3.004016988756979e+00 0.000000000000000e+00
3.455286529380854e+00 3.003763180900335e+00 0.000000000000000e+00
3.477251824083427e+00 3.003532884655407e+00 0.000000000000000e+00
3.499387090818541e+00 3.003326942783580e+00 0.000000000000000e+00
3.521367938397538e+00 3.003131357400627e+00 0.000000000000000e+00
3.542457734058132e+00 3.002945762241718e+00 0.000000000000000e+00
3.563609324940532e+00 3.002778096638778e+00 0.000000000000000e+00
3.585520340260245e+00 3.002630628827556e+00 0.000000000000000e+00
3.606909234812481e+00 3.002496435526163e+00 0.000000000000000e+00
3.627665646222189e+00 3.002370816243146e+00 0.000000000000000e+00
3.648834697310324e+00 3.002253067028687e+00 0.000000000000000e+00
3.669990013767772e+00 3.002148933887901e+00 0.000000000000000e+00
3.690657285729310e+00 3.002058484973408e+00 0.000000000000000e+00
3.711320922984203e+00 3.001985496484783e+00 0.000000000000000e+00
3.732353831300490e+00 3.001931538005823e+00 0.000000000000000e+00
3.753276585910148e+00 3.001876535056248e+00 0.000000000000000e+00
3.773811430513805e+00 3.001786010033168e+00 0.000000000000000e+00
3.794162747374709e+00 3.001673213527547e+00 0.000000000000000e+00
3.814803199671494e+00 3.001556978226569e+00 0.000000000000000e+00
3.835255437207542e+00 3.001515249687387e+00 0.000000000000000e+00
3.855098488786356e+00 3.001645204628388e+00 0.000000000000000e+00
3.874852547419334e+00 3.001793884266347e+00 0.000000000000000e+00
3.895700215423419e+00 3.001668569101365e+00 0.000000000000000e+00
3.916074660803829e+00 3.001161484479712e+00 0.000000000000000e+00
3.935171983239920e+00 3.000441247421311e+00 0.000000000000000e+00
3.954779526099306e+00 2.999712379979176e+00 0.000000000000000e+00
3.976630567988919e+00 2.999654005786092e+00 0.000000000000000e+00
3.995552105434546e+00 3.000168718234538e+00 0.000000000000000e+00

POINT_DATA   310
SCALARS fY_Lag double
LOOKUP_TABLE default

1.147970e+04 
-1.109902e+04 
-1.170781e+03 
4.244665e+03 
1.260762e+03 
-4.444915e+01 
-2.060636e+03 
-8.342215e+02 
1.964241e+03 
5.214819e+03 
4.559548e+03 
5.423849e+03 
6.783777e+03 
4.064018e+03 
2.052618e+03 
5.290579e+03 
-3.536493e+03 
-4.327730e+03 
-9.277806e+02 
-1.440376e+04 
-3.256276e+03 
3.907885e+03 
3.724488e+03 
3.459590e+03 
4.833969e+03 
1.511508e+04 
-1.080020e+04 
-3.040865e+03 
7.671166e+03 
-2.821492e+03 
-1.178451e+04 
7.139950e+03 
-1.305373e+04 
1.020833e+04 
1.279230e+04 
5.111498e+03 
-2.416655e+04 
-1.806284e+03 
-2.917579e+04 
2.745896e+04 
-1.821851e+04 
9.071574e+03 
-3.552491e+04 
7.599963e+04 
-2.707384e+04 
1.186728e+03 
1.634761e+03 
5.996984e+03 
-1.588673e+04 
2.377934e+04 
-1.648365e+04 
-1.223580e+04 
1.278435e+03 
1.208691e+04 
-5.327939e+02 
-9.021277e+03 
-5.230507e+03 
3.457591e+02 
1.827064e+04 
-6.507891e+03 
-2.017571e+04 
8.455468e+02 
1.975055e+04 
2.042080e+02 
3.214679e+03 
1.179671e+04 
6.127238e+03 
-4.912948e+03 
-2.685258e+03 
-8.751994e+03 
-1.322313e+04 
-3.304776e+02 
-7.091056e+03 
1.066435e+03 
-6.355755e+03 
-4.715488e+03 
1.572243e+04 
1.176865e+04 
8.139985e+03 
4.311774e+03 
2.122332e+03 
1.378623e+03 
9.134553e+02 
1.523273e+03 
9.047907e+02 
7.455025e+02 
-6.364851e+00 
-8.812134e+02 
-9.672967e+02 
-1.395519e+03 
-1.021987e+03 
-8.364157e+02 
-6.706077e+02 
-6.436059e+02 
-4.270051e+02 
-3.838525e+02 
-1.995190e+02 
-2.211684e+02 
-1.261847e+02 
-1.245489e+02 
-8.700325e+01 
-1.222261e+02 
-8.527767e+01 
-1.306479e+02 
-1.297771e+02 
-1.515352e+02 
-1.328276e+02 
-1.674392e+02 
-1.603080e+02 
-1.753810e+02 
-1.454532e+02 
-1.538893e+02 
-1.504702e+02 
-1.453027e+02 
-1.193594e+02 
-1.156827e+02 
-1.156308e+02 
-1.054126e+02 
-8.411636e+01 
-8.065196e+01 
-8.509890e+01 
-7.603116e+01 
-5.099962e+01 
-5.484594e+01 
-6.299783e+01 
-5.995502e+01 
-2.644035e+01 
-3.670452e+01 
-5.047129e+01 
-1.692749e+01 
-2.850059e+01 
-6.767436e+01 
-3.192409e-02 
2.424891e+01 
-4.439844e+01 
-4.276096e+01 
1.569548e+01 
-6.418865e+00 
-2.493776e+01 
-9.565794e+00 
-4.038816e-02 
1.772569e+00 
8.106861e+00 
-9.857076e-01 
1.065629e+01 
-4.920806e+01 
-3.583686e+01 
7.608515e+00 
1.178721e+02 
1.495618e+02 
-3.700099e+02 
1.653508e+02 
2.203633e+01 
9.205689e+01 
-6.254258e+01 
-1.147970e+04 
1.109902e+04 
1.170781e+03 
-4.244665e+03 
-1.260762e+03 
4.444915e+01 
2.060636e+03 
8.342215e+02 
-1.964241e+03 
-5.214819e+03 
-4.559548e+03 
-5.423849e+03 
-6.783777e+03 
-4.064018e+03 
-2.052618e+03 
-5.290579e+03 
3.536493e+03 
4.327730e+03 
9.277806e+02 
1.440376e+04 
3.256276e+03 
-3.907885e+03 
-3.724488e+03 
-3.459590e+03 
-4.833969e+03 
-1.511508e+04 
1.080020e+04 
3.040865e+03 
-7.671166e+03 
2.821492e+03 
1.178451e+04 
-7.139950e+03 
1.305373e+04 
-1.020833e+04 
-1.279230e+04 
-5.111498e+03 
2.416655e+04 
1.806284e+03 
2.917579e+04 
-2.745896e+04 
1.821851e+04 
-9.071574e+03 
3.552491e+04 
-7.599963e+04 
2.707384e+04 
-1.186728e+03 
-1.634761e+03 
-5.996984e+03 
1.588673e+04 
-2.377934e+04 
1.648365e+04 
1.223580e+04 
-1.278435e+03 
-1.208691e+04 
5.327939e+02 
9.021277e+03 
5.230507e+03 
-3.457591e+02 
-1.827064e+04 
6.507891e+03 
2.017571e+04 
-8.455468e+02 
-1.975055e+04 
-2.042080e+02 
-3.214679e+03 
-1.179671e+04 
-6.127238e+03 
4.912948e+03 
2.685258e+03 
8.751994e+03 
1.322313e+04 
3.304776e+02 
7.091056e+03 
-1.066435e+03 
6.355755e+03 
4.715488e+03 
-1.572243e+04 
-1.176865e+04 
-8.139985e+03 
-4.311774e+03 
-2.122332e+03 
-1.378623e+03 
-9.134553e+02 
-1.523273e+03 
-9.047907e+02 
-7.455025e+02 
6.364851e+00 
8.812134e+02 
9.672967e+02 
1.395519e+03 
1.021987e+03 
8.364157e+02 
6.706077e+02 
6.436059e+02 
4.270051e+02 
3.838525e+02 
1.995190e+02 
2.211684e+02 
1.261847e+02 
1.245489e+02 
8.700325e+01 
1.222261e+02 
8.527767e+01 
1.306479e+02 
1.297771e+02 
1.515352e+02 
1.328276e+02 
1.674392e+02 
1.603080e+02 
1.753810e+02 
1.454532e+02 
1.538893e+02 
1.504702e+02 
1.453027e+02 
1.193594e+02 
1.156827e+02 
1.156308e+02 
1.054126e+02 
8.411636e+01 
8.065196e+01 
8.509890e+01 
7.603116e+01 
5.099962e+01 
5.484594e+01 
6.299783e+01 
5.995502e+01 
2.644035e+01 
3.670452e+01 
5.047129e+01 
1.692749e+01 
2.850059e+01 
6.767436e+01 
3.192408e-02 
-2.424891e+01 
4.439844e+01 
4.276096e+01 
-1.569548e+01 
6.418865e+00 
2.493776e+01 
9.565794e+00 
4.038816e-02 
-1.772569e+00 
-8.106861e+00 
9.857076e-01 
-1.065629e+01 
4.920806e+01 
3.583686e+01 
-7.608515e+00 
-1.178721e+02 
-1.495618e+02 
3.700099e+02 
-1.653508e+02 
-2.203633e+01 
-9.205689e+01 
6.254258e+01 
