# vtk DataFile Version 2.0
fY_Lag
ASCII
DATASET UNSTRUCTURED_GRID

FIELD FieldData 1
TIME 1 1 double
0.22000000
POINTS 310 float
1.008952640116914e+00 2.003804668040802e+00 0.000000000000000e+00
1.027872181018611e+00 2.011966248451900e+00 0.000000000000000e+00
1.046848835634771e+00 2.019427813172169e+00 0.000000000000000e+00
1.066136493869839e+00 2.027037384688175e+00 0.000000000000000e+00
1.084782905501635e+00 2.035410889136119e+00 0.000000000000000e+00
1.104119658919400e+00 2.042811700694894e+00 0.000000000000000e+00
1.123388054685027e+00 2.049531918119346e+00 0.000000000000000e+00
1.142564420355768e+00 2.057367646929465e+00 0.000000000000000e+00
1.161926192984110e+00 2.063957304731644e+00 0.000000000000000e+00
1.180930331807684e+00 2.072066672285144e+00 0.000000000000000e+00
1.200567231112143e+00 2.078158418961813e+00 0.000000000000000e+00
1.219451014743110e+00 2.086430941246652e+00 0.000000000000000e+00
1.238757560613270e+00 2.093577984353257e+00 0.000000000000000e+00
1.257394352941516e+00 2.102274534791164e+00 0.000000000000000e+00
1.276476259971517e+00 2.109983069059695e+00 0.000000000000000e+00
1.294801681651873e+00 2.119165188114128e+00 0.000000000000000e+00
1.313298722230396e+00 2.128372932834883e+00 0.000000000000000e+00
1.331418286888199e+00 2.137828146529211e+00 0.000000000000000e+00
1.349234875926184e+00 2.148262165091548e+00 0.000000000000000e+00
1.367207202657198e+00 2.158051179190544e+00 0.000000000000000e+00
1.384823380997887e+00 2.168460883713369e+00 0.000000000000000e+00
1.402753806215518e+00 2.178430690174486e+00 0.000000000000000e+00
1.420593386822428e+00 2.188764596630756e+00 0.000000000000000e+00
1.438283149191683e+00 2.198737934629572e+00 0.000000000000000e+00
1.456587333129680e+00 2.208557966243564e+00 0.000000000000000e+00
1.474288983141079e+00 2.217627583293188e+00 0.000000000000000e+00
1.493127799189875e+00 2.226725838507622e+00 0.000000000000000e+00
1.511208763601263e+00 2.235506018176737e+00 0.000000000000000e+00
1.530077975109166e+00 2.244067500646949e+00 0.000000000000000e+00
1.548714530016360e+00 2.251716435498675e+00 0.000000000000000e+00
1.566952362932381e+00 2.261345351573600e+00 0.000000000000000e+00
1.586049195538913e+00 2.268771708850039e+00 0.000000000000000e+00
1.604714312669437e+00 2.277077325157209e+00 0.000000000000000e+00
1.623260098775293e+00 2.285434956571809e+00 0.000000000000000e+00
1.642644134753162e+00 2.292276716207926e+00 0.000000000000000e+00
1.661850537073979e+00 2.299205795861233e+00 0.000000000000000e+00
1.680272943405062e+00 2.308322068777361e+00 0.000000000000000e+00
1.700447817448157e+00 2.311236364290153e+00 0.000000000000000e+00
1.719111292862327e+00 2.319765091961833e+00 0.000000000000000e+00
1.738470430024419e+00 2.326064709090899e+00 0.000000000000000e+00
1.758641420383698e+00 2.330638300494448e+00 0.000000000000000e+00
1.777873451649328e+00 2.336643384841921e+00 0.000000000000000e+00
1.797871884298247e+00 2.341767432330729e+00 0.000000000000000e+00
1.817621412113939e+00 2.345927264575508e+00 0.000000000000000e+00
1.837862728065706e+00 2.349932699290329e+00 0.000000000000000e+00
1.858212163929942e+00 2.351684697695993e+00 0.000000000000000e+00
1.877092717719683e+00 2.358673016402007e+00 0.000000000000000e+00
1.897778386146868e+00 2.359955814966175e+00 0.000000000000000e+00
1.917591114712444e+00 2.363163362186136e+00 0.000000000000000e+00
1.938212736055934e+00 2.365811761464483e+00 0.000000000000000e+00
1.957680098527385e+00 2.369656677261109e+00 0.000000000000000e+00
1.978242157242697e+00 2.370877486192615e+00 0.000000000000000e+00
1.998250043907772e+00 2.373538608053409e+00 0.000000000000000e+00
2.018586053641006e+00 2.376579132377187e+00 0.000000000000000e+00
2.037933216947011e+00 2.380915254787340e+00 0.000000000000000e+00
2.058523360158162e+00 2.382262906092683e+00 0.000000000000000e+00
2.078731412704117e+00 2.385218069319284e+00 0.000000000000000e+00
2.097703032696827e+00 2.391150106587002e+00 0.000000000000000e+00
2.118171892456250e+00 2.393256915861730e+00 0.000000000000000e+00
2.137946433766902e+00 2.394884292267652e+00 0.000000000000000e+00
2.158225494909837e+00 2.398127522164268e+00 0.000000000000000e+00
2.177869548307013e+00 2.401636150363192e+00 0.000000000000000e+00
2.198381847329040e+00 2.402954051500855e+00 0.000000000000000e+00
2.217705149383214e+00 2.400841840888111e+00 0.000000000000000e+00
2.237759349226450e+00 2.401767172151151e+00 0.000000000000000e+00
2.258162268987022e+00 2.401449375804489e+00 0.000000000000000e+00
2.277694957637872e+00 2.397114927009578e+00 0.000000000000000e+00
2.296748385613873e+00 2.392394567570745e+00 0.000000000000000e+00
2.316156272961204e+00 2.388219216152818e+00 0.000000000000000e+00
2.336047830576786e+00 2.384331193456343e+00 0.000000000000000e+00
2.355147100814415e+00 2.377785499855602e+00 0.000000000000000e+00
2.373863764853371e+00 2.372086957789300e+00 0.000000000000000e+00
2.393633303974946e+00 2.369525662084057e+00 0.000000000000000e+00
2.413977304648831e+00 2.368553951776904e+00 0.000000000000000e+00
2.433738170490213e+00 2.367179824553924e+00 0.000000000000000e+00
2.453790050086749e+00 2.366087058064918e+00 0.000000000000000e+00
2.473833496937449e+00 2.366958380391919e+00 0.000000000000000e+00
2.493848637002535e+00 2.368371420652435e+00 0.000000000000000e+00
2.514008795445887e+00 2.368391970731665e+00 0.000000000000000e+00
2.533765174262402e+00 2.366470456617851e+00 0.000000000000000e+00
2.553964423915853e+00 2.363655685996996e+00 0.000000000000000e+00
2.573850187697203e+00 2.361926711530101e+00 0.000000000000000e+00
2.593286827471757e+00 2.357574103369774e+00 0.000000000000000e+00
2.613270563250777e+00 2.353145830667132e+00 0.000000000000000e+00
2.633109010190299e+00 2.350712935563775e+00 0.000000000000000e+00
2.652613996437647e+00 2.345414207650993e+00 0.000000000000000e+00
2.672103667828512e+00 2.339962743769126e+00 0.000000000000000e+00
2.692062121513231e+00 2.336636417739169e+00 0.000000000000000e+00
2.711952584562935e+00 2.333115797024071e+00 0.000000000000000e+00
2.730903192145991e+00 2.326473266024502e+00 0.000000000000000e+00
2.750517329964427e+00 2.320825833144298e+00 0.000000000000000e+00
2.770137803522632e+00 2.316568861672208e+00 0.000000000000000e+00
2.790111713738359e+00 2.313266468944518e+00 0.000000000000000e+00
2.809554230243917e+00 2.308775533773250e+00 0.000000000000000e+00
2.828967131356455e+00 2.302459533719655e+00 0.000000000000000e+00
2.848495787221426e+00 2.298557521080866e+00 0.000000000000000e+00
2.868394604845566e+00 2.295737787631615e+00 0.000000000000000e+00
2.887731802320143e+00 2.289810478458094e+00 0.000000000000000e+00
2.906683466569204e+00 2.283231250081919e+00 0.000000000000000e+00
2.925943981981499e+00 2.277044163399314e+00 0.000000000000000e+00
2.945703586102501e+00 2.273130013560298e+00 0.000000000000000e+00
2.964976409924343e+00 2.269472969792962e+00 0.000000000000000e+00
2.984462539228566e+00 2.262821109843971e+00 0.000000000000000e+00
3.003223862951752e+00 2.257042535230290e+00 0.000000000000000e+00
3.023143638711738e+00 2.252204181192422e+00 0.000000000000000e+00
3.042255238637959e+00 2.248406204602783e+00 0.000000000000000e+00
3.061637256513379e+00 2.242585179884532e+00 0.000000000000000e+00
3.080528565978566e+00 2.235201935855354e+00 0.000000000000000e+00
3.100017299428341e+00 2.230719547770883e+00 0.000000000000000e+00
3.119466939454573e+00 2.226569872564284e+00 0.000000000000000e+00
3.139219799999629e+00 2.220814986941409e+00 0.000000000000000e+00
3.157955023383050e+00 2.216358494765674e+00 0.000000000000000e+00
3.177751816309703e+00 2.210561551809527e+00 0.000000000000000e+00
3.197246183796830e+00 2.206198406886856e+00 0.000000000000000e+00
3.216530365999804e+00 2.201431867946452e+00 0.000000000000000e+00
3.236088648665316e+00 2.194764574006254e+00 0.000000000000000e+00
3.254808725833647e+00 2.189340350746982e+00 0.000000000000000e+00
3.274959535313188e+00 2.184628528905342e+00 0.000000000000000e+00
3.294052030032359e+00 2.180625225220647e+00 0.000000000000000e+00
3.313957180641762e+00 2.174938716808920e+00 0.000000000000000e+00
3.333140857929640e+00 2.169337992500386e+00 0.000000000000000e+00
3.352618184368508e+00 2.164312788856054e+00 0.000000000000000e+00
3.372082317140704e+00 2.159883044370877e+00 0.000000000000000e+00
3.391635346876012e+00 2.154065858202486e+00 0.000000000000000e+00
3.410506354128919e+00 2.147376340707681e+00 0.000000000000000e+00
3.429871848063514e+00 2.141087934812906e+00 0.000000000000000e+00
3.449128793251470e+00 2.136398356038902e+00 0.000000000000000e+00
3.468703237863724e+00 2.130877745277984e+00 0.000000000000000e+00
3.487702467233203e+00 2.123519525510470e+00 0.000000000000000e+00
3.506950923492004e+00 2.119360037096064e+00 0.000000000000000e+00
3.526371720600556e+00 2.114405038369980e+00 0.000000000000000e+00
3.546256760971623e+00 2.109167162947789e+00 0.000000000000000e+00
3.564839607947807e+00 2.102175548955361e+00 0.000000000000000e+00
3.584379618503796e+00 2.096428414800194e+00 0.000000000000000e+00
3.604179849584952e+00 2.093413413740800e+00 0.000000000000000e+00
3.623328391207568e+00 2.086639552553739e+00 0.000000000000000e+00
3.642688275746839e+00 2.081403186787613e+00 0.000000000000000e+00
3.662350830077791e+00 2.076311793302816e+00 0.000000000000000e+00
3.681494752231406e+00 2.071010514334609e+00 0.000000000000000e+00
3.701360637203921e+00 2.066037482831799e+00 0.000000000000000e+00
3.720748695689678e+00 2.061508979425895e+00 0.000000000000000e+00
3.740462438331576e+00 2.056627839195713e+00 0.000000000000000e+00
3.759575141837157e+00 2.050278495886599e+00 0.000000000000000e+00
3.778486403503182e+00 2.044010556830363e+00 0.000000000000000e+00
3.798268410372549e+00 2.039756739661035e+00 0.000000000000000e+00
3.817267013430712e+00 2.034219180868002e+00 0.000000000000000e+00
3.836167095043842e+00 2.026609422538046e+00 0.000000000000000e+00
3.855884598685164e+00 2.022395679995157e+00 0.000000000000000e+00
3.875665193094366e+00 2.018060440458391e+00 0.000000000000000e+00
3.894833890519430e+00 2.012727282834318e+00 0.000000000000000e+00
3.914459764546235e+00 2.007738028244907e+00 0.000000000000000e+00
3.934382304045835e+00 2.005701982558892e+00 0.000000000000000e+00
3.954674988454260e+00 2.005009397157035e+00 0.000000000000000e+00
3.973966369652203e+00 2.000299076942170e+00 0.000000000000000e+00
3.994134901531189e+00 2.001093274511052e+00 0.000000000000000e+00
1.008952640116913e+00 2.996195331959201e+00 0.000000000000000e+00
1.027872181018609e+00 2.988033751548103e+00 0.000000000000000e+00
1.046848835634771e+00 2.980572186827839e+00 0.000000000000000e+00
1.066136493869841e+00 2.972962615311836e+00 0.000000000000000e+00
1.084782905501635e+00 2.964589110863892e+00 0.000000000000000e+00
1.104119658919404e+00 2.957188299305120e+00 0.000000000000000e+00
1.123388054685028e+00 2.950468081880671e+00 0.000000000000000e+00
1.142564420355771e+00 2.942632353070552e+00 0.000000000000000e+00
1.161926192984114e+00 2.936042695268380e+00 0.000000000000000e+00
1.180930331807687e+00 2.927933327714880e+00 0.000000000000000e+00
1.200567231112147e+00 2.921841581038211e+00 0.000000000000000e+00
1.219451014743113e+00 2.913569058753372e+00 0.000000000000000e+00
1.238757560613275e+00 2.906422015646772e+00 0.000000000000000e+00
1.257394352941520e+00 2.897725465208867e+00 0.000000000000000e+00
1.276476259971521e+00 2.890016930940330e+00 0.000000000000000e+00
1.294801681651880e+00 2.880834811885908e+00 0.000000000000000e+00
1.313298722230405e+00 2.871627067165155e+00 0.000000000000000e+00
1.331418286888209e+00 2.862171853470830e+00 0.000000000000000e+00
1.349234875926195e+00 2.851737834908497e+00 0.000000000000000e+00
1.367207202657209e+00 2.841948820809502e+00 0.000000000000000e+00
1.384823380997903e+00 2.831539116286683e+00 0.000000000000000e+00
1.402753806215526e+00 2.821569309825558e+00 0.000000000000000e+00
1.420593386822445e+00 2.811235403369296e+00 0.000000000000000e+00
1.438283149191692e+00 2.801262065370475e+00 0.000000000000000e+00
1.456587333129691e+00 2.791442033756480e+00 0.000000000000000e+00
1.474288983141093e+00 2.782372416706868e+00 0.000000000000000e+00
1.493127799189889e+00 2.773274161492432e+00 0.000000000000000e+00
1.511208763601277e+00 2.764493981823316e+00 0.000000000000000e+00
1.530077975109178e+00 2.755932499353101e+00 0.000000000000000e+00
1.548714530016372e+00 2.748283564501374e+00 0.000000000000000e+00
1.566952362932390e+00 2.738654648426444e+00 0.000000000000000e+00
1.586049195538921e+00 2.731228291150007e+00 0.000000000000000e+00
1.604714312669446e+00 2.722922674842832e+00 0.000000000000000e+00
1.623260098775297e+00 2.714565043428229e+00 0.000000000000000e+00
1.642644134753164e+00 2.707723283792104e+00 0.000000000000000e+00
1.661850537073980e+00 2.700794204138798e+00 0.000000000000000e+00
1.680272943405062e+00 2.691677931222664e+00 0.000000000000000e+00
1.700447817448157e+00 2.688763635709872e+00 0.000000000000000e+00
1.719111292862321e+00 2.680234908038184e+00 0.000000000000000e+00
1.738470430024415e+00 2.673935290909114e+00 0.000000000000000e+00
1.758641420383692e+00 2.669361699505568e+00 0.000000000000000e+00
1.777873451649321e+00 2.663356615158088e+00 0.000000000000000e+00
1.797871884298240e+00 2.658232567669276e+00 0.000000000000000e+00
1.817621412113929e+00 2.654072735424490e+00 0.000000000000000e+00
1.837862728065696e+00 2.650067300709665e+00 0.000000000000000e+00
1.858212163929932e+00 2.648315302304010e+00 0.000000000000000e+00
1.877092717719672e+00 2.641326983597988e+00 0.000000000000000e+00
1.897778386146856e+00 2.640044185033817e+00 0.000000000000000e+00
1.917591114712433e+00 2.636836637813862e+00 0.000000000000000e+00
1.938212736055924e+00 2.634188238535512e+00 0.000000000000000e+00
1.957680098527372e+00 2.630343322738877e+00 0.000000000000000e+00
1.978242157242685e+00 2.629122513807370e+00 0.000000000000000e+00
1.998250043907758e+00 2.626461391946577e+00 0.000000000000000e+00
2.018586053640992e+00 2.623420867622798e+00 0.000000000000000e+00
2.037933216946999e+00 2.619084745212655e+00 0.000000000000000e+00
2.058523360158147e+00 2.617737093907308e+00 0.000000000000000e+00
2.078731412704105e+00 2.614781930680707e+00 0.000000000000000e+00
2.097703032696816e+00 2.608849893412999e+00 0.000000000000000e+00
2.118171892456238e+00 2.606743084138267e+00 0.000000000000000e+00
2.137946433766892e+00 2.605115707732357e+00 0.000000000000000e+00
2.158225494909823e+00 2.601872477835736e+00 0.000000000000000e+00
2.177869548307005e+00 2.598363849636819e+00 0.000000000000000e+00
2.198381847329029e+00 2.597045948499162e+00 0.000000000000000e+00
2.217705149383208e+00 2.599158159111895e+00 0.000000000000000e+00
2.237759349226441e+00 2.598232827848852e+00 0.000000000000000e+00
2.258162268987015e+00 2.598550624195529e+00 0.000000000000000e+00
2.277694957637860e+00 2.602885072990449e+00 0.000000000000000e+00
2.296748385613866e+00 2.607605432429286e+00 0.000000000000000e+00
2.316156272961196e+00 2.611780783847212e+00 0.000000000000000e+00
2.336047830576775e+00 2.615668806543687e+00 0.000000000000000e+00
2.355147100814405e+00 2.622214500144434e+00 0.000000000000000e+00
2.373863764853357e+00 2.627913042210738e+00 0.000000000000000e+00
2.393633303974942e+00 2.630474337915974e+00 0.000000000000000e+00
2.413977304648814e+00 2.631446048223128e+00 0.000000000000000e+00
2.433738170490207e+00 2.632820175446099e+00 0.000000000000000e+00
2.453790050086738e+00 2.633912941935105e+00 0.000000000000000e+00
2.473833496937440e+00 2.633041619608108e+00 0.000000000000000e+00
2.493848637002528e+00 2.631628579347590e+00 0.000000000000000e+00
2.514008795445877e+00 2.631608029268367e+00 0.000000000000000e+00
2.533765174262393e+00 2.633529543382185e+00 0.000000000000000e+00
2.553964423915846e+00 2.636344314003042e+00 0.000000000000000e+00
2.573850187697195e+00 2.638073288469933e+00 0.000000000000000e+00
2.593286827471747e+00 2.642425896630263e+00 0.000000000000000e+00
2.613270563250769e+00 2.646854169332900e+00 0.000000000000000e+00
2.633109010190289e+00 2.649287064436266e+00 0.000000000000000e+00
2.652613996437639e+00 2.654585792349046e+00 0.000000000000000e+00
2.672103667828505e+00 2.660037256230907e+00 0.000000000000000e+00
2.692062121513226e+00 2.663363582260860e+00 0.000000000000000e+00
2.711952584562932e+00 2.666884202975964e+00 0.000000000000000e+00
2.730903192145982e+00 2.673526733975527e+00 0.000000000000000e+00
2.750517329964423e+00 2.679174166855736e+00 0.000000000000000e+00
2.770137803522630e+00 2.683431138327805e+00 0.000000000000000e+00
2.790111713738358e+00 2.686733531055482e+00 0.000000000000000e+00
2.809554230243915e+00 2.691224466226773e+00 0.000000000000000e+00
2.828967131356451e+00 2.697540466280371e+00 0.000000000000000e+00
2.848495787221424e+00 2.701442478919154e+00 0.000000000000000e+00
2.868394604845566e+00 2.704262212368400e+00 0.000000000000000e+00
2.887731802320136e+00 2.710189521541928e+00 0.000000000000000e+00
2.906683466569208e+00 2.716768749918104e+00 0.000000000000000e+00
2.925943981981498e+00 2.722955836600691e+00 0.000000000000000e+00
2.945703586102502e+00 2.726869986439705e+00 0.000000000000000e+00
2.964976409924344e+00 2.730527030207062e+00 0.000000000000000e+00
2.984462539228568e+00 2.737178890156059e+00 0.000000000000000e+00
3.003223862951752e+00 2.742957464769718e+00 0.000000000000000e+00
3.023143638711742e+00 2.747795818807580e+00 0.000000000000000e+00
3.042255238637965e+00 2.751593795397221e+00 0.000000000000000e+00
3.061637256513381e+00 2.757414820115483e+00 0.000000000000000e+00
3.080528565978569e+00 2.764798064144660e+00 0.000000000000000e+00
3.100017299428346e+00 2.769280452229115e+00 0.000000000000000e+00
3.119466939454582e+00 2.773430127435716e+00 0.000000000000000e+00
3.139219799999628e+00 2.779185013058601e+00 0.000000000000000e+00
3.157955023383060e+00 2.783641505234337e+00 0.000000000000000e+00
3.177751816309708e+00 2.789438448190480e+00 0.000000000000000e+00
3.197246183796837e+00 2.793801593113149e+00 0.000000000000000e+00
3.216530365999811e+00 2.798568132053550e+00 0.000000000000000e+00
3.236088648665322e+00 2.805235425993756e+00 0.000000000000000e+00
3.254808725833654e+00 2.810659649253014e+00 0.000000000000000e+00
3.274959535313196e+00 2.815371471094657e+00 0.000000000000000e+00
3.294052030032366e+00 2.819374774779357e+00 0.000000000000000e+00
3.313957180641767e+00 2.825061283191097e+00 0.000000000000000e+00
3.333140857929641e+00 2.830662007499620e+00 0.000000000000000e+00
3.352618184368517e+00 2.835687211143962e+00 0.000000000000000e+00
3.372082317140705e+00 2.840116955629137e+00 0.000000000000000e+00
3.391635346876015e+00 2.845934141797542e+00 0.000000000000000e+00
3.410506354128918e+00 2.852623659292341e+00 0.000000000000000e+00
3.429871848063521e+00 2.858912065187104e+00 0.000000000000000e+00
3.449128793251471e+00 2.863601643961114e+00 0.000000000000000e+00
3.468703237863726e+00 2.869122254722045e+00 0.000000000000000e+00
3.487702467233202e+00 2.876480474489557e+00 0.000000000000000e+00
3.506950923492003e+00 2.880639962903957e+00 0.000000000000000e+00
3.526371720600560e+00 2.885594961630045e+00 0.000000000000000e+00
3.546256760971621e+00 2.890832837052226e+00 0.000000000000000e+00
3.564839607947813e+00 2.897824451044657e+00 0.000000000000000e+00
3.584379618503799e+00 2.903571585199814e+00 0.000000000000000e+00
3.604179849584955e+00 2.906586586259219e+00 0.000000000000000e+00
3.623328391207566e+00 2.913360447446288e+00 0.000000000000000e+00
3.642688275746842e+00 2.918596813212408e+00 0.000000000000000e+00
3.662350830077792e+00 2.923688206697200e+00 0.000000000000000e+00
3.681494752231405e+00 2.928989485665405e+00 0.000000000000000e+00
3.701360637203926e+00 2.933962517168214e+00 0.000000000000000e+00
3.720748695689674e+00 2.938491020574125e+00 0.000000000000000e+00
3.740462438331578e+00 2.943372160804314e+00 0.000000000000000e+00
3.759575141837150e+00 2.949721504113424e+00 0.000000000000000e+00
3.778486403503186e+00 2.955989443169656e+00 0.000000000000000e+00
3.798268410372546e+00 2.960243260338983e+00 0.000000000000000e+00
3.817267013430715e+00 2.965780819132010e+00 0.000000000000000e+00
3.836167095043840e+00 2.973390577461970e+00 0.000000000000000e+00
3.855884598685164e+00 2.977604320004860e+00 0.000000000000000e+00
3.875665193094362e+00 2.981939559541625e+00 0.000000000000000e+00
3.894833890519432e+00 2.987272717165696e+00 0.000000000000000e+00
3.914459764546232e+00 2.992261971755104e+00 0.000000000000000e+00
3.934382304045837e+00 2.994298017441126e+00 0.000000000000000e+00
3.954674988454260e+00 2.994990602842976e+00 0.000000000000000e+00
3.973966369652203e+00 2.999700923057834e+00 0.000000000000000e+00
3.994134901531190e+00 2.998906725488949e+00 0.000000000000000e+00

POINT_DATA   310
SCALARS fY_Lag double
LOOKUP_TABLE default

3.492216e+02 
-1.095345e+03 
1.306671e+03 
-6.194006e+02 
4.428280e+02 
-1.376075e+03 
1.578675e+03 
-1.500174e+03 
1.489487e+03 
-1.408129e+03 
1.333747e+03 
-6.586360e+02 
6.948018e+02 
-3.733055e+02 
4.680410e+02 
7.838765e+02 
-8.043866e+02 
1.516790e+03 
-1.160939e+03 
3.042110e+02 
7.043130e+01 
6.707003e+02 
-1.662973e+03 
2.063829e+03 
-4.355811e+03 
4.400581e+03 
-3.593552e+03 
2.419580e+03 
-2.624696e+03 
2.736545e+03 
-1.625866e+03 
1.318213e+02 
-3.313466e+02 
1.191144e+01 
-3.512934e+02 
1.510636e+03 
-3.499529e+03 
2.967489e+03 
-1.555864e+03 
-1.367433e+02 
-6.714326e+02 
9.066137e+02 
-1.515927e+03 
6.949857e+02 
-1.402752e+03 
1.359893e+03 
-1.505906e+03 
6.754747e+01 
7.577834e+02 
-9.848046e+02 
-8.570638e+01 
2.750108e+02 
7.395598e+02 
-8.511837e+02 
6.216021e+00 
7.571142e+02 
-3.466921e+01 
-1.047355e+02 
-8.618785e+02 
1.514291e+03 
-8.136296e+02 
-2.948637e+02 
-8.640903e+02 
2.759578e+02 
-4.658580e+02 
-1.286239e+03 
6.251984e+02 
-3.513800e+02 
-7.590759e+02 
-8.917063e+02 
2.044141e+03 
-1.436632e+02 
3.028553e+02 
2.549764e+02 
-2.652528e+01 
7.114958e+02 
2.262065e+02 
-4.600002e+02 
-5.558032e+02 
-9.135927e+02 
7.085301e+02 
-6.092183e+02 
-1.248012e+03 
1.494271e+03 
-1.282138e+03 
-1.329523e+02 
8.293242e+02 
-6.028971e+01 
-7.867496e+02 
-6.497187e+02 
1.432076e+03 
5.708772e+01 
1.128332e+02 
-1.892136e+03 
2.154778e+03 
-2.150077e+01 
-1.437510e+03 
1.561224e+02 
-3.047876e+02 
1.063377e+03 
1.036915e+03 
-3.495367e+03 
3.199420e+03 
-1.936556e+03 
2.484596e+03 
-2.297292e+03 
-7.781004e+02 
1.865561e+03 
3.746996e+02 
-2.194531e+03 
3.584747e+03 
-3.781404e+03 
2.140732e+03 
8.688262e+01 
-2.977104e+03 
3.825230e+03 
-2.632984e+03 
2.739453e+03 
-3.429259e+03 
1.860750e+03 
-4.970297e+01 
5.700594e+02 
-1.615728e+03 
6.932056e+02 
-8.420575e+02 
2.000892e+03 
-1.606401e+03 
-9.578437e+02 
2.863090e+03 
-8.873458e+02 
-1.489829e+03 
1.407926e+03 
-1.067834e+03 
1.734989e+03 
-1.879833e+03 
1.176641e+03 
-5.562006e+02 
1.059906e+03 
-1.413914e+03 
1.469016e+03 
-1.075350e+03 
-8.931098e+01 
6.332821e+02 
-3.482220e+02 
7.676414e+02 
-2.482957e+03 
1.956658e+03 
-3.894917e+01 
6.388943e+02 
-6.405971e+02 
1.498264e+03 
3.995058e+02 
-5.776919e+02 
1.261240e+03 
-1.080824e+03 
-3.492216e+02 
1.095345e+03 
-1.306671e+03 
6.194006e+02 
-4.428280e+02 
1.376075e+03 
-1.578675e+03 
1.500174e+03 
-1.489487e+03 
1.408129e+03 
-1.333747e+03 
6.586360e+02 
-6.948018e+02 
3.733055e+02 
-4.680410e+02 
-7.838765e+02 
8.043866e+02 
-1.516790e+03 
1.160939e+03 
-3.042110e+02 
-7.043130e+01 
-6.707003e+02 
1.662973e+03 
-2.063829e+03 
4.355811e+03 
-4.400581e+03 
3.593552e+03 
-2.419580e+03 
2.624696e+03 
-2.736545e+03 
1.625866e+03 
-1.318213e+02 
3.313466e+02 
-1.191144e+01 
3.512934e+02 
-1.510636e+03 
3.499529e+03 
-2.967489e+03 
1.555864e+03 
1.367433e+02 
6.714326e+02 
-9.066137e+02 
1.515927e+03 
-6.949857e+02 
1.402752e+03 
-1.359893e+03 
1.505906e+03 
-6.754747e+01 
-7.577834e+02 
9.848046e+02 
8.570638e+01 
-2.750108e+02 
-7.395598e+02 
8.511837e+02 
-6.216021e+00 
-7.571142e+02 
3.466921e+01 
1.047355e+02 
8.618785e+02 
-1.514291e+03 
8.136296e+02 
2.948637e+02 
8.640903e+02 
-2.759578e+02 
4.658580e+02 
1.286239e+03 
-6.251984e+02 
3.513800e+02 
7.590759e+02 
8.917063e+02 
-2.044141e+03 
1.436632e+02 
-3.028553e+02 
-2.549764e+02 
2.652528e+01 
-7.114958e+02 
-2.262065e+02 
4.600002e+02 
5.558032e+02 
9.135927e+02 
-7.085301e+02 
6.092183e+02 
1.248012e+03 
-1.494271e+03 
1.282138e+03 
1.329523e+02 
-8.293242e+02 
6.028971e+01 
7.867496e+02 
6.497187e+02 
-1.432076e+03 
-5.708772e+01 
-1.128332e+02 
1.892136e+03 
-2.154778e+03 
2.150077e+01 
1.437510e+03 
-1.561224e+02 
3.047876e+02 
-1.063377e+03 
-1.036915e+03 
3.495367e+03 
-3.199420e+03 
1.936556e+03 
-2.484596e+03 
2.297292e+03 
7.781004e+02 
-1.865561e+03 
-3.746996e+02 
2.194531e+03 
-3.584747e+03 
3.781404e+03 
-2.140732e+03 
-8.688262e+01 
2.977104e+03 
-3.825230e+03 
2.632984e+03 
-2.739453e+03 
3.429259e+03 
-1.860750e+03 
4.970297e+01 
-5.700594e+02 
1.615728e+03 
-6.932056e+02 
8.420575e+02 
-2.000892e+03 
1.606401e+03 
9.578437e+02 
-2.863090e+03 
8.873458e+02 
1.489829e+03 
-1.407926e+03 
1.067834e+03 
-1.734989e+03 
1.879833e+03 
-1.176641e+03 
5.562006e+02 
-1.059906e+03 
1.413914e+03 
-1.469016e+03 
1.075350e+03 
8.931098e+01 
-6.332821e+02 
3.482220e+02 
-7.676414e+02 
2.482957e+03 
-1.956658e+03 
3.894917e+01 
-6.388943e+02 
6.405971e+02 
-1.498264e+03 
-3.995058e+02 
5.776919e+02 
-1.261240e+03 
1.080824e+03 
