# vtk DataFile Version 2.0
fY_Lag
ASCII
DATASET UNSTRUCTURED_GRID

FIELD FieldData 1
TIME 1 1 double
0.13000000
POINTS 310 float
1.016168668924603e+00 2.009070095054034e+00 0.000000000000000e+00
1.035569849904470e+00 2.017935937224748e+00 0.000000000000000e+00
1.054334764675964e+00 2.028570604132695e+00 0.000000000000000e+00
1.074492613963738e+00 2.036202848539174e+00 0.000000000000000e+00
1.094406733768212e+00 2.043477035475350e+00 0.000000000000000e+00
1.115031829898725e+00 2.050119821942555e+00 0.000000000000000e+00
1.135661304638631e+00 2.055291324256604e+00 0.000000000000000e+00
1.156831812806969e+00 2.060377276660469e+00 0.000000000000000e+00
1.178121101354335e+00 2.063443120532608e+00 0.000000000000000e+00
1.199293318201337e+00 2.067884909050818e+00 0.000000000000000e+00
1.220698472776213e+00 2.070424403846608e+00 0.000000000000000e+00
1.242188011764649e+00 2.074298255159618e+00 0.000000000000000e+00
1.263631847645063e+00 2.076800305641311e+00 0.000000000000000e+00
1.284647569018752e+00 2.081548112489971e+00 0.000000000000000e+00
1.306414010889294e+00 2.085120361509230e+00 0.000000000000000e+00
1.327198968902578e+00 2.089372166340553e+00 0.000000000000000e+00
1.349102378780693e+00 2.093062807064703e+00 0.000000000000000e+00
1.370120757788815e+00 2.096864272885924e+00 0.000000000000000e+00
1.391734728892485e+00 2.101712711654968e+00 0.000000000000000e+00
1.412844884499710e+00 2.105235988531001e+00 0.000000000000000e+00
1.434253852901822e+00 2.108888347913897e+00 0.000000000000000e+00
1.455697101822963e+00 2.112633752039327e+00 0.000000000000000e+00
1.477235149626555e+00 2.117192421644043e+00 0.000000000000000e+00
1.497935614269563e+00 2.120861718204786e+00 0.000000000000000e+00
1.519807222166132e+00 2.125208376690359e+00 0.000000000000000e+00
1.540346640377498e+00 2.130610329445822e+00 0.000000000000000e+00
1.561702633171524e+00 2.137428160087139e+00 0.000000000000000e+00
1.581692126001377e+00 2.143163058774216e+00 0.000000000000000e+00
1.603110106647562e+00 2.149487769599543e+00 0.000000000000000e+00
1.623624294604624e+00 2.156081088191687e+00 0.000000000000000e+00
1.643755943302061e+00 2.164436397221507e+00 0.000000000000000e+00
1.664568665839745e+00 2.169209753783538e+00 0.000000000000000e+00
1.685081242561019e+00 2.177534312359035e+00 0.000000000000000e+00
1.704660681891106e+00 2.186803139249077e+00 0.000000000000000e+00
1.725857410516788e+00 2.193036611498627e+00 0.000000000000000e+00
1.746253388801672e+00 2.199552587296316e+00 0.000000000000000e+00
1.765672204588605e+00 2.208878419822994e+00 0.000000000000000e+00
1.787658586485450e+00 2.209877968553862e+00 0.000000000000000e+00
1.807783882988955e+00 2.219029265539024e+00 0.000000000000000e+00
1.827955094278044e+00 2.226128890314391e+00 0.000000000000000e+00
1.849939003161161e+00 2.229101797823645e+00 0.000000000000000e+00
1.870799693467335e+00 2.234024441217520e+00 0.000000000000000e+00
1.891794714099697e+00 2.239834076821508e+00 0.000000000000000e+00
1.912410182635533e+00 2.244698441366111e+00 0.000000000000000e+00
1.933914122922088e+00 2.248573004097739e+00 0.000000000000000e+00
1.955835885075847e+00 2.252178516197367e+00 0.000000000000000e+00
1.974872030233860e+00 2.261551019247901e+00 0.000000000000000e+00
1.996747303527131e+00 2.262347410242351e+00 0.000000000000000e+00
2.018220947386660e+00 2.264874060920061e+00 0.000000000000000e+00
2.039946013063457e+00 2.268655477142752e+00 0.000000000000000e+00
2.060124123851479e+00 2.274082948633454e+00 0.000000000000000e+00
2.082102417487140e+00 2.275749410801301e+00 0.000000000000000e+00
2.104017700932305e+00 2.278130544936708e+00 0.000000000000000e+00
2.125547234036604e+00 2.281224060573106e+00 0.000000000000000e+00
2.145463467350841e+00 2.285798303410892e+00 0.000000000000000e+00
2.167790929663515e+00 2.286355984289785e+00 0.000000000000000e+00
2.189998779428616e+00 2.287701364757521e+00 0.000000000000000e+00
2.210123677811823e+00 2.291397684420144e+00 0.000000000000000e+00
2.232310619453797e+00 2.291003725107287e+00 0.000000000000000e+00
2.254255255101548e+00 2.289637808786139e+00 0.000000000000000e+00
2.276142220170186e+00 2.288704007027186e+00 0.000000000000000e+00
2.296852838062969e+00 2.288582713284860e+00 0.000000000000000e+00
2.319038087161979e+00 2.287129970638138e+00 0.000000000000000e+00
2.341249739259719e+00 2.282799713318146e+00 0.000000000000000e+00
2.362540403085178e+00 2.281533130455896e+00 0.000000000000000e+00
2.383715561554279e+00 2.280833294044648e+00 0.000000000000000e+00
2.406145241755818e+00 2.276756756557938e+00 0.000000000000000e+00
2.427176976212865e+00 2.273365920213009e+00 0.000000000000000e+00
2.448685182246182e+00 2.270605585019999e+00 0.000000000000000e+00
2.470565212397424e+00 2.268281669562297e+00 0.000000000000000e+00
2.492549177676282e+00 2.264542605835989e+00 0.000000000000000e+00
2.513582656773562e+00 2.261147995957414e+00 0.000000000000000e+00
2.535448460259501e+00 2.259551838049796e+00 0.000000000000000e+00
2.557475607286271e+00 2.257453730555584e+00 0.000000000000000e+00
2.579156526117622e+00 2.254993242495924e+00 0.000000000000000e+00
2.600660206419969e+00 2.253224413561890e+00 0.000000000000000e+00
2.622731988717284e+00 2.252440550897253e+00 0.000000000000000e+00
2.644657687048597e+00 2.251526234704685e+00 0.000000000000000e+00
2.666357090008129e+00 2.250927880937036e+00 0.000000000000000e+00
2.687839465221292e+00 2.251311267344848e+00 0.000000000000000e+00
2.709079582759723e+00 2.251868449061820e+00 0.000000000000000e+00
2.732126282463663e+00 2.253606164308472e+00 0.000000000000000e+00
2.753345664288879e+00 2.253682883864979e+00 0.000000000000000e+00
2.774283437570438e+00 2.254917917542318e+00 0.000000000000000e+00
2.796180122172344e+00 2.258521315781618e+00 0.000000000000000e+00
2.818555253920681e+00 2.260637408616767e+00 0.000000000000000e+00
2.839103221825973e+00 2.262054797794367e+00 0.000000000000000e+00
2.861211978062290e+00 2.264723342270581e+00 0.000000000000000e+00
2.882378515599856e+00 2.268915924507271e+00 0.000000000000000e+00
2.904063703444032e+00 2.271217727086373e+00 0.000000000000000e+00
2.925112896171854e+00 2.273742981382993e+00 0.000000000000000e+00
2.946931983281525e+00 2.275974007763991e+00 0.000000000000000e+00
2.968715846561466e+00 2.279532173236449e+00 0.000000000000000e+00
2.989259497852017e+00 2.283763396076644e+00 0.000000000000000e+00
3.010875848658658e+00 2.287323148811354e+00 0.000000000000000e+00
3.031458422254465e+00 2.292263167945269e+00 0.000000000000000e+00
3.052800224451718e+00 2.297898898744210e+00 0.000000000000000e+00
3.073795604170874e+00 2.302641615834628e+00 0.000000000000000e+00
3.094499582469954e+00 2.308978091742720e+00 0.000000000000000e+00
3.115535198773520e+00 2.315490588191244e+00 0.000000000000000e+00
3.135950899191824e+00 2.322174256376162e+00 0.000000000000000e+00
3.156053485397574e+00 2.330206824637027e+00 0.000000000000000e+00
3.176842396541945e+00 2.337649262640563e+00 0.000000000000000e+00
3.196534247330598e+00 2.344772980648918e+00 0.000000000000000e+00
3.217788477659114e+00 2.351854259678866e+00 0.000000000000000e+00
3.237854184387787e+00 2.358783423438769e+00 0.000000000000000e+00
3.258394833901582e+00 2.366176408075548e+00 0.000000000000000e+00
3.279145186329107e+00 2.372549769780707e+00 0.000000000000000e+00
3.299265807233279e+00 2.379215811051577e+00 0.000000000000000e+00
3.320810112862915e+00 2.384476203972314e+00 0.000000000000000e+00
3.341801213174602e+00 2.389445035832250e+00 0.000000000000000e+00
3.362427730170774e+00 2.394324709797657e+00 0.000000000000000e+00
3.384517866137614e+00 2.398002780050167e+00 0.000000000000000e+00
3.405352787169023e+00 2.401953199834698e+00 0.000000000000000e+00
3.427373708460151e+00 2.405466571255325e+00 0.000000000000000e+00
3.448847907297386e+00 2.408154216728318e+00 0.000000000000000e+00
3.470458428242521e+00 2.410813865501098e+00 0.000000000000000e+00
3.492781974349842e+00 2.413111503524804e+00 0.000000000000000e+00
3.513802428794667e+00 2.415385598971671e+00 0.000000000000000e+00
3.536195280881390e+00 2.417754460822744e+00 0.000000000000000e+00
3.557667430757214e+00 2.419959610996935e+00 0.000000000000000e+00
3.579760806820416e+00 2.422181202773759e+00 0.000000000000000e+00
3.601036857341053e+00 2.424346990902020e+00 0.000000000000000e+00
3.623033256488153e+00 2.427266845157635e+00 0.000000000000000e+00
3.645121016194249e+00 2.430108663303229e+00 0.000000000000000e+00
3.665636255529857e+00 2.431877844085669e+00 0.000000000000000e+00
3.687138738148149e+00 2.434283175242297e+00 0.000000000000000e+00
3.710107488906615e+00 2.436563295664934e+00 0.000000000000000e+00
3.729260193785449e+00 2.437386439316086e+00 0.000000000000000e+00
3.753087549839202e+00 2.438755693802384e+00 0.000000000000000e+00
3.772540309757745e+00 2.438142993126655e+00 0.000000000000000e+00
3.794355388793540e+00 2.436650610959199e+00 0.000000000000000e+00
3.815569180353754e+00 2.431688541230622e+00 0.000000000000000e+00
3.833715263112735e+00 2.423152394289261e+00 0.000000000000000e+00
3.852143844103011e+00 2.412061123914684e+00 0.000000000000000e+00
3.867510693627312e+00 2.399582889002539e+00 0.000000000000000e+00
3.884528221464167e+00 2.384167358085478e+00 0.000000000000000e+00
3.899961963446072e+00 2.368685564910570e+00 0.000000000000000e+00
3.911419396320832e+00 2.351156186223315e+00 0.000000000000000e+00
3.922041388084712e+00 2.333117639149051e+00 0.000000000000000e+00
3.932712260944957e+00 2.314760356739864e+00 0.000000000000000e+00
3.943329560478695e+00 2.295676247531479e+00 0.000000000000000e+00
3.951988233515500e+00 2.275492123694260e+00 0.000000000000000e+00
3.959641951001213e+00 2.255051566378099e+00 0.000000000000000e+00
3.965035587551825e+00 2.235208468631605e+00 0.000000000000000e+00
3.969174224772469e+00 2.214017390631702e+00 0.000000000000000e+00
3.974954510789182e+00 2.191933739351998e+00 0.000000000000000e+00
3.981804603098972e+00 2.171601387899530e+00 0.000000000000000e+00
3.984477416729985e+00 2.150458892956833e+00 0.000000000000000e+00
3.985723094979824e+00 2.128922314762093e+00 0.000000000000000e+00
3.990449597168007e+00 2.106796984231466e+00 0.000000000000000e+00
3.994827692784889e+00 2.086086354872116e+00 0.000000000000000e+00
3.994947179184051e+00 2.064567399638785e+00 0.000000000000000e+00
3.995334046769507e+00 2.042045081207471e+00 0.000000000000000e+00
4.001477101423510e+00 2.021442019712542e+00 0.000000000000000e+00
1.016168668924600e+00 2.990929904945967e+00 0.000000000000000e+00
1.035569849904466e+00 2.982064062775252e+00 0.000000000000000e+00
1.054334764675961e+00 2.971429395867309e+00 0.000000000000000e+00
1.074492613963734e+00 2.963797151460827e+00 0.000000000000000e+00
1.094406733768207e+00 2.956522964524653e+00 0.000000000000000e+00
1.115031829898723e+00 2.949880178057449e+00 0.000000000000000e+00
1.135661304638625e+00 2.944708675743401e+00 0.000000000000000e+00
1.156831812806966e+00 2.939622723339536e+00 0.000000000000000e+00
1.178121101354328e+00 2.936556879467395e+00 0.000000000000000e+00
1.199293318201331e+00 2.932115090949190e+00 0.000000000000000e+00
1.220698472776208e+00 2.929575596153402e+00 0.000000000000000e+00
1.242188011764641e+00 2.925701744840396e+00 0.000000000000000e+00
1.263631847645058e+00 2.923199694358706e+00 0.000000000000000e+00
1.284647569018745e+00 2.918451887510055e+00 0.000000000000000e+00
1.306414010889289e+00 2.914879638490793e+00 0.000000000000000e+00
1.327198968902572e+00 2.910627833659476e+00 0.000000000000000e+00
1.349102378780686e+00 2.906937192935327e+00 0.000000000000000e+00
1.370120757788807e+00 2.903135727114104e+00 0.000000000000000e+00
1.391734728892478e+00 2.898287288345058e+00 0.000000000000000e+00
1.412844884499700e+00 2.894764011469028e+00 0.000000000000000e+00
1.434253852901813e+00 2.891111652086135e+00 0.000000000000000e+00
1.455697101822952e+00 2.887366247960700e+00 0.000000000000000e+00
1.477235149626548e+00 2.882807578355993e+00 0.000000000000000e+00
1.497935614269553e+00 2.879138281795242e+00 0.000000000000000e+00
1.519807222166121e+00 2.874791623309664e+00 0.000000000000000e+00
1.540346640377489e+00 2.869389670554204e+00 0.000000000000000e+00
1.561702633171512e+00 2.862571839912882e+00 0.000000000000000e+00
1.581692126001364e+00 2.856836941225796e+00 0.000000000000000e+00
1.603110106647547e+00 2.850512230400466e+00 0.000000000000000e+00
1.623624294604609e+00 2.843918911808321e+00 0.000000000000000e+00
1.643755943302047e+00 2.835563602778507e+00 0.000000000000000e+00
1.664568665839727e+00 2.830790246216469e+00 0.000000000000000e+00
1.685081242561003e+00 2.822465687640971e+00 0.000000000000000e+00
1.704660681891089e+00 2.813196860750935e+00 0.000000000000000e+00
1.725857410516774e+00 2.806963388501384e+00 0.000000000000000e+00
1.746253388801658e+00 2.800447412703697e+00 0.000000000000000e+00
1.765672204588589e+00 2.791121580177019e+00 0.000000000000000e+00
1.787658586485435e+00 2.790122031446161e+00 0.000000000000000e+00
1.807783882988938e+00 2.780970734460997e+00 0.000000000000000e+00
1.827955094278032e+00 2.773871109685630e+00 0.000000000000000e+00
1.849939003161149e+00 2.770898202176386e+00 0.000000000000000e+00
1.870799693467322e+00 2.765975558782510e+00 0.000000000000000e+00
1.891794714099686e+00 2.760165923178524e+00 0.000000000000000e+00
1.912410182635519e+00 2.755301558633923e+00 0.000000000000000e+00
1.933914122922078e+00 2.751426995902300e+00 0.000000000000000e+00
1.955835885075836e+00 2.747821483802678e+00 0.000000000000000e+00
1.974872030233850e+00 2.738448980752140e+00 0.000000000000000e+00
1.996747303527124e+00 2.737652589757685e+00 0.000000000000000e+00
2.018220947386650e+00 2.735125939079980e+00 0.000000000000000e+00
2.039946013063450e+00 2.731344522857291e+00 0.000000000000000e+00
2.060124123851472e+00 2.725917051366589e+00 0.000000000000000e+00
2.082102417487135e+00 2.724250589198745e+00 0.000000000000000e+00
2.104017700932303e+00 2.721869455063344e+00 0.000000000000000e+00
2.125547234036601e+00 2.718775939426940e+00 0.000000000000000e+00
2.145463467350845e+00 2.714201696589162e+00 0.000000000000000e+00
2.167790929663517e+00 2.713644015710271e+00 0.000000000000000e+00
2.189998779428623e+00 2.712298635242535e+00 0.000000000000000e+00
2.210123677811829e+00 2.708602315579907e+00 0.000000000000000e+00
2.232310619453801e+00 2.708996274892762e+00 0.000000000000000e+00
2.254255255101557e+00 2.710362191213921e+00 0.000000000000000e+00
2.276142220170194e+00 2.711295992972865e+00 0.000000000000000e+00
2.296852838062980e+00 2.711417286715190e+00 0.000000000000000e+00
2.319038087161993e+00 2.712870029361919e+00 0.000000000000000e+00
2.341249739259729e+00 2.717200286681915e+00 0.000000000000000e+00
2.362540403085190e+00 2.718466869544164e+00 0.000000000000000e+00
2.383715561554292e+00 2.719166705955409e+00 0.000000000000000e+00
2.406145241755833e+00 2.723243243442122e+00 0.000000000000000e+00
2.427176976212878e+00 2.726634079787048e+00 0.000000000000000e+00
2.448685182246197e+00 2.729394414980059e+00 0.000000000000000e+00
2.470565212397441e+00 2.731718330437764e+00 0.000000000000000e+00
2.492549177676299e+00 2.735457394164076e+00 0.000000000000000e+00
2.513582656773576e+00 2.738852004042645e+00 0.000000000000000e+00
2.535448460259522e+00 2.740448161950266e+00 0.000000000000000e+00
2.557475607286287e+00 2.742546269444488e+00 0.000000000000000e+00
2.579156526117639e+00 2.745006757504149e+00 0.000000000000000e+00
2.600660206419983e+00 2.746775586438179e+00 0.000000000000000e+00
2.622731988717303e+00 2.747559449102817e+00 0.000000000000000e+00
2.644657687048612e+00 2.748473765295392e+00 0.000000000000000e+00
2.666357090008149e+00 2.749072119063042e+00 0.000000000000000e+00
2.687839465221306e+00 2.748688732655233e+00 0.000000000000000e+00
2.709079582759740e+00 2.748131550938256e+00 0.000000000000000e+00
2.732126282463681e+00 2.746393835691605e+00 0.000000000000000e+00
2.753345664288896e+00 2.746317116135105e+00 0.000000000000000e+00
2.774283437570453e+00 2.745082082457765e+00 0.000000000000000e+00
2.796180122172359e+00 2.741478684218457e+00 0.000000000000000e+00
2.818555253920696e+00 2.739362591383306e+00 0.000000000000000e+00
2.839103221825988e+00 2.737945202205704e+00 0.000000000000000e+00
2.861211978062300e+00 2.735276657729488e+00 0.000000000000000e+00
2.882378515599872e+00 2.731084075492787e+00 0.000000000000000e+00
2.904063703444047e+00 2.728782272913677e+00 0.000000000000000e+00
2.925112896171862e+00 2.726257018617057e+00 0.000000000000000e+00
2.946931983281534e+00 2.724025992236056e+00 0.000000000000000e+00
2.968715846561473e+00 2.720467826763595e+00 0.000000000000000e+00
2.989259497852024e+00 2.716236603923398e+00 0.000000000000000e+00
3.010875848658665e+00 2.712676851188692e+00 0.000000000000000e+00
3.031458422254468e+00 2.707736832054775e+00 0.000000000000000e+00
3.052800224451722e+00 2.702101101255828e+00 0.000000000000000e+00
3.073795604170871e+00 2.697358384165411e+00 0.000000000000000e+00
3.094499582469957e+00 2.691021908257317e+00 0.000000000000000e+00
3.115535198773516e+00 2.684509411808794e+00 0.000000000000000e+00
3.135950899191823e+00 2.677825743623872e+00 0.000000000000000e+00
3.156053485397569e+00 2.669793175363005e+00 0.000000000000000e+00
3.176842396541937e+00 2.662350737359467e+00 0.000000000000000e+00
3.196534247330594e+00 2.655227019351109e+00 0.000000000000000e+00
3.217788477659104e+00 2.648145740321161e+00 0.000000000000000e+00
3.237854184387785e+00 2.641216576561252e+00 0.000000000000000e+00
3.258394833901569e+00 2.633823591924473e+00 0.000000000000000e+00
3.279145186329104e+00 2.627450230219311e+00 0.000000000000000e+00
3.299265807233267e+00 2.620784188948440e+00 0.000000000000000e+00
3.320810112862906e+00 2.615523796027703e+00 0.000000000000000e+00
3.341801213174591e+00 2.610554964167770e+00 0.000000000000000e+00
3.362427730170762e+00 2.605675290202361e+00 0.000000000000000e+00
3.384517866137602e+00 2.601997219949851e+00 0.000000000000000e+00
3.405352787169012e+00 2.598046800165324e+00 0.000000000000000e+00
3.427373708460133e+00 2.594533428744690e+00 0.000000000000000e+00
3.448847907297373e+00 2.591845783271702e+00 0.000000000000000e+00
3.470458428242501e+00 2.589186134498918e+00 0.000000000000000e+00
3.492781974349818e+00 2.586888496475211e+00 0.000000000000000e+00
3.513802428794646e+00 2.584614401028335e+00 0.000000000000000e+00
3.536195280881364e+00 2.582245539177261e+00 0.000000000000000e+00
3.557667430757191e+00 2.580040389003065e+00 0.000000000000000e+00
3.579760806820389e+00 2.577818797226243e+00 0.000000000000000e+00
3.601036857341025e+00 2.575653009097984e+00 0.000000000000000e+00
3.623033256488128e+00 2.572733154842364e+00 0.000000000000000e+00
3.645121016194216e+00 2.569891336696774e+00 0.000000000000000e+00
3.665636255529833e+00 2.568122155914332e+00 0.000000000000000e+00
3.687138738148120e+00 2.565716824757706e+00 0.000000000000000e+00
3.710107488906590e+00 2.563436704335073e+00 0.000000000000000e+00
3.729260193785417e+00 2.562613560683925e+00 0.000000000000000e+00
3.753087549839178e+00 2.561244306197630e+00 0.000000000000000e+00
3.772540309757714e+00 2.561857006873360e+00 0.000000000000000e+00
3.794355388793506e+00 2.563349389040821e+00 0.000000000000000e+00
3.815569180353723e+00 2.568311458769397e+00 0.000000000000000e+00
3.833715263112703e+00 2.576847605710753e+00 0.000000000000000e+00
3.852143844102989e+00 2.587938876085327e+00 0.000000000000000e+00
3.867510693627283e+00 2.600417110997462e+00 0.000000000000000e+00
3.884528221464143e+00 2.615832641914525e+00 0.000000000000000e+00
3.899961963446045e+00 2.631314435089421e+00 0.000000000000000e+00
3.911419396320817e+00 2.648843813776679e+00 0.000000000000000e+00
3.922041388084703e+00 2.666882360850939e+00 0.000000000000000e+00
3.932712260944944e+00 2.685239643260124e+00 0.000000000000000e+00
3.943329560478690e+00 2.704323752468518e+00 0.000000000000000e+00
3.951988233515481e+00 2.724507876305726e+00 0.000000000000000e+00
3.959641951001197e+00 2.744948433621900e+00 0.000000000000000e+00
3.965035587551800e+00 2.764791531368384e+00 0.000000000000000e+00
3.969174224772457e+00 2.785982609368296e+00 0.000000000000000e+00
3.974954510789162e+00 2.808066260647992e+00 0.000000000000000e+00
3.981804603098956e+00 2.828398612100469e+00 0.000000000000000e+00
3.984477416729966e+00 2.849541107043158e+00 0.000000000000000e+00
3.985723094979808e+00 2.871077685237905e+00 0.000000000000000e+00
3.990449597167997e+00 2.893203015768527e+00 0.000000000000000e+00
3.994827692784877e+00 2.913913645127884e+00 0.000000000000000e+00
3.994947179184039e+00 2.935432600361213e+00 0.000000000000000e+00
3.995334046769498e+00 2.957954918792526e+00 0.000000000000000e+00
4.001477101423506e+00 2.978557980287454e+00 0.000000000000000e+00

POINT_DATA   310
SCALARS fY_Lag double
LOOKUP_TABLE default

-1.857933e+03 
2.437441e+03 
-3.037426e+03 
-1.582721e+03 
6.316895e+02 
-2.561249e+03 
7.527265e+02 
-2.532902e+03 
1.369842e+03 
-1.987157e+03 
1.578560e+03 
-1.653728e+03 
2.098922e+03 
-2.920554e+02 
-5.078127e+02 
1.251159e+03 
-1.076171e+03 
2.694022e+03 
-2.741685e+03 
6.315283e+02 
1.950417e+02 
1.173952e+03 
-2.683477e+03 
2.909917e+03 
-8.769456e+02 
4.704078e+03 
-5.262802e+03 
4.589942e+03 
-1.762870e+03 
2.468578e+03 
-4.824489e+03 
5.458438e+03 
-8.317193e+02 
-2.112057e+03 
-1.208126e+03 
3.007884e+03 
-7.540515e+03 
1.001739e+04 
-4.829150e+03 
-3.186493e+03 
8.484180e+02 
1.704315e+03 
-1.901253e+03 
4.049359e+02 
2.843229e+02 
2.823933e+03 
-6.666485e+03 
1.411071e+03 
2.059410e+03 
-6.149652e+02 
-1.923491e+03 
8.712250e+02 
6.752934e+02 
-1.042167e+03 
-1.631458e+03 
1.604942e+03 
8.282992e+02 
-1.886915e+03 
-6.984692e+02 
1.128495e+03 
1.612444e+03 
-1.305543e+03 
-4.288900e+03 
4.892399e+03 
5.018108e+02 
-5.596316e+03 
3.080297e+03 
2.105111e+02 
2.085056e+02 
-2.096347e+03 
1.822997e+03 
1.217539e+03 
-6.786826e+02 
-1.907629e+02 
9.875618e+02 
9.065650e+02 
4.635357e+01 
5.581532e+02 
1.065292e+03 
1.935465e+02 
2.520849e+03 
-2.883623e+03 
9.162371e+02 
3.643238e+03 
-1.667686e+03 
-2.202866e+03 
2.899198e+03 
6.254267e+02 
-1.494736e+03 
-6.401475e+02 
5.103995e+02 
1.721710e+03 
-1.235936e+03 
1.074692e+03 
-8.039220e+01 
2.842793e+03 
-2.203826e+03 
1.658797e+03 
1.231236e+03 
-1.193921e+03 
1.796185e+03 
6.695890e+02 
-3.860679e+03 
4.059972e+03 
-3.368744e+03 
2.166298e+03 
-1.352350e+03 
-1.052047e+03 
7.841435e+02 
-1.601692e+03 
-9.139900e+02 
6.732982e+02 
-1.435106e+03 
1.193255e+03 
-1.721951e+03 
1.101967e+02 
2.546818e+02 
-1.262699e+03 
1.474799e+03 
-1.016686e+03 
6.955118e+02 
-7.671749e+02 
1.663263e+03 
-9.505861e+01 
-2.682434e+03 
1.358055e+03 
1.285256e+03 
-3.878701e+03 
2.867698e+03 
-2.971188e+03 
-1.555822e+03 
-3.916373e+03 
1.985144e+03 
-7.667321e+03 
8.357158e+03 
-2.221095e+04 
5.679236e+03 
4.304015e+03 
5.672918e+02 
-2.233881e+03 
-5.568133e+03 
-3.122348e+03 
7.589089e+01 
1.239931e+04 
-9.481098e+03 
-1.204217e+04 
1.274248e+04 
9.910908e+02 
-2.771379e+03 
-1.055109e+04 
1.412629e+04 
-3.688122e+03 
-9.855298e+03 
1.107031e+04 
-2.204830e+03 
1.857933e+03 
-2.437441e+03 
3.037426e+03 
1.582721e+03 
-6.316895e+02 
2.561249e+03 
-7.527265e+02 
2.532902e+03 
-1.369842e+03 
1.987157e+03 
-1.578560e+03 
1.653728e+03 
-2.098922e+03 
2.920554e+02 
5.078127e+02 
-1.251159e+03 
1.076171e+03 
-2.694022e+03 
2.741685e+03 
-6.315283e+02 
-1.950417e+02 
-1.173952e+03 
2.683477e+03 
-2.909917e+03 
8.769456e+02 
-4.704078e+03 
5.262802e+03 
-4.589942e+03 
1.762870e+03 
-2.468578e+03 
4.824489e+03 
-5.458438e+03 
8.317193e+02 
2.112057e+03 
1.208126e+03 
-3.007884e+03 
7.540515e+03 
-1.001739e+04 
4.829150e+03 
3.186493e+03 
-8.484180e+02 
-1.704315e+03 
1.901253e+03 
-4.049359e+02 
-2.843229e+02 
-2.823933e+03 
6.666485e+03 
-1.411071e+03 
-2.059410e+03 
6.149652e+02 
1.923491e+03 
-8.712250e+02 
-6.752934e+02 
1.042167e+03 
1.631458e+03 
-1.604942e+03 
-8.282992e+02 
1.886915e+03 
6.984692e+02 
-1.128495e+03 
-1.612444e+03 
1.305543e+03 
4.288900e+03 
-4.892399e+03 
-5.018108e+02 
5.596316e+03 
-3.080297e+03 
-2.105111e+02 
-2.085056e+02 
2.096347e+03 
-1.822997e+03 
-1.217539e+03 
6.786826e+02 
1.907629e+02 
-9.875618e+02 
-9.065650e+02 
-4.635357e+01 
-5.581532e+02 
-1.065292e+03 
-1.935465e+02 
-2.520849e+03 
2.883623e+03 
-9.162371e+02 
-3.643238e+03 
1.667686e+03 
2.202866e+03 
-2.899198e+03 
-6.254267e+02 
1.494736e+03 
6.401475e+02 
-5.103995e+02 
-1.721710e+03 
1.235936e+03 
-1.074692e+03 
8.039220e+01 
-2.842793e+03 
2.203826e+03 
-1.658797e+03 
-1.231236e+03 
1.193921e+03 
-1.796185e+03 
-6.695890e+02 
3.860679e+03 
-4.059972e+03 
3.368744e+03 
-2.166298e+03 
1.352350e+03 
1.052047e+03 
-7.841435e+02 
1.601692e+03 
9.139900e+02 
-6.732982e+02 
1.435106e+03 
-1.193255e+03 
1.721951e+03 
-1.101967e+02 
-2.546818e+02 
1.262699e+03 
-1.474799e+03 
1.016686e+03 
-6.955118e+02 
7.671749e+02 
-1.663263e+03 
9.505861e+01 
2.682434e+03 
-1.358055e+03 
-1.285256e+03 
3.878701e+03 
-2.867698e+03 
2.971188e+03 
1.555822e+03 
3.916373e+03 
-1.985144e+03 
7.667321e+03 
-8.357158e+03 
2.221095e+04 
-5.679236e+03 
-4.304015e+03 
-5.672918e+02 
2.233881e+03 
5.568133e+03 
3.122348e+03 
-7.589089e+01 
-1.239931e+04 
9.481098e+03 
1.204217e+04 
-1.274248e+04 
-9.910908e+02 
2.771379e+03 
1.055109e+04 
-1.412629e+04 
3.688122e+03 
9.855298e+03 
-1.107031e+04 
2.204830e+03 
