# vtk DataFile Version 2.0
fY_Lag
ASCII
DATASET UNSTRUCTURED_GRID

FIELD FieldData 1
TIME 1 1 double
0.06500000
POINTS 310 float
1.016254135331061e+00 2.004439019697846e+00 0.000000000000000e+00
1.037203450768547e+00 2.007737221355547e+00 0.000000000000000e+00
1.057369021953252e+00 2.014259594453269e+00 0.000000000000000e+00
1.078226577121458e+00 2.016855534967314e+00 0.000000000000000e+00
1.098540417289299e+00 2.022230766939859e+00 0.000000000000000e+00
1.118605479534613e+00 2.029162990096431e+00 0.000000000000000e+00
1.137377720599993e+00 2.037001702451629e+00 0.000000000000000e+00
1.157847545768434e+00 2.044450795751331e+00 0.000000000000000e+00
1.176632379207436e+00 2.051704999709746e+00 0.000000000000000e+00
1.196114712139528e+00 2.061360030698866e+00 0.000000000000000e+00
1.214839955824682e+00 2.069965791252705e+00 0.000000000000000e+00
1.234169564788471e+00 2.078972804571573e+00 0.000000000000000e+00
1.253274785899770e+00 2.087323259887063e+00 0.000000000000000e+00
1.271928732412520e+00 2.096338710821346e+00 0.000000000000000e+00
1.292072000433530e+00 2.104036740177399e+00 0.000000000000000e+00
1.310637571353830e+00 2.112635493596086e+00 0.000000000000000e+00
1.330271223214830e+00 2.120738742859611e+00 0.000000000000000e+00
1.350044681514488e+00 2.127815937889512e+00 0.000000000000000e+00
1.369335133575091e+00 2.135767333434856e+00 0.000000000000000e+00
1.388464199289826e+00 2.144383795053664e+00 0.000000000000000e+00
1.407621410524527e+00 2.152154083518256e+00 0.000000000000000e+00
1.427321870645774e+00 2.159839498685888e+00 0.000000000000000e+00
1.446473452036957e+00 2.168429149192061e+00 0.000000000000000e+00
1.465034514012118e+00 2.176699080056868e+00 0.000000000000000e+00
1.485410961631070e+00 2.184308135026302e+00 0.000000000000000e+00
1.503564708721047e+00 2.192337458379669e+00 0.000000000000000e+00
1.522797523513458e+00 2.202028037752342e+00 0.000000000000000e+00
1.541984095171684e+00 2.208853850688090e+00 0.000000000000000e+00
1.562073779529467e+00 2.217195222913317e+00 0.000000000000000e+00
1.579879955528778e+00 2.226850209730831e+00 0.000000000000000e+00
1.599425315621873e+00 2.236707965192918e+00 0.000000000000000e+00
1.618938586977725e+00 2.241546123940652e+00 0.000000000000000e+00
1.637817816625161e+00 2.252432096028894e+00 0.000000000000000e+00
1.655409382123818e+00 2.262066728201232e+00 0.000000000000000e+00
1.676508874215467e+00 2.269057494082367e+00 0.000000000000000e+00
1.695414521758832e+00 2.276870358412219e+00 0.000000000000000e+00
1.714124415288121e+00 2.286702368464182e+00 0.000000000000000e+00
1.735500823298784e+00 2.287539797394798e+00 0.000000000000000e+00
1.755279650465267e+00 2.296640959951900e+00 0.000000000000000e+00
1.775159564989549e+00 2.302358050731827e+00 0.000000000000000e+00
1.797625268980937e+00 2.303973804777395e+00 0.000000000000000e+00
1.817381289017046e+00 2.308265411479111e+00 0.000000000000000e+00
1.839297869693789e+00 2.311947783029588e+00 0.000000000000000e+00
1.860600075618661e+00 2.313252753943161e+00 0.000000000000000e+00
1.882067821166742e+00 2.311878543039822e+00 0.000000000000000e+00
1.904682477306847e+00 2.310894251501318e+00 0.000000000000000e+00
1.924957597829776e+00 2.316413179147601e+00 0.000000000000000e+00
1.946387154180073e+00 2.310045093396707e+00 0.000000000000000e+00
1.968528773543082e+00 2.308316755930062e+00 0.000000000000000e+00
1.989908851245862e+00 2.306843063874522e+00 0.000000000000000e+00
2.011869946806624e+00 2.305871592662571e+00 0.000000000000000e+00
2.033297365429256e+00 2.301721445360444e+00 0.000000000000000e+00
2.054546451827437e+00 2.297265564713368e+00 0.000000000000000e+00
2.076352750538870e+00 2.295543442556090e+00 0.000000000000000e+00
2.097792876186828e+00 2.295498958722267e+00 0.000000000000000e+00
2.118851509543825e+00 2.289772982633727e+00 0.000000000000000e+00
2.140389241960940e+00 2.286863418754064e+00 0.000000000000000e+00
2.161959684876086e+00 2.287984794174691e+00 0.000000000000000e+00
2.183522724243575e+00 2.284747880958357e+00 0.000000000000000e+00
2.204656775945295e+00 2.281856745143705e+00 0.000000000000000e+00
2.226624918748949e+00 2.281234278525138e+00 0.000000000000000e+00
2.248096140057808e+00 2.281654164793129e+00 0.000000000000000e+00
2.270257632183589e+00 2.281019090196324e+00 0.000000000000000e+00
2.291242963376839e+00 2.278222264557980e+00 0.000000000000000e+00
2.313445330992435e+00 2.278393881286485e+00 0.000000000000000e+00
2.334854015251194e+00 2.279212383208152e+00 0.000000000000000e+00
2.356611060889656e+00 2.277454362668019e+00 0.000000000000000e+00
2.378063298772932e+00 2.277084056888320e+00 0.000000000000000e+00
2.399894851079314e+00 2.277309120700106e+00 0.000000000000000e+00
2.421161516629425e+00 2.277666984738432e+00 0.000000000000000e+00
2.442740356955954e+00 2.276880848407945e+00 0.000000000000000e+00
2.464324855424850e+00 2.276635302837386e+00 0.000000000000000e+00
2.486026573127901e+00 2.278033386225078e+00 0.000000000000000e+00
2.507556290922264e+00 2.278320411261421e+00 0.000000000000000e+00
2.528819616499316e+00 2.277648641539504e+00 0.000000000000000e+00
2.550847077882778e+00 2.276961457946750e+00 0.000000000000000e+00
2.572631169379496e+00 2.277668112677096e+00 0.000000000000000e+00
2.594222015900551e+00 2.277914282625285e+00 0.000000000000000e+00
2.616067592818543e+00 2.277054027016453e+00 0.000000000000000e+00
2.637803494182869e+00 2.274515689510712e+00 0.000000000000000e+00
2.659231058971240e+00 2.270023463807021e+00 0.000000000000000e+00
2.679994306746422e+00 2.263356720165772e+00 0.000000000000000e+00
2.700249872118195e+00 2.254358715202748e+00 0.000000000000000e+00
2.720123039520203e+00 2.244583933166337e+00 0.000000000000000e+00
2.739007904085032e+00 2.233177406610480e+00 0.000000000000000e+00
2.757359824258190e+00 2.219581031827452e+00 0.000000000000000e+00
2.774470977511718e+00 2.205843473792686e+00 0.000000000000000e+00
2.791678043220367e+00 2.190275653713202e+00 0.000000000000000e+00
2.808321720362927e+00 2.175454661001092e+00 0.000000000000000e+00
2.825420917737744e+00 2.160084235295185e+00 0.000000000000000e+00
2.842419803993186e+00 2.144916284818913e+00 0.000000000000000e+00
2.858837517511129e+00 2.129889566453399e+00 0.000000000000000e+00
2.876363974018247e+00 2.114156330976245e+00 0.000000000000000e+00
2.892893956098940e+00 2.100260145723587e+00 0.000000000000000e+00
2.911001076159225e+00 2.085063434755327e+00 0.000000000000000e+00
2.928334448298104e+00 2.071426691315187e+00 0.000000000000000e+00
2.946389105208118e+00 2.057429087445697e+00 0.000000000000000e+00
2.964590742302246e+00 2.043660294486854e+00 0.000000000000000e+00
2.982566283860013e+00 2.030957002598441e+00 0.000000000000000e+00
3.001209142878464e+00 2.017164951953599e+00 0.000000000000000e+00
3.018742835219754e+00 2.003921438275087e+00 0.000000000000000e+00
3.037129111034116e+00 1.990420854319786e+00 0.000000000000000e+00
3.054798573080741e+00 1.976729105243162e+00 0.000000000000000e+00
3.072758282077648e+00 1.963210056796437e+00 0.000000000000000e+00
3.090569000230569e+00 1.949280498833927e+00 0.000000000000000e+00
3.108217575001266e+00 1.935356972026966e+00 0.000000000000000e+00
3.125791281036884e+00 1.921079934421014e+00 0.000000000000000e+00
3.143026241437564e+00 1.907177931358048e+00 0.000000000000000e+00
3.160824525900678e+00 1.892805257801260e+00 0.000000000000000e+00
3.177741157768253e+00 1.878830574663979e+00 0.000000000000000e+00
3.195285581730778e+00 1.863972727152417e+00 0.000000000000000e+00
3.212190347172902e+00 1.849996823759133e+00 0.000000000000000e+00
3.229411604642771e+00 1.835136335440209e+00 0.000000000000000e+00
3.245967366315428e+00 1.820625973385979e+00 0.000000000000000e+00
3.262941865958957e+00 1.805985349110268e+00 0.000000000000000e+00
3.279920398753412e+00 1.791553926217762e+00 0.000000000000000e+00
3.296714807744611e+00 1.776844437186248e+00 0.000000000000000e+00
3.314250495548498e+00 1.762570557305216e+00 0.000000000000000e+00
3.331677080719128e+00 1.749697990283107e+00 0.000000000000000e+00
3.350041892342274e+00 1.736878387585633e+00 0.000000000000000e+00
3.368079922428701e+00 1.724276731823687e+00 0.000000000000000e+00
3.387688692557062e+00 1.712943640458249e+00 0.000000000000000e+00
3.407328474431902e+00 1.703255948486052e+00 0.000000000000000e+00
3.427317172942115e+00 1.694364355891440e+00 0.000000000000000e+00
3.448045544886329e+00 1.686188027302335e+00 0.000000000000000e+00
3.469208016819123e+00 1.679004834219380e+00 0.000000000000000e+00
3.490611202792736e+00 1.673526251807474e+00 0.000000000000000e+00
3.512404983307702e+00 1.669075027475004e+00 0.000000000000000e+00
3.534355077117021e+00 1.664962310797081e+00 0.000000000000000e+00
3.556669024972647e+00 1.663391977269973e+00 0.000000000000000e+00
3.578807417427667e+00 1.662844503533367e+00 0.000000000000000e+00
3.601309694293975e+00 1.663339821064565e+00 0.000000000000000e+00
3.623203976610031e+00 1.665992463498132e+00 0.000000000000000e+00
3.644985469798342e+00 1.670559061112800e+00 0.000000000000000e+00
3.666628499183078e+00 1.676825494667721e+00 0.000000000000000e+00
3.687588744435739e+00 1.684059272511929e+00 0.000000000000000e+00
3.708077943023865e+00 1.692979996980851e+00 0.000000000000000e+00
3.728012811478201e+00 1.703334156136969e+00 0.000000000000000e+00
3.746925173815125e+00 1.714772294928959e+00 0.000000000000000e+00
3.765206536205886e+00 1.726949863087465e+00 0.000000000000000e+00
3.783180371037663e+00 1.740406767272219e+00 0.000000000000000e+00
3.800257767439632e+00 1.754812069511798e+00 0.000000000000000e+00
3.816460947730702e+00 1.770087793153002e+00 0.000000000000000e+00
3.832083330534962e+00 1.785684888958077e+00 0.000000000000000e+00
3.847963774721127e+00 1.801793515216331e+00 0.000000000000000e+00
3.863224993372957e+00 1.817668952618309e+00 0.000000000000000e+00
3.878261700304788e+00 1.834673004348053e+00 0.000000000000000e+00
3.892463339020874e+00 1.851592827800649e+00 0.000000000000000e+00
3.907143896446022e+00 1.868077958426469e+00 0.000000000000000e+00
3.921736741331248e+00 1.884733722280656e+00 0.000000000000000e+00
3.936022517133873e+00 1.902916401839634e+00 0.000000000000000e+00
3.949408729570524e+00 1.920134537908332e+00 0.000000000000000e+00
3.962368515285134e+00 1.937607558164020e+00 0.000000000000000e+00
3.973644710993813e+00 1.957719655724922e+00 0.000000000000000e+00
3.987775612114302e+00 1.974974668829380e+00 0.000000000000000e+00
1.016254135331064e+00 2.995560980302158e+00 0.000000000000000e+00
1.037203450768551e+00 2.992262778644459e+00 0.000000000000000e+00
1.057369021953253e+00 2.985740405546735e+00 0.000000000000000e+00
1.078226577121461e+00 2.983144465032694e+00 0.000000000000000e+00
1.098540417289302e+00 2.977769233060150e+00 0.000000000000000e+00
1.118605479534617e+00 2.970837009903584e+00 0.000000000000000e+00
1.137377720600001e+00 2.962998297548390e+00 0.000000000000000e+00
1.157847545768443e+00 2.955549204248694e+00 0.000000000000000e+00
1.176632379207445e+00 2.948295000290277e+00 0.000000000000000e+00
1.196114712139538e+00 2.938639969301159e+00 0.000000000000000e+00
1.214839955824693e+00 2.930034208747322e+00 0.000000000000000e+00
1.234169564788482e+00 2.921027195428454e+00 0.000000000000000e+00
1.253274785899780e+00 2.912676740112963e+00 0.000000000000000e+00
1.271928732412535e+00 2.903661289178684e+00 0.000000000000000e+00
1.292072000433542e+00 2.895963259822629e+00 0.000000000000000e+00
1.310637571353844e+00 2.887364506403943e+00 0.000000000000000e+00
1.330271223214845e+00 2.879261257140425e+00 0.000000000000000e+00
1.350044681514502e+00 2.872184062110522e+00 0.000000000000000e+00
1.369335133575109e+00 2.864232666565178e+00 0.000000000000000e+00
1.388464199289840e+00 2.855616204946370e+00 0.000000000000000e+00
1.407621410524547e+00 2.847845916481785e+00 0.000000000000000e+00
1.427321870645793e+00 2.840160501314156e+00 0.000000000000000e+00
1.446473452036979e+00 2.831570850807986e+00 0.000000000000000e+00
1.465034514012141e+00 2.823300919943182e+00 0.000000000000000e+00
1.485410961631094e+00 2.815691864973748e+00 0.000000000000000e+00
1.503564708721073e+00 2.807662541620385e+00 0.000000000000000e+00
1.522797523513482e+00 2.797971962247711e+00 0.000000000000000e+00
1.541984095171708e+00 2.791146149311963e+00 0.000000000000000e+00
1.562073779529493e+00 2.782804777086735e+00 0.000000000000000e+00
1.579879955528799e+00 2.773149790269217e+00 0.000000000000000e+00
1.599425315621894e+00 2.763292034807130e+00 0.000000000000000e+00
1.618938586977746e+00 2.758453876059388e+00 0.000000000000000e+00
1.637817816625179e+00 2.747567903971138e+00 0.000000000000000e+00
1.655409382123838e+00 2.737933271798809e+00 0.000000000000000e+00
1.676508874215491e+00 2.730942505917672e+00 0.000000000000000e+00
1.695414521758852e+00 2.723129641587818e+00 0.000000000000000e+00
1.714124415288144e+00 2.713297631535854e+00 0.000000000000000e+00
1.735500823298807e+00 2.712460202605247e+00 0.000000000000000e+00
1.755279650465286e+00 2.703359040048142e+00 0.000000000000000e+00
1.775159564989570e+00 2.697641949268210e+00 0.000000000000000e+00
1.797625268980956e+00 2.696026195222644e+00 0.000000000000000e+00
1.817381289017064e+00 2.691734588520930e+00 0.000000000000000e+00
1.839297869693810e+00 2.688052216970451e+00 0.000000000000000e+00
1.860600075618680e+00 2.686747246056881e+00 0.000000000000000e+00
1.882067821166763e+00 2.688121456960221e+00 0.000000000000000e+00
1.904682477306865e+00 2.689105748498724e+00 0.000000000000000e+00
1.924957597829795e+00 2.683586820852448e+00 0.000000000000000e+00
1.946387154180096e+00 2.689954906603336e+00 0.000000000000000e+00
1.968528773543101e+00 2.691683244069983e+00 0.000000000000000e+00
1.989908851245885e+00 2.693156936125527e+00 0.000000000000000e+00
2.011869946806645e+00 2.694128407337474e+00 0.000000000000000e+00
2.033297365429277e+00 2.698278554639597e+00 0.000000000000000e+00
2.054546451827458e+00 2.702734435286677e+00 0.000000000000000e+00
2.076352750538889e+00 2.704456557443951e+00 0.000000000000000e+00
2.097792876186848e+00 2.704501041277770e+00 0.000000000000000e+00
2.118851509543848e+00 2.710227017366305e+00 0.000000000000000e+00
2.140389241960960e+00 2.713136581245971e+00 0.000000000000000e+00
2.161959684876106e+00 2.712015205825342e+00 0.000000000000000e+00
2.183522724243596e+00 2.715252119041676e+00 0.000000000000000e+00
2.204656775945315e+00 2.718143254856331e+00 0.000000000000000e+00
2.226624918748970e+00 2.718765721474891e+00 0.000000000000000e+00
2.248096140057829e+00 2.718345835206903e+00 0.000000000000000e+00
2.270257632183612e+00 2.718980909803704e+00 0.000000000000000e+00
2.291242963376863e+00 2.721777735442050e+00 0.000000000000000e+00
2.313445330992456e+00 2.721606118713543e+00 0.000000000000000e+00
2.334854015251219e+00 2.720787616791869e+00 0.000000000000000e+00
2.356611060889679e+00 2.722545637332003e+00 0.000000000000000e+00
2.378063298772953e+00 2.722915943111699e+00 0.000000000000000e+00
2.399894851079337e+00 2.722690879299908e+00 0.000000000000000e+00
2.421161516629448e+00 2.722333015261583e+00 0.000000000000000e+00
2.442740356955978e+00 2.723119151592072e+00 0.000000000000000e+00
2.464324855424872e+00 2.723364697162631e+00 0.000000000000000e+00
2.486026573127927e+00 2.721966613774941e+00 0.000000000000000e+00
2.507556290922285e+00 2.721679588738597e+00 0.000000000000000e+00
2.528819616499343e+00 2.722351358460517e+00 0.000000000000000e+00
2.550847077882803e+00 2.723038542053273e+00 0.000000000000000e+00
2.572631169379521e+00 2.722331887322930e+00 0.000000000000000e+00
2.594222015900577e+00 2.722085717374747e+00 0.000000000000000e+00
2.616067592818569e+00 2.722945972983579e+00 0.000000000000000e+00
2.637803494182895e+00 2.725484310489322e+00 0.000000000000000e+00
2.659231058971266e+00 2.729976536193015e+00 0.000000000000000e+00
2.679994306746449e+00 2.736643279834262e+00 0.000000000000000e+00
2.700249872118223e+00 2.745641284797286e+00 0.000000000000000e+00
2.720123039520233e+00 2.755416066833691e+00 0.000000000000000e+00
2.739007904085065e+00 2.766822593389545e+00 0.000000000000000e+00
2.757359824258222e+00 2.780418968172576e+00 0.000000000000000e+00
2.774470977511752e+00 2.794156526207336e+00 0.000000000000000e+00
2.791678043220402e+00 2.809724346286821e+00 0.000000000000000e+00
2.808321720362962e+00 2.824545338998929e+00 0.000000000000000e+00
2.825420917737780e+00 2.839915764704833e+00 0.000000000000000e+00
2.842419803993221e+00 2.855083715181106e+00 0.000000000000000e+00
2.858837517511163e+00 2.870110433546620e+00 0.000000000000000e+00
2.876363974018280e+00 2.885843669023775e+00 0.000000000000000e+00
2.892893956098972e+00 2.899739854276428e+00 0.000000000000000e+00
2.911001076159263e+00 2.914936565244693e+00 0.000000000000000e+00
2.928334448298137e+00 2.928573308684829e+00 0.000000000000000e+00
2.946389105208155e+00 2.942570912554317e+00 0.000000000000000e+00
2.964590742302281e+00 2.956339705513160e+00 0.000000000000000e+00
2.982566283860048e+00 2.969042997401573e+00 0.000000000000000e+00
3.001209142878501e+00 2.982835048046414e+00 0.000000000000000e+00
3.018742835219789e+00 2.996078561724922e+00 0.000000000000000e+00
3.037129111034155e+00 3.009579145680224e+00 0.000000000000000e+00
3.054798573080777e+00 3.023270894756844e+00 0.000000000000000e+00
3.072758282077690e+00 3.036789943203572e+00 0.000000000000000e+00
3.090569000230609e+00 3.050719501166077e+00 0.000000000000000e+00
3.108217575001308e+00 3.064643027973035e+00 0.000000000000000e+00
3.125791281036929e+00 3.078920065578985e+00 0.000000000000000e+00
3.143026241437605e+00 3.092822068641953e+00 0.000000000000000e+00
3.160824525900722e+00 3.107194742198742e+00 0.000000000000000e+00
3.177741157768292e+00 3.121169425336020e+00 0.000000000000000e+00
3.195285581730820e+00 3.136027272847584e+00 0.000000000000000e+00
3.212190347172941e+00 3.150003176240867e+00 0.000000000000000e+00
3.229411604642813e+00 3.164863664559789e+00 0.000000000000000e+00
3.245967366315465e+00 3.179374026614018e+00 0.000000000000000e+00
3.262941865958998e+00 3.194014650889736e+00 0.000000000000000e+00
3.279920398753448e+00 3.208446073782235e+00 0.000000000000000e+00
3.296714807744654e+00 3.223155562813752e+00 0.000000000000000e+00
3.314250495548531e+00 3.237429442694784e+00 0.000000000000000e+00
3.331677080719170e+00 3.250302009716898e+00 0.000000000000000e+00
3.350041892342303e+00 3.263121612414365e+00 0.000000000000000e+00
3.368079922428740e+00 3.275723268176314e+00 0.000000000000000e+00
3.387688692557094e+00 3.287056359541751e+00 0.000000000000000e+00
3.407328474431933e+00 3.296744051513949e+00 0.000000000000000e+00
3.427317172942151e+00 3.305635644108558e+00 0.000000000000000e+00
3.448045544886360e+00 3.313811972697664e+00 0.000000000000000e+00
3.469208016819158e+00 3.320995165780621e+00 0.000000000000000e+00
3.490611202792766e+00 3.326473748192526e+00 0.000000000000000e+00
3.512404983307731e+00 3.330924972524991e+00 0.000000000000000e+00
3.534355077117049e+00 3.335037689202915e+00 0.000000000000000e+00
3.556669024972676e+00 3.336608022730025e+00 0.000000000000000e+00
3.578807417427694e+00 3.337155496466633e+00 0.000000000000000e+00
3.601309694294002e+00 3.336660178935434e+00 0.000000000000000e+00
3.623203976610059e+00 3.334007536501871e+00 0.000000000000000e+00
3.644985469798370e+00 3.329440938887204e+00 0.000000000000000e+00
3.666628499183106e+00 3.323174505332283e+00 0.000000000000000e+00
3.687588744435765e+00 3.315940727488075e+00 0.000000000000000e+00
3.708077943023891e+00 3.307020003019153e+00 0.000000000000000e+00
3.728012811478226e+00 3.296665843863038e+00 0.000000000000000e+00
3.746925173815152e+00 3.285227705071046e+00 0.000000000000000e+00
3.765206536205911e+00 3.273050136912539e+00 0.000000000000000e+00
3.783180371037687e+00 3.259593232727783e+00 0.000000000000000e+00
3.800257767439653e+00 3.245187930488202e+00 0.000000000000000e+00
3.816460947730726e+00 3.229912206846997e+00 0.000000000000000e+00
3.832083330534980e+00 3.214315111041921e+00 0.000000000000000e+00
3.847963774721148e+00 3.198206484783665e+00 0.000000000000000e+00
3.863224993372972e+00 3.182331047381687e+00 0.000000000000000e+00
3.878261700304804e+00 3.165326995651943e+00 0.000000000000000e+00
3.892463339020888e+00 3.148407172199347e+00 0.000000000000000e+00
3.907143896446034e+00 3.131922041573528e+00 0.000000000000000e+00
3.921736741331261e+00 3.115266277719339e+00 0.000000000000000e+00
3.936022517133883e+00 3.097083598160361e+00 0.000000000000000e+00
3.949408729570534e+00 3.079865462091662e+00 0.000000000000000e+00
3.962368515285144e+00 3.062392441835975e+00 0.000000000000000e+00
3.973644710993821e+00 3.042280344275073e+00 0.000000000000000e+00
3.987775612114309e+00 3.025025331170615e+00 0.000000000000000e+00

POINT_DATA   310
SCALARS fY_Lag double
LOOKUP_TABLE default

-1.500030e+03 
2.665596e+03 
-3.438308e+03 
1.975935e+03 
1.762850e+03 
-2.446864e+03 
4.517471e+03 
-5.458708e+03 
7.574583e+03 
-5.161512e+03 
3.015915e+03 
-2.382408e+03 
-1.041949e+02 
2.119256e+03 
-3.126499e+03 
2.582202e+03 
-1.631794e+03 
-4.272659e+01 
9.734807e+02 
-1.492308e+03 
1.767029e+03 
1.877875e+02 
-2.600135e+03 
4.662291e+03 
-6.524862e+03 
7.905196e+03 
-6.502467e+03 
5.760999e+03 
-4.947683e+03 
7.097188e+03 
-9.455970e+03 
9.951271e+03 
-8.842693e+03 
5.762019e+03 
-4.902771e+03 
3.676048e+03 
-6.886539e+03 
8.794685e+03 
-6.213210e+03 
-1.484859e+03 
-6.271955e+02 
2.880438e+03 
-3.537680e+03 
-2.628904e+03 
4.760382e+00 
5.284230e+03 
-1.198516e+04 
5.886534e+03 
9.471439e+02 
1.316159e+02 
-3.451145e+03 
-4.826752e+01 
2.961973e+03 
1.795412e+03 
-6.155317e+03 
3.037954e+03 
4.297267e+03 
-4.744418e+03 
9.144123e+02 
2.103240e+03 
1.202552e+03 
-1.297931e+03 
-1.638017e+03 
2.673326e+03 
5.665348e+02 
-2.697615e+03 
1.539692e+03 
7.000654e+02 
5.335758e+01 
-1.081854e+03 
5.449906e+02 
1.748742e+03 
-1.277536e+03 
-9.325679e+02 
-1.372548e+02 
1.597613e+03 
-6.674687e+02 
-1.690711e+03 
-2.419110e+03 
-5.387198e+02 
5.173102e+02 
-1.665669e+03 
1.188320e+03 
4.523663e+02 
-4.182131e+03 
7.511375e+03 
-5.626884e+03 
6.289254e+03 
-4.704939e+03 
1.187284e+03 
3.397622e+03 
-8.613287e+03 
1.350868e+04 
-1.279073e+04 
1.062935e+04 
-4.453231e+03 
4.865374e+02 
5.668042e+03 
-7.367828e+03 
7.097242e+03 
-4.970510e+03 
2.149601e+03 
-5.532403e+02 
-1.435079e+03 
8.690855e+02 
-1.392684e+03 
3.406509e+03 
-4.490153e+03 
5.653176e+03 
-6.997653e+03 
7.154994e+03 
-6.065109e+03 
4.558813e+03 
-2.522616e+03 
8.469908e+02 
-5.096025e+02 
-1.044571e+03 
7.006902e+03 
-3.728746e+03 
2.452692e+03 
-1.458317e+03 
5.213413e+03 
1.031493e+03 
-5.359102e+02 
1.341303e+03 
2.857193e+03 
1.058043e+03 
5.005750e+02 
3.414970e+03 
1.701055e+03 
1.661522e+03 
2.834328e+03 
2.998755e+03 
3.002562e+03 
3.565758e+02 
2.716494e+03 
2.455182e+03 
-1.455045e+02 
3.854330e+02 
4.213393e+03 
1.111920e+03 
8.234204e+02 
-5.945932e+02 
4.317821e+03 
-4.112902e+03 
6.096427e+03 
-4.702431e+03 
-7.323121e+02 
4.712482e+02 
8.663263e+03 
-1.036285e+04 
4.245230e+02 
1.320276e+04 
-1.030494e+04 
3.784733e+03 
1.500030e+03 
-2.665596e+03 
3.438308e+03 
-1.975935e+03 
-1.762850e+03 
2.446864e+03 
-4.517471e+03 
5.458708e+03 
-7.574583e+03 
5.161512e+03 
-3.015915e+03 
2.382408e+03 
1.041949e+02 
-2.119256e+03 
3.126499e+03 
-2.582202e+03 
1.631794e+03 
4.272659e+01 
-9.734807e+02 
1.492308e+03 
-1.767029e+03 
-1.877875e+02 
2.600135e+03 
-4.662291e+03 
6.524862e+03 
-7.905196e+03 
6.502467e+03 
-5.760999e+03 
4.947683e+03 
-7.097188e+03 
9.455970e+03 
-9.951271e+03 
8.842693e+03 
-5.762019e+03 
4.902771e+03 
-3.676048e+03 
6.886539e+03 
-8.794685e+03 
6.213210e+03 
1.484859e+03 
6.271955e+02 
-2.880438e+03 
3.537680e+03 
2.628904e+03 
-4.760382e+00 
-5.284230e+03 
1.198516e+04 
-5.886534e+03 
-9.471439e+02 
-1.316159e+02 
3.451145e+03 
4.826752e+01 
-2.961973e+03 
-1.795412e+03 
6.155317e+03 
-3.037954e+03 
-4.297267e+03 
4.744418e+03 
-9.144123e+02 
-2.103240e+03 
-1.202552e+03 
1.297931e+03 
1.638017e+03 
-2.673326e+03 
-5.665348e+02 
2.697615e+03 
-1.539692e+03 
-7.000654e+02 
-5.335758e+01 
1.081854e+03 
-5.449906e+02 
-1.748742e+03 
1.277536e+03 
9.325679e+02 
1.372548e+02 
-1.597613e+03 
6.674687e+02 
1.690711e+03 
2.419110e+03 
5.387198e+02 
-5.173102e+02 
1.665669e+03 
-1.188320e+03 
-4.523663e+02 
4.182131e+03 
-7.511375e+03 
5.626884e+03 
-6.289254e+03 
4.704939e+03 
-1.187284e+03 
-3.397622e+03 
8.613287e+03 
-1.350868e+04 
1.279073e+04 
-1.062935e+04 
4.453231e+03 
-4.865374e+02 
-5.668042e+03 
7.367828e+03 
-7.097242e+03 
4.970510e+03 
-2.149601e+03 
5.532403e+02 
1.435079e+03 
-8.690855e+02 
1.392684e+03 
-3.406509e+03 
4.490153e+03 
-5.653176e+03 
6.997653e+03 
-7.154994e+03 
6.065109e+03 
-4.558813e+03 
2.522616e+03 
-8.469908e+02 
5.096025e+02 
1.044571e+03 
-7.006902e+03 
3.728746e+03 
-2.452692e+03 
1.458317e+03 
-5.213413e+03 
-1.031493e+03 
5.359102e+02 
-1.341303e+03 
-2.857193e+03 
-1.058043e+03 
-5.005750e+02 
-3.414970e+03 
-1.701055e+03 
-1.661522e+03 
-2.834328e+03 
-2.998755e+03 
-3.002562e+03 
-3.565758e+02 
-2.716494e+03 
-2.455182e+03 
1.455045e+02 
-3.854330e+02 
-4.213393e+03 
-1.111920e+03 
-8.234204e+02 
5.945932e+02 
-4.317821e+03 
4.112902e+03 
-6.096427e+03 
4.702431e+03 
7.323121e+02 
-4.712482e+02 
-8.663263e+03 
1.036285e+04 
-4.245230e+02 
-1.320276e+04 
1.030494e+04 
-3.784733e+03 
