# vtk DataFile Version 2.0
fY_Lag
ASCII
DATASET UNSTRUCTURED_GRID

FIELD FieldData 1
TIME 1 1 double
0.15000000
POINTS 310 float
1.018203245209798e+00 1.999278579666604e+00 0.000000000000000e+00
1.039517404394522e+00 2.000995156752303e+00 0.000000000000000e+00
1.060865242280374e+00 2.000961196962834e+00 0.000000000000000e+00
1.082525091196870e+00 2.001060977212988e+00 0.000000000000000e+00
1.103551260577781e+00 2.003117613002838e+00 0.000000000000000e+00
1.125051769622466e+00 2.004646851845319e+00 0.000000000000000e+00
1.146372253137582e+00 2.005795576632516e+00 0.000000000000000e+00
1.167719398798833e+00 2.007808777280228e+00 0.000000000000000e+00
1.189118134098321e+00 2.008960746162836e+00 0.000000000000000e+00
1.210205497400753e+00 2.012329123114073e+00 0.000000000000000e+00
1.231755904976438e+00 2.014048296381771e+00 0.000000000000000e+00
1.252742461918922e+00 2.017801517725966e+00 0.000000000000000e+00
1.274044056745277e+00 2.020579762413367e+00 0.000000000000000e+00
1.294642532029390e+00 2.025332171718270e+00 0.000000000000000e+00
1.316173603692306e+00 2.029004648579443e+00 0.000000000000000e+00
1.336595319525215e+00 2.033987702455350e+00 0.000000000000000e+00
1.357878319240756e+00 2.038980574654401e+00 0.000000000000000e+00
1.378314454785179e+00 2.043836950891601e+00 0.000000000000000e+00
1.399152371570604e+00 2.049963238712326e+00 0.000000000000000e+00
1.419732542669624e+00 2.055345393808541e+00 0.000000000000000e+00
1.440256183475981e+00 2.061308572614406e+00 0.000000000000000e+00
1.460807372927567e+00 2.067121394362679e+00 0.000000000000000e+00
1.481304295360304e+00 2.073973412797738e+00 0.000000000000000e+00
1.501085464629464e+00 2.080858069316228e+00 0.000000000000000e+00
1.521461237925662e+00 2.088426141080920e+00 0.000000000000000e+00
1.540947716827008e+00 2.095977153388122e+00 0.000000000000000e+00
1.561279221686713e+00 2.103822921907811e+00 0.000000000000000e+00
1.580604411613766e+00 2.111356067770349e+00 0.000000000000000e+00
1.600951516567083e+00 2.119481178704981e+00 0.000000000000000e+00
1.620384853138109e+00 2.126864843984134e+00 0.000000000000000e+00
1.639878341740664e+00 2.135946068505917e+00 0.000000000000000e+00
1.660101590497737e+00 2.141858078416834e+00 0.000000000000000e+00
1.679697168646433e+00 2.150412914106859e+00 0.000000000000000e+00
1.698467812528215e+00 2.159943698671607e+00 0.000000000000000e+00
1.718757243867960e+00 2.167271609743779e+00 0.000000000000000e+00
1.738384167633268e+00 2.175009622930221e+00 0.000000000000000e+00
1.756758489269663e+00 2.185910567192487e+00 0.000000000000000e+00
1.777656736065675e+00 2.189644733824213e+00 0.000000000000000e+00
1.795995769863770e+00 2.200611344963213e+00 0.000000000000000e+00
1.814666623450228e+00 2.210680904151168e+00 0.000000000000000e+00
1.834511381481597e+00 2.218274656493927e+00 0.000000000000000e+00
1.852943234278996e+00 2.228086492142617e+00 0.000000000000000e+00
1.871941982463152e+00 2.238941735128247e+00 0.000000000000000e+00
1.890475649119469e+00 2.248682385169829e+00 0.000000000000000e+00
1.909480381748119e+00 2.257776604784241e+00 0.000000000000000e+00
1.929368093824385e+00 2.265034973614558e+00 0.000000000000000e+00
1.946683694858589e+00 2.277516322524128e+00 0.000000000000000e+00
1.967659312745894e+00 2.282808138942201e+00 0.000000000000000e+00
1.987174178087494e+00 2.290243146660299e+00 0.000000000000000e+00
2.006798544116153e+00 2.297940460051715e+00 0.000000000000000e+00
2.026430276673603e+00 2.306272427873606e+00 0.000000000000000e+00
2.047140276375732e+00 2.309980202413948e+00 0.000000000000000e+00
2.067973601273585e+00 2.314019869108043e+00 0.000000000000000e+00
2.088817730052374e+00 2.318600186031439e+00 0.000000000000000e+00
2.109277964098190e+00 2.324072065817169e+00 0.000000000000000e+00
2.129693465445998e+00 2.324198012900140e+00 0.000000000000000e+00
2.151454780329609e+00 2.325873723674895e+00 0.000000000000000e+00
2.172185290607794e+00 2.331051597168956e+00 0.000000000000000e+00
2.192958915163803e+00 2.332313847413354e+00 0.000000000000000e+00
2.214020569947911e+00 2.333653466863329e+00 0.000000000000000e+00
2.235617543125747e+00 2.336332499439172e+00 0.000000000000000e+00
2.255968015474708e+00 2.339410678004528e+00 0.000000000000000e+00
2.277127046280740e+00 2.341329142928957e+00 0.000000000000000e+00
2.298496651769258e+00 2.341746325807619e+00 0.000000000000000e+00
2.319486413871219e+00 2.345313886379132e+00 0.000000000000000e+00
2.339909375631828e+00 2.349074102270122e+00 0.000000000000000e+00
2.361671888339730e+00 2.349846596243291e+00 0.000000000000000e+00
2.382430542693104e+00 2.351864682613765e+00 0.000000000000000e+00
2.403399541470178e+00 2.355321143840322e+00 0.000000000000000e+00
2.423888190636982e+00 2.358720990752000e+00 0.000000000000000e+00
2.445682155605396e+00 2.359688826984162e+00 0.000000000000000e+00
2.466579303737375e+00 2.360311381196378e+00 0.000000000000000e+00
2.487158650258408e+00 2.362016738880343e+00 0.000000000000000e+00
2.508667311533985e+00 2.362132426767413e+00 0.000000000000000e+00
2.530069214467659e+00 2.360347114771336e+00 0.000000000000000e+00
2.550565789448414e+00 2.358358421060450e+00 0.000000000000000e+00
2.571440973571625e+00 2.357036918415155e+00 0.000000000000000e+00
2.592930210620527e+00 2.354276873640218e+00 0.000000000000000e+00
2.613836215962932e+00 2.350376815409007e+00 0.000000000000000e+00
2.634415519585174e+00 2.347013956557459e+00 0.000000000000000e+00
2.655109851196053e+00 2.343664601511494e+00 0.000000000000000e+00
2.676262065243472e+00 2.341074658768953e+00 0.000000000000000e+00
2.696607494023477e+00 2.336233816804877e+00 0.000000000000000e+00
2.717344187840264e+00 2.331977549711498e+00 0.000000000000000e+00
2.738054638213820e+00 2.330118279387601e+00 0.000000000000000e+00
2.759830028587921e+00 2.326896065329312e+00 0.000000000000000e+00
2.780079077230720e+00 2.323484162905085e+00 0.000000000000000e+00
2.800802413700517e+00 2.320992220012304e+00 0.000000000000000e+00
2.822084303442726e+00 2.319672229838032e+00 0.000000000000000e+00
2.843032603729200e+00 2.316543588249288e+00 0.000000000000000e+00
2.864080635056514e+00 2.314993998006689e+00 0.000000000000000e+00
2.885073228031588e+00 2.313621266506555e+00 0.000000000000000e+00
2.906551379333348e+00 2.312863639434056e+00 0.000000000000000e+00
2.927364486188049e+00 2.312073095205423e+00 0.000000000000000e+00
2.948108526058731e+00 2.310226130905749e+00 0.000000000000000e+00
2.969422294744922e+00 2.310037533834164e+00 0.000000000000000e+00
2.991231273310586e+00 2.310339048537021e+00 0.000000000000000e+00
3.011546513499754e+00 2.309675218048303e+00 0.000000000000000e+00
3.033323077454827e+00 2.310295199790788e+00 0.000000000000000e+00
3.054326324207913e+00 2.311274839709072e+00 0.000000000000000e+00
3.075112059688923e+00 2.312920914043134e+00 0.000000000000000e+00
3.096703765181701e+00 2.314879313044763e+00 0.000000000000000e+00
3.117466935953463e+00 2.315760177151339e+00 0.000000000000000e+00
3.138500535370663e+00 2.318196997754082e+00 0.000000000000000e+00
3.159781070912554e+00 2.321246629204319e+00 0.000000000000000e+00
3.180231833294047e+00 2.324501853901468e+00 0.000000000000000e+00
3.201529003854557e+00 2.327752939802911e+00 0.000000000000000e+00
3.221718334052949e+00 2.330345002128106e+00 0.000000000000000e+00
3.242864821017598e+00 2.335384748797268e+00 0.000000000000000e+00
3.263676426704986e+00 2.339497444296001e+00 0.000000000000000e+00
3.284017565935224e+00 2.342512964807328e+00 0.000000000000000e+00
3.305240005104815e+00 2.346216912528212e+00 0.000000000000000e+00
3.325979684631360e+00 2.349666665199309e+00 0.000000000000000e+00
3.346554048541138e+00 2.353520775578843e+00 0.000000000000000e+00
3.367439908565020e+00 2.355409843374786e+00 0.000000000000000e+00
3.388095533502475e+00 2.356178205654893e+00 0.000000000000000e+00
3.409541413477145e+00 2.357535842260852e+00 0.000000000000000e+00
3.430173013112472e+00 2.358284616942112e+00 0.000000000000000e+00
3.450650367168075e+00 2.359101363513938e+00 0.000000000000000e+00
3.472549439759166e+00 2.360354396882263e+00 0.000000000000000e+00
3.493271296489649e+00 2.362461395362589e+00 0.000000000000000e+00
3.514508907938640e+00 2.364564399105002e+00 0.000000000000000e+00
3.534475751651654e+00 2.366274508003455e+00 0.000000000000000e+00
3.555458076442016e+00 2.369393282887975e+00 0.000000000000000e+00
3.577032617723796e+00 2.372226296933892e+00 0.000000000000000e+00
3.596878179109625e+00 2.373705560086331e+00 0.000000000000000e+00
3.618111649428653e+00 2.375226545467370e+00 0.000000000000000e+00
3.639738429127101e+00 2.375698220204288e+00 0.000000000000000e+00
3.658972767895766e+00 2.374541639731055e+00 0.000000000000000e+00
3.680791894307140e+00 2.375125015188010e+00 0.000000000000000e+00
3.699398425279655e+00 2.371398051029610e+00 0.000000000000000e+00
3.721102365556930e+00 2.365896952211450e+00 0.000000000000000e+00
3.739259715138514e+00 2.360465475433809e+00 0.000000000000000e+00
3.758610123100573e+00 2.353973328271985e+00 0.000000000000000e+00
3.777886433511480e+00 2.347055877273686e+00 0.000000000000000e+00
3.793927029667098e+00 2.333936568222249e+00 0.000000000000000e+00
3.809232888967555e+00 2.319619689726180e+00 0.000000000000000e+00
3.823515683760360e+00 2.305472247871070e+00 0.000000000000000e+00
3.836427899926334e+00 2.289946664241635e+00 0.000000000000000e+00
3.848217288037684e+00 2.272898955787365e+00 0.000000000000000e+00
3.860983062834587e+00 2.256616722579811e+00 0.000000000000000e+00
3.874554088699795e+00 2.242074973468747e+00 0.000000000000000e+00
3.886819213508496e+00 2.225153550002647e+00 0.000000000000000e+00
3.897807233930596e+00 2.207016663607441e+00 0.000000000000000e+00
3.908710787944278e+00 2.190900578995782e+00 0.000000000000000e+00
3.919273266468200e+00 2.173379644894503e+00 0.000000000000000e+00
3.929501228329356e+00 2.154571953032883e+00 0.000000000000000e+00
3.941225447498273e+00 2.138674369635868e+00 0.000000000000000e+00
3.951173379670508e+00 2.120224225600005e+00 0.000000000000000e+00
3.958216791964646e+00 2.101010518404982e+00 0.000000000000000e+00
3.967959901858758e+00 2.082942391119381e+00 0.000000000000000e+00
3.977235210921846e+00 2.064485548042573e+00 0.000000000000000e+00
3.981245538252685e+00 2.044936222852076e+00 0.000000000000000e+00
3.983838314103748e+00 2.023848768235055e+00 0.000000000000000e+00
3.999729859042921e+00 2.010096019190071e+00 0.000000000000000e+00
1.018203245209795e+00 3.000721420333400e+00 0.000000000000000e+00
1.039517404394518e+00 2.999004843247703e+00 0.000000000000000e+00
1.060865242280370e+00 2.999038803037175e+00 0.000000000000000e+00
1.082525091196866e+00 2.998939022787018e+00 0.000000000000000e+00
1.103551260577775e+00 2.996882386997170e+00 0.000000000000000e+00
1.125051769622464e+00 2.995353148154693e+00 0.000000000000000e+00
1.146372253137576e+00 2.994204423367495e+00 0.000000000000000e+00
1.167719398798829e+00 2.992191222719785e+00 0.000000000000000e+00
1.189118134098315e+00 2.991039253837179e+00 0.000000000000000e+00
1.210205497400749e+00 2.987670876885944e+00 0.000000000000000e+00
1.231755904976433e+00 2.985951703618245e+00 0.000000000000000e+00
1.252742461918914e+00 2.982198482274049e+00 0.000000000000000e+00
1.274044056745272e+00 2.979420237586647e+00 0.000000000000000e+00
1.294642532029382e+00 2.974667828281749e+00 0.000000000000000e+00
1.316173603692300e+00 2.970995351420568e+00 0.000000000000000e+00
1.336595319525208e+00 2.966012297544668e+00 0.000000000000000e+00
1.357878319240750e+00 2.961019425345617e+00 0.000000000000000e+00
1.378314454785172e+00 2.956163049108419e+00 0.000000000000000e+00
1.399152371570596e+00 2.950036761287692e+00 0.000000000000000e+00
1.419732542669616e+00 2.944654606191479e+00 0.000000000000000e+00
1.440256183475978e+00 2.938691427385618e+00 0.000000000000000e+00
1.460807372927556e+00 2.932878605637339e+00 0.000000000000000e+00
1.481304295360300e+00 2.926026587202287e+00 0.000000000000000e+00
1.501085464629455e+00 2.919141930683792e+00 0.000000000000000e+00
1.521461237925653e+00 2.911573858919100e+00 0.000000000000000e+00
1.540947716827003e+00 2.904022846611902e+00 0.000000000000000e+00
1.561279221686706e+00 2.896177078092213e+00 0.000000000000000e+00
1.580604411613761e+00 2.888643932229678e+00 0.000000000000000e+00
1.600951516567078e+00 2.880518821295048e+00 0.000000000000000e+00
1.620384853138104e+00 2.873135156015894e+00 0.000000000000000e+00
1.639878341740660e+00 2.864053931494114e+00 0.000000000000000e+00
1.660101590497733e+00 2.858141921583198e+00 0.000000000000000e+00
1.679697168646431e+00 2.849587085893177e+00 0.000000000000000e+00
1.698467812528211e+00 2.840056301328433e+00 0.000000000000000e+00
1.718757243867956e+00 2.832728390256254e+00 0.000000000000000e+00
1.738384167633264e+00 2.824990377069813e+00 0.000000000000000e+00
1.756758489269657e+00 2.814089432807545e+00 0.000000000000000e+00
1.777656736065669e+00 2.810355266175826e+00 0.000000000000000e+00
1.795995769863761e+00 2.799388655036822e+00 0.000000000000000e+00
1.814666623450218e+00 2.789319095848863e+00 0.000000000000000e+00
1.834511381481588e+00 2.781725343506108e+00 0.000000000000000e+00
1.852943234278983e+00 2.771913507857414e+00 0.000000000000000e+00
1.871941982463140e+00 2.761058264871783e+00 0.000000000000000e+00
1.890475649119455e+00 2.751317614830198e+00 0.000000000000000e+00
1.909480381748105e+00 2.742223395215786e+00 0.000000000000000e+00
1.929368093824369e+00 2.734965026385471e+00 0.000000000000000e+00
1.946683694858572e+00 2.722483677475898e+00 0.000000000000000e+00
1.967659312745876e+00 2.717191861057818e+00 0.000000000000000e+00
1.987174178087478e+00 2.709756853339729e+00 0.000000000000000e+00
2.006798544116139e+00 2.702059539948312e+00 0.000000000000000e+00
2.026430276673584e+00 2.693727572126416e+00 0.000000000000000e+00
2.047140276375714e+00 2.690019797586075e+00 0.000000000000000e+00
2.067973601273566e+00 2.685980130891989e+00 0.000000000000000e+00
2.088817730052357e+00 2.681399813968588e+00 0.000000000000000e+00
2.109277964098172e+00 2.675927934182865e+00 0.000000000000000e+00
2.129693465445981e+00 2.675801987099891e+00 0.000000000000000e+00
2.151454780329588e+00 2.674126276325138e+00 0.000000000000000e+00
2.172185290607775e+00 2.668948402831079e+00 0.000000000000000e+00
2.192958915163782e+00 2.667686152586680e+00 0.000000000000000e+00
2.214020569947897e+00 2.666346533136713e+00 0.000000000000000e+00
2.235617543125728e+00 2.663667500560864e+00 0.000000000000000e+00
2.255968015474691e+00 2.660589321995510e+00 0.000000000000000e+00
2.277127046280724e+00 2.658670857071089e+00 0.000000000000000e+00
2.298496651769240e+00 2.658253674192426e+00 0.000000000000000e+00
2.319486413871203e+00 2.654686113620909e+00 0.000000000000000e+00
2.339909375631811e+00 2.650925897729922e+00 0.000000000000000e+00
2.361671888339714e+00 2.650153403756758e+00 0.000000000000000e+00
2.382430542693086e+00 2.648135317386283e+00 0.000000000000000e+00
2.403399541470161e+00 2.644678856159724e+00 0.000000000000000e+00
2.423888190636966e+00 2.641279009248050e+00 0.000000000000000e+00
2.445682155605381e+00 2.640311173015895e+00 0.000000000000000e+00
2.466579303737355e+00 2.639688618803673e+00 0.000000000000000e+00
2.487158650258393e+00 2.637983261119705e+00 0.000000000000000e+00
2.508667311533966e+00 2.637867573232644e+00 0.000000000000000e+00
2.530069214467644e+00 2.639652885228719e+00 0.000000000000000e+00
2.550565789448392e+00 2.641641578939603e+00 0.000000000000000e+00
2.571440973571612e+00 2.642963081584902e+00 0.000000000000000e+00
2.592930210620508e+00 2.645723126359844e+00 0.000000000000000e+00
2.613836215962917e+00 2.649623184591055e+00 0.000000000000000e+00
2.634415519585156e+00 2.652986043442605e+00 0.000000000000000e+00
2.655109851196038e+00 2.656335398488566e+00 0.000000000000000e+00
2.676262065243459e+00 2.658925341231110e+00 0.000000000000000e+00
2.696607494023463e+00 2.663766183195188e+00 0.000000000000000e+00
2.717344187840252e+00 2.668022450288562e+00 0.000000000000000e+00
2.738054638213808e+00 2.669881720612456e+00 0.000000000000000e+00
2.759830028587912e+00 2.673103934670744e+00 0.000000000000000e+00
2.780079077230713e+00 2.676515837094973e+00 0.000000000000000e+00
2.800802413700507e+00 2.679007779987753e+00 0.000000000000000e+00
2.822084303442718e+00 2.680327770162024e+00 0.000000000000000e+00
2.843032603729194e+00 2.683456411750764e+00 0.000000000000000e+00
2.864080635056506e+00 2.685006001993373e+00 0.000000000000000e+00
2.885073228031582e+00 2.686378733493503e+00 0.000000000000000e+00
2.906551379333342e+00 2.687136360565999e+00 0.000000000000000e+00
2.927364486188043e+00 2.687926904794634e+00 0.000000000000000e+00
2.948108526058727e+00 2.689773869094312e+00 0.000000000000000e+00
2.969422294744914e+00 2.689962466165893e+00 0.000000000000000e+00
2.991231273310583e+00 2.689660951463031e+00 0.000000000000000e+00
3.011546513499744e+00 2.690324781951757e+00 0.000000000000000e+00
3.033323077454823e+00 2.689704800209274e+00 0.000000000000000e+00
3.054326324207904e+00 2.688725160290990e+00 0.000000000000000e+00
3.075112059688919e+00 2.687079085956924e+00 0.000000000000000e+00
3.096703765181696e+00 2.685120686955298e+00 0.000000000000000e+00
3.117466935953457e+00 2.684239822848728e+00 0.000000000000000e+00
3.138500535370660e+00 2.681803002245990e+00 0.000000000000000e+00
3.159781070912546e+00 2.678753370795755e+00 0.000000000000000e+00
3.180231833294049e+00 2.675498146098601e+00 0.000000000000000e+00
3.201529003854554e+00 2.672247060197164e+00 0.000000000000000e+00
3.221718334052949e+00 2.669654997871978e+00 0.000000000000000e+00
3.242864821017598e+00 2.664615251202813e+00 0.000000000000000e+00
3.263676426704991e+00 2.660502555704075e+00 0.000000000000000e+00
3.284017565935221e+00 2.657487035192752e+00 0.000000000000000e+00
3.305240005104815e+00 2.653783087471868e+00 0.000000000000000e+00
3.325979684631364e+00 2.650333334800762e+00 0.000000000000000e+00
3.346554048541138e+00 2.646479224421225e+00 0.000000000000000e+00
3.367439908565019e+00 2.644590156625275e+00 0.000000000000000e+00
3.388095533502471e+00 2.643821794345174e+00 0.000000000000000e+00
3.409541413477151e+00 2.642464157739205e+00 0.000000000000000e+00
3.430173013112469e+00 2.641715383057945e+00 0.000000000000000e+00
3.450650367168078e+00 2.640898636486115e+00 0.000000000000000e+00
3.472549439759161e+00 2.639645603117790e+00 0.000000000000000e+00
3.493271296489656e+00 2.637538604637454e+00 0.000000000000000e+00
3.514508907938639e+00 2.635435600895047e+00 0.000000000000000e+00
3.534475751651653e+00 2.633725491996589e+00 0.000000000000000e+00
3.555458076442023e+00 2.630606717112057e+00 0.000000000000000e+00
3.577032617723790e+00 2.627773703066141e+00 0.000000000000000e+00
3.596878179109630e+00 2.626294439913696e+00 0.000000000000000e+00
3.618111649428650e+00 2.624773454532658e+00 0.000000000000000e+00
3.639738429127104e+00 2.624301779795739e+00 0.000000000000000e+00
3.658972767895770e+00 2.625458360268964e+00 0.000000000000000e+00
3.680791894307138e+00 2.624874984811999e+00 0.000000000000000e+00
3.699398425279662e+00 2.628601948970408e+00 0.000000000000000e+00
3.721102365556937e+00 2.634103047788563e+00 0.000000000000000e+00
3.739259715138525e+00 2.639534524566180e+00 0.000000000000000e+00
3.758610123100585e+00 2.646026671727983e+00 0.000000000000000e+00
3.777886433511501e+00 2.652944122726298e+00 0.000000000000000e+00
3.793927029667096e+00 2.666063431777744e+00 0.000000000000000e+00
3.809232888967554e+00 2.680380310273832e+00 0.000000000000000e+00
3.823515683760355e+00 2.694527752128934e+00 0.000000000000000e+00
3.836427899926335e+00 2.710053335758371e+00 0.000000000000000e+00
3.848217288037680e+00 2.727101044212636e+00 0.000000000000000e+00
3.860983062834578e+00 2.743383277420192e+00 0.000000000000000e+00
3.874554088699796e+00 2.757925026531256e+00 0.000000000000000e+00
3.886819213508502e+00 2.774846449997346e+00 0.000000000000000e+00
3.897807233930606e+00 2.792983336392555e+00 0.000000000000000e+00
3.908710787944267e+00 2.809099421004221e+00 0.000000000000000e+00
3.919273266468183e+00 2.826620355105506e+00 0.000000000000000e+00
3.929501228329331e+00 2.845428046967127e+00 0.000000000000000e+00
3.941225447498253e+00 2.861325630364143e+00 0.000000000000000e+00
3.951173379670481e+00 2.879775774400005e+00 0.000000000000000e+00
3.958216791964626e+00 2.898989481595030e+00 0.000000000000000e+00
3.967959901858741e+00 2.917057608880623e+00 0.000000000000000e+00
3.977235210921823e+00 2.935514451957440e+00 0.000000000000000e+00
3.981245538252657e+00 2.955063777147932e+00 0.000000000000000e+00
3.983838314103737e+00 2.976151231764955e+00 0.000000000000000e+00
3.999729859042915e+00 2.989903980809929e+00 0.000000000000000e+00

POINT_DATA   310
SCALARS fY_Lag double
LOOKUP_TABLE default

2.174955e+03 
-1.640517e+03 
1.461985e+02 
1.610639e+03 
-1.334925e+02 
-4.813537e+02 
8.637023e+02 
-7.371610e+02 
2.031885e+03 
-1.215814e+03 
1.575360e+03 
-5.962679e+02 
1.185016e+03 
2.731382e+02 
-2.849654e+02 
1.845942e+03 
-1.846872e+03 
2.881587e+03 
-1.745978e+03 
7.679120e+02 
-1.325766e+02 
1.746828e+03 
-1.968019e+03 
3.109471e+03 
-2.761046e+03 
3.254133e+03 
-3.873029e+03 
4.334067e+03 
-4.399383e+03 
3.817916e+03 
-4.014135e+03 
3.343222e+03 
-5.959256e+02 
-1.109464e+02 
-1.142009e+03 
3.689285e+03 
-6.392791e+03 
6.767289e+03 
-1.371607e+03 
-1.919353e+03 
2.318267e+02 
5.494635e+03 
-5.327134e+03 
-3.027195e+01 
-1.080923e+03 
5.176143e+03 
-5.887733e+03 
-3.465409e+02 
8.939188e+02 
1.304437e+03 
-4.833386e+03 
4.154675e+02 
7.829361e+02 
4.751832e+02 
-4.506568e+03 
1.716287e+03 
2.898966e+03 
-3.756335e+03 
2.534583e+02 
2.038590e+03 
-1.283322e+03 
-2.623423e+02 
-1.216939e+03 
2.751739e+03 
-5.603617e+02 
-1.545480e+03 
4.268834e+02 
1.559657e+03 
-8.909890e+02 
-1.409167e+03 
-4.074817e+02 
8.754032e+02 
-9.772661e+02 
-1.797270e+03 
7.934602e+02 
1.975714e+02 
-1.915846e+03 
-5.717867e+02 
1.113138e+03 
6.023253e+00 
1.371987e+02 
-1.128093e+03 
-3.698495e+01 
2.324610e+03 
-2.374078e+03 
1.945834e+03 
8.212800e+01 
5.195765e+02 
-1.439269e+03 
1.348898e+03 
2.772335e+02 
3.372123e+02 
1.600041e+02 
-7.156908e+02 
1.135252e+03 
5.337923e+02 
-5.735565e+02 
9.447913e+02 
1.747830e+02 
4.639457e+02 
9.512524e+02 
-1.513768e+03 
1.405644e+03 
9.438760e+02 
-9.222294e+02 
1.216135e+03 
-1.840186e+03 
4.210918e+03 
-1.810208e+03 
-1.881903e+03 
2.042093e+03 
-9.586527e+02 
8.629164e+01 
-1.286263e+03 
-1.139558e+03 
8.112514e+02 
-9.347411e+02 
-3.886611e+01 
1.080189e+03 
-2.560826e+02 
3.685713e+02 
-1.240778e+03 
2.159419e+03 
5.248771e+02 
-2.798805e+03 
1.110632e+03 
-8.160573e+02 
-6.734950e+02 
2.916591e+02 
4.567334e+02 
-9.209170e+03 
9.444621e+03 
-4.917649e+03 
-6.937731e+02 
-4.513031e+03 
-2.437683e+03 
5.666748e+03 
-1.128642e+03 
-5.169160e+03 
6.890378e+02 
7.141924e+03 
-8.925154e+03 
-3.363254e+03 
1.519260e+04 
-8.950457e+03 
-8.486503e+03 
1.499508e+04 
-1.103317e+04 
3.687297e+03 
1.555219e+02 
-1.362398e+03 
5.862961e+03 
-1.235093e+04 
7.257931e+03 
7.950401e+01 
-2.174955e+03 
1.640517e+03 
-1.461985e+02 
-1.610639e+03 
1.334925e+02 
4.813537e+02 
-8.637023e+02 
7.371610e+02 
-2.031885e+03 
1.215814e+03 
-1.575360e+03 
5.962679e+02 
-1.185016e+03 
-2.731382e+02 
2.849654e+02 
-1.845942e+03 
1.846872e+03 
-2.881587e+03 
1.745978e+03 
-7.679120e+02 
1.325766e+02 
-1.746828e+03 
1.968019e+03 
-3.109471e+03 
2.761046e+03 
-3.254133e+03 
3.873029e+03 
-4.334067e+03 
4.399383e+03 
-3.817916e+03 
4.014135e+03 
-3.343222e+03 
5.959256e+02 
1.109464e+02 
1.142009e+03 
-3.689285e+03 
6.392791e+03 
-6.767289e+03 
1.371607e+03 
1.919353e+03 
-2.318267e+02 
-5.494635e+03 
5.327134e+03 
3.027195e+01 
1.080923e+03 
-5.176143e+03 
5.887733e+03 
3.465409e+02 
-8.939188e+02 
-1.304437e+03 
4.833386e+03 
-4.154675e+02 
-7.829361e+02 
-4.751832e+02 
4.506568e+03 
-1.716287e+03 
-2.898966e+03 
3.756335e+03 
-2.534583e+02 
-2.038590e+03 
1.283322e+03 
2.623423e+02 
1.216939e+03 
-2.751739e+03 
5.603617e+02 
1.545480e+03 
-4.268834e+02 
-1.559657e+03 
8.909890e+02 
1.409167e+03 
4.074817e+02 
-8.754032e+02 
9.772661e+02 
1.797270e+03 
-7.934602e+02 
-1.975714e+02 
1.915846e+03 
5.717867e+02 
-1.113138e+03 
-6.023253e+00 
-1.371987e+02 
1.128093e+03 
3.698495e+01 
-2.324610e+03 
2.374078e+03 
-1.945834e+03 
-8.212800e+01 
-5.195765e+02 
1.439269e+03 
-1.348898e+03 
-2.772335e+02 
-3.372123e+02 
-1.600041e+02 
7.156908e+02 
-1.135252e+03 
-5.337923e+02 
5.735565e+02 
-9.447913e+02 
-1.747830e+02 
-4.639457e+02 
-9.512524e+02 
1.513768e+03 
-1.405644e+03 
-9.438760e+02 
9.222294e+02 
-1.216135e+03 
1.840186e+03 
-4.210918e+03 
1.810208e+03 
1.881903e+03 
-2.042093e+03 
9.586527e+02 
-8.629164e+01 
1.286263e+03 
1.139558e+03 
-8.112514e+02 
9.347411e+02 
3.886611e+01 
-1.080189e+03 
2.560826e+02 
-3.685713e+02 
1.240778e+03 
-2.159419e+03 
-5.248771e+02 
2.798805e+03 
-1.110632e+03 
8.160573e+02 
6.734950e+02 
-2.916591e+02 
-4.567334e+02 
9.209170e+03 
-9.444621e+03 
4.917649e+03 
6.937731e+02 
4.513031e+03 
2.437683e+03 
-5.666748e+03 
1.128642e+03 
5.169160e+03 
-6.890378e+02 
-7.141924e+03 
8.925154e+03 
3.363254e+03 
-1.519260e+04 
8.950457e+03 
8.486503e+03 
-1.499508e+04 
1.103317e+04 
-3.687297e+03 
-1.555219e+02 
1.362398e+03 
-5.862961e+03 
1.235093e+04 
-7.257931e+03 
-7.950401e+01 
