# vtk DataFile Version 2.0
fY_Lag
ASCII
DATASET UNSTRUCTURED_GRID

FIELD FieldData 1
TIME 1 1 double
0.09000000
POINTS 310 float
9.914185877234618e-01 1.994675423328449e+00 0.000000000000000e+00
1.008009262875423e+00 2.002973424669469e+00 0.000000000000000e+00
1.023242915685360e+00 2.013744339633527e+00 0.000000000000000e+00
1.040233967359463e+00 2.021266852930354e+00 0.000000000000000e+00
1.055872061716604e+00 2.031190673729499e+00 0.000000000000000e+00
1.071948403933404e+00 2.041321029647604e+00 0.000000000000000e+00
1.087079541671975e+00 2.051350826097902e+00 0.000000000000000e+00
1.103511975381583e+00 2.061404080356596e+00 0.000000000000000e+00
1.119058408570317e+00 2.070344564888348e+00 0.000000000000000e+00
1.135910011002768e+00 2.079426846489061e+00 0.000000000000000e+00
1.153025201287975e+00 2.085877008761210e+00 0.000000000000000e+00
1.171010140421440e+00 2.092398660144345e+00 0.000000000000000e+00
1.188513423634862e+00 2.098747726396156e+00 0.000000000000000e+00
1.205498795451715e+00 2.107166362859846e+00 0.000000000000000e+00
1.222391275898358e+00 2.115276081268592e+00 0.000000000000000e+00
1.238741480655397e+00 2.124560829628304e+00 0.000000000000000e+00
1.255859179398643e+00 2.132582875431703e+00 0.000000000000000e+00
1.273158287343982e+00 2.139408900063991e+00 0.000000000000000e+00
1.290510049378455e+00 2.146959306726095e+00 0.000000000000000e+00
1.308092641624089e+00 2.153867282324024e+00 0.000000000000000e+00
1.326207748488127e+00 2.159395790606400e+00 0.000000000000000e+00
1.344228383550442e+00 2.164984748183716e+00 0.000000000000000e+00
1.361894977206217e+00 2.172468727105506e+00 0.000000000000000e+00
1.379015396495549e+00 2.179650408926867e+00 0.000000000000000e+00
1.397412032245643e+00 2.185403107889376e+00 0.000000000000000e+00
1.414906425704645e+00 2.190514325994707e+00 0.000000000000000e+00
1.434021738782562e+00 2.196321576758579e+00 0.000000000000000e+00
1.452158439122746e+00 2.199102651863705e+00 0.000000000000000e+00
1.471592233981491e+00 2.203744007910619e+00 0.000000000000000e+00
1.488677049209323e+00 2.210329862878140e+00 0.000000000000000e+00
1.507051290357398e+00 2.217013249974722e+00 0.000000000000000e+00
1.525746095551589e+00 2.217526988664223e+00 0.000000000000000e+00
1.544516835995833e+00 2.221319808442732e+00 0.000000000000000e+00
1.562981497028668e+00 2.223572846107954e+00 0.000000000000000e+00
1.583110039291684e+00 2.223563421571428e+00 0.000000000000000e+00
1.601677320489026e+00 2.225189703077354e+00 0.000000000000000e+00
1.620574943106627e+00 2.229684251809616e+00 0.000000000000000e+00
1.639293044444174e+00 2.225760404982355e+00 0.000000000000000e+00
1.657614007854520e+00 2.232720254378030e+00 0.000000000000000e+00
1.675907214844767e+00 2.236718511347304e+00 0.000000000000000e+00
1.695640696226208e+00 2.237726105656594e+00 0.000000000000000e+00
1.713859679367598e+00 2.242511466002329e+00 0.000000000000000e+00
1.733115922193732e+00 2.247382573127823e+00 0.000000000000000e+00
1.751990847905368e+00 2.250778668507236e+00 0.000000000000000e+00
1.771341569872963e+00 2.252943372063598e+00 0.000000000000000e+00
1.790300330364607e+00 2.258158321970430e+00 0.000000000000000e+00
1.804338339237641e+00 2.271403846144763e+00 0.000000000000000e+00
1.823553081763306e+00 2.271924918655651e+00 0.000000000000000e+00
1.842817866211579e+00 2.276600640426993e+00 0.000000000000000e+00
1.861903669802744e+00 2.281219094633997e+00 0.000000000000000e+00
1.880485506653221e+00 2.287206286069208e+00 0.000000000000000e+00
1.899996276921580e+00 2.290043084596996e+00 0.000000000000000e+00
1.919312219561035e+00 2.292437276883803e+00 0.000000000000000e+00
1.938319690807195e+00 2.297178803151620e+00 0.000000000000000e+00
1.957393566139564e+00 2.302610952313222e+00 0.000000000000000e+00
1.977055261351291e+00 2.301620472560396e+00 0.000000000000000e+00
1.996562859532590e+00 2.303007594433078e+00 0.000000000000000e+00
2.015998585196280e+00 2.307772535454911e+00 0.000000000000000e+00
2.035845306438852e+00 2.307544747734986e+00 0.000000000000000e+00
2.055427114171272e+00 2.306860784887759e+00 0.000000000000000e+00
2.075309367987366e+00 2.308098606693988e+00 0.000000000000000e+00
2.094678274101537e+00 2.310487363236666e+00 0.000000000000000e+00
2.115054206467529e+00 2.311042689274582e+00 0.000000000000000e+00
2.134571355962167e+00 2.308530804586141e+00 0.000000000000000e+00
2.154602351008265e+00 2.309188260909300e+00 0.000000000000000e+00
2.174662107868524e+00 2.310448958069280e+00 0.000000000000000e+00
2.194848491025180e+00 2.308712518635341e+00 0.000000000000000e+00
2.214517672507149e+00 2.307906932287993e+00 0.000000000000000e+00
2.234838597090925e+00 2.306700804509072e+00 0.000000000000000e+00
2.254936234763196e+00 2.305064468271030e+00 0.000000000000000e+00
2.275054479927665e+00 2.301939102607551e+00 0.000000000000000e+00
2.294914543258762e+00 2.297780151131247e+00 0.000000000000000e+00
2.314696341552898e+00 2.293528740263137e+00 0.000000000000000e+00
2.334314582878162e+00 2.287046331674602e+00 0.000000000000000e+00
2.353323373549562e+00 2.279229374102535e+00 0.000000000000000e+00
2.372428431243716e+00 2.271637911212559e+00 0.000000000000000e+00
2.391212473261983e+00 2.264096611003744e+00 0.000000000000000e+00
2.409351184647174e+00 2.253914816421977e+00 0.000000000000000e+00
2.427157188609149e+00 2.243035338195976e+00 0.000000000000000e+00
2.445020076471476e+00 2.232851569406673e+00 0.000000000000000e+00
2.463360257557917e+00 2.222621813460944e+00 0.000000000000000e+00
2.481366206092997e+00 2.214208739187149e+00 0.000000000000000e+00
2.500322543087982e+00 2.204279128443704e+00 0.000000000000000e+00
2.519390022353855e+00 2.195825528233447e+00 0.000000000000000e+00
2.538092722321424e+00 2.190025855165577e+00 0.000000000000000e+00
2.558776399229793e+00 2.183310370699277e+00 0.000000000000000e+00
2.578209727642104e+00 2.178294964541557e+00 0.000000000000000e+00
2.599027974890766e+00 2.174846548085296e+00 0.000000000000000e+00
2.618715258570943e+00 2.173890937049805e+00 0.000000000000000e+00
2.640233972111617e+00 2.173061686505572e+00 0.000000000000000e+00
2.660297890914123e+00 2.172493541514981e+00 0.000000000000000e+00
2.681104235506568e+00 2.170045895498621e+00 0.000000000000000e+00
2.701715787390661e+00 2.167943153665710e+00 0.000000000000000e+00
2.721546533831976e+00 2.167293820301937e+00 0.000000000000000e+00
2.743307965213425e+00 2.167122098131087e+00 0.000000000000000e+00
2.763261230554264e+00 2.168784968682077e+00 0.000000000000000e+00
2.783937087018503e+00 2.172519969151098e+00 0.000000000000000e+00
2.803521011475680e+00 2.178098861478512e+00 0.000000000000000e+00
2.822005757108653e+00 2.186438893870686e+00 0.000000000000000e+00
2.841260384930367e+00 2.196100593519160e+00 0.000000000000000e+00
2.859740047184423e+00 2.205770883557741e+00 0.000000000000000e+00
2.878001556761050e+00 2.215743619697193e+00 0.000000000000000e+00
2.897298927519363e+00 2.224853651492399e+00 0.000000000000000e+00
2.916510439870004e+00 2.232291657821951e+00 0.000000000000000e+00
2.936598404865510e+00 2.236997141589156e+00 0.000000000000000e+00
2.956257788947906e+00 2.238133360619601e+00 0.000000000000000e+00
2.976867129981909e+00 2.233967231497276e+00 0.000000000000000e+00
2.996044364168279e+00 2.226234806103824e+00 0.000000000000000e+00
3.014287573469780e+00 2.217021767220637e+00 0.000000000000000e+00
3.032476026293800e+00 2.205327051902358e+00 0.000000000000000e+00
3.049721547893060e+00 2.192510147035583e+00 0.000000000000000e+00
3.065238939595401e+00 2.178537594257123e+00 0.000000000000000e+00
3.080817495468483e+00 2.161840536462583e+00 0.000000000000000e+00
3.095041637036168e+00 2.146129311505717e+00 0.000000000000000e+00
3.109973967541030e+00 2.129590623202260e+00 0.000000000000000e+00
3.125138069837117e+00 2.113113369337204e+00 0.000000000000000e+00
3.140797952770975e+00 2.097383538955165e+00 0.000000000000000e+00
3.157920759466610e+00 2.082641469461825e+00 0.000000000000000e+00
3.174928731777374e+00 2.069583931540017e+00 0.000000000000000e+00
3.193397674554983e+00 2.056109235975784e+00 0.000000000000000e+00
3.211496463951599e+00 2.043806175022197e+00 0.000000000000000e+00
3.230773454706607e+00 2.032028435537867e+00 0.000000000000000e+00
3.250156654626114e+00 2.021386130976595e+00 0.000000000000000e+00
3.270494582808950e+00 2.010944097389388e+00 0.000000000000000e+00
3.290513549091015e+00 2.001407216967345e+00 0.000000000000000e+00
3.311198662197698e+00 1.992589331958164e+00 0.000000000000000e+00
3.333077061207265e+00 1.985058515408124e+00 0.000000000000000e+00
3.354712045288218e+00 1.978406623760249e+00 0.000000000000000e+00
3.375636895326389e+00 1.972517782534482e+00 0.000000000000000e+00
3.399149481680983e+00 1.969220995719779e+00 0.000000000000000e+00
3.421658270094046e+00 1.967327334290197e+00 0.000000000000000e+00
3.443951042648573e+00 1.966172951425020e+00 0.000000000000000e+00
3.466675388373162e+00 1.966107486995084e+00 0.000000000000000e+00
3.489452462550822e+00 1.967661358809615e+00 0.000000000000000e+00
3.511841222776548e+00 1.970330759034843e+00 0.000000000000000e+00
3.534293870905401e+00 1.972842660973061e+00 0.000000000000000e+00
3.557075361515872e+00 1.975591606630723e+00 0.000000000000000e+00
3.579791619980940e+00 1.978638952343425e+00 0.000000000000000e+00
3.602808094244127e+00 1.981637904205748e+00 0.000000000000000e+00
3.625116145661068e+00 1.983955371534395e+00 0.000000000000000e+00
3.648261730190911e+00 1.986609363251879e+00 0.000000000000000e+00
3.670933352107638e+00 1.989136726426598e+00 0.000000000000000e+00
3.693685441265171e+00 1.991305428842101e+00 0.000000000000000e+00
3.716954647769956e+00 1.993076179957741e+00 0.000000000000000e+00
3.739816544127267e+00 1.994079512678733e+00 0.000000000000000e+00
3.762333249561506e+00 1.994783841142909e+00 0.000000000000000e+00
3.785850519759746e+00 1.996056850918943e+00 0.000000000000000e+00
3.808914585563879e+00 1.996787818045735e+00 0.000000000000000e+00
3.831615116905435e+00 1.996413772943543e+00 0.000000000000000e+00
3.854436011985908e+00 1.996333448159724e+00 0.000000000000000e+00
3.877788116177813e+00 1.997484011521344e+00 0.000000000000000e+00
3.900481643586959e+00 1.997673211066411e+00 0.000000000000000e+00
3.923153105000657e+00 1.996386154121432e+00 0.000000000000000e+00
3.946069279649556e+00 1.998865659112479e+00 0.000000000000000e+00
3.968820741077758e+00 1.998905486723976e+00 0.000000000000000e+00
9.914185877234608e-01 3.005324576671546e+00 0.000000000000000e+00
1.008009262875427e+00 2.997026575330534e+00 0.000000000000000e+00
1.023242915685365e+00 2.986255660366477e+00 0.000000000000000e+00
1.040233967359472e+00 2.978733147069658e+00 0.000000000000000e+00
1.055872061716614e+00 2.968809326270517e+00 0.000000000000000e+00
1.071948403933413e+00 2.958678970352410e+00 0.000000000000000e+00
1.087079541671988e+00 2.948649173902116e+00 0.000000000000000e+00
1.103511975381595e+00 2.938595919643423e+00 0.000000000000000e+00
1.119058408570327e+00 2.929655435111664e+00 0.000000000000000e+00
1.135910011002778e+00 2.920573153510949e+00 0.000000000000000e+00
1.153025201287983e+00 2.914122991238798e+00 0.000000000000000e+00
1.171010140421447e+00 2.907601339855661e+00 0.000000000000000e+00
1.188513423634871e+00 2.901252273603847e+00 0.000000000000000e+00
1.205498795451723e+00 2.892833637140160e+00 0.000000000000000e+00
1.222391275898364e+00 2.884723918731404e+00 0.000000000000000e+00
1.238741480655398e+00 2.875439170371690e+00 0.000000000000000e+00
1.255859179398645e+00 2.867417124568288e+00 0.000000000000000e+00
1.273158287343983e+00 2.860591099936002e+00 0.000000000000000e+00
1.290510049378462e+00 2.853040693273906e+00 0.000000000000000e+00
1.308092641624100e+00 2.846132717675988e+00 0.000000000000000e+00
1.326207748488142e+00 2.840604209393621e+00 0.000000000000000e+00
1.344228383550457e+00 2.835015251816309e+00 0.000000000000000e+00
1.361894977206234e+00 2.827531272894523e+00 0.000000000000000e+00
1.379015396495566e+00 2.820349591073164e+00 0.000000000000000e+00
1.397412032245661e+00 2.814596892110659e+00 0.000000000000000e+00
1.414906425704665e+00 2.809485674005334e+00 0.000000000000000e+00
1.434021738782584e+00 2.803678423241462e+00 0.000000000000000e+00
1.452158439122766e+00 2.800897348136325e+00 0.000000000000000e+00
1.471592233981508e+00 2.796255992089404e+00 0.000000000000000e+00
1.488677049209338e+00 2.789670137121868e+00 0.000000000000000e+00
1.507051290357410e+00 2.782986750025284e+00 0.000000000000000e+00
1.525746095551600e+00 2.782473011335791e+00 0.000000000000000e+00
1.544516835995851e+00 2.778680191557294e+00 0.000000000000000e+00
1.562981497028685e+00 2.776427153892100e+00 0.000000000000000e+00
1.583110039291707e+00 2.776436578428634e+00 0.000000000000000e+00
1.601677320489044e+00 2.774810296922709e+00 0.000000000000000e+00
1.620574943106645e+00 2.770315748190447e+00 0.000000000000000e+00
1.639293044444188e+00 2.774239595017720e+00 0.000000000000000e+00
1.657614007854529e+00 2.767279745622029e+00 0.000000000000000e+00
1.675907214844776e+00 2.763281488652743e+00 0.000000000000000e+00
1.695640696226213e+00 2.762273894343460e+00 0.000000000000000e+00
1.713859679367607e+00 2.757488533997731e+00 0.000000000000000e+00
1.733115922193744e+00 2.752617426872239e+00 0.000000000000000e+00
1.751990847905378e+00 2.749221331492830e+00 0.000000000000000e+00
1.771341569872975e+00 2.747056627936467e+00 0.000000000000000e+00
1.790300330364619e+00 2.741841678029639e+00 0.000000000000000e+00
1.804338339237657e+00 2.728596153855311e+00 0.000000000000000e+00
1.823553081763324e+00 2.728075081344409e+00 0.000000000000000e+00
1.842817866211595e+00 2.723399359573063e+00 0.000000000000000e+00
1.861903669802762e+00 2.718780905366056e+00 0.000000000000000e+00
1.880485506653234e+00 2.712793713930834e+00 0.000000000000000e+00
1.899996276921591e+00 2.709956915403037e+00 0.000000000000000e+00
1.919312219561048e+00 2.707562723116226e+00 0.000000000000000e+00
1.938319690807202e+00 2.702821196848396e+00 0.000000000000000e+00
1.957393566139570e+00 2.697389047686793e+00 0.000000000000000e+00
1.977055261351297e+00 2.698379527439618e+00 0.000000000000000e+00
1.996562859532597e+00 2.696992405566948e+00 0.000000000000000e+00
2.015998585196286e+00 2.692227464545115e+00 0.000000000000000e+00
2.035845306438858e+00 2.692455252265043e+00 0.000000000000000e+00
2.055427114171278e+00 2.693139215112281e+00 0.000000000000000e+00
2.075309367987370e+00 2.691901393306051e+00 0.000000000000000e+00
2.094678274101542e+00 2.689512636763383e+00 0.000000000000000e+00
2.115054206467536e+00 2.688957310725471e+00 0.000000000000000e+00
2.134571355962172e+00 2.691469195413921e+00 0.000000000000000e+00
2.154602351008270e+00 2.690811739090762e+00 0.000000000000000e+00
2.174662107868531e+00 2.689551041930778e+00 0.000000000000000e+00
2.194848491025184e+00 2.691287481364725e+00 0.000000000000000e+00
2.214517672507153e+00 2.692093067712071e+00 0.000000000000000e+00
2.234838597090931e+00 2.693299195490988e+00 0.000000000000000e+00
2.254936234763202e+00 2.694935531729027e+00 0.000000000000000e+00
2.275054479927673e+00 2.698060897392503e+00 0.000000000000000e+00
2.294914543258766e+00 2.702219848868806e+00 0.000000000000000e+00
2.314696341552906e+00 2.706471259736918e+00 0.000000000000000e+00
2.334314582878166e+00 2.712953668325452e+00 0.000000000000000e+00
2.353323373549569e+00 2.720770625897521e+00 0.000000000000000e+00
2.372428431243721e+00 2.728362088787490e+00 0.000000000000000e+00
2.391212473261989e+00 2.735903388996302e+00 0.000000000000000e+00
2.409351184647182e+00 2.746085183578071e+00 0.000000000000000e+00
2.427157188609155e+00 2.756964661804072e+00 0.000000000000000e+00
2.445020076471480e+00 2.767148430593375e+00 0.000000000000000e+00
2.463360257557922e+00 2.777378186539100e+00 0.000000000000000e+00
2.481366206093006e+00 2.785791260812891e+00 0.000000000000000e+00
2.500322543087992e+00 2.795720871556337e+00 0.000000000000000e+00
2.519390022353862e+00 2.804174471766588e+00 0.000000000000000e+00
2.538092722321432e+00 2.809974144834454e+00 0.000000000000000e+00
2.558776399229804e+00 2.816689629300757e+00 0.000000000000000e+00
2.578209727642113e+00 2.821705035458473e+00 0.000000000000000e+00
2.599027974890776e+00 2.825153451914734e+00 0.000000000000000e+00
2.618715258570954e+00 2.826109062950226e+00 0.000000000000000e+00
2.640233972111628e+00 2.826938313494454e+00 0.000000000000000e+00
2.660297890914130e+00 2.827506458485041e+00 0.000000000000000e+00
2.681104235506580e+00 2.829954104501396e+00 0.000000000000000e+00
2.701715787390671e+00 2.832056846334299e+00 0.000000000000000e+00
2.721546533831987e+00 2.832706179698064e+00 0.000000000000000e+00
2.743307965213438e+00 2.832877901868913e+00 0.000000000000000e+00
2.763261230554273e+00 2.831215031317922e+00 0.000000000000000e+00
2.783937087018514e+00 2.827480030848899e+00 0.000000000000000e+00
2.803521011475691e+00 2.821901138521492e+00 0.000000000000000e+00
2.822005757108668e+00 2.813561106129320e+00 0.000000000000000e+00
2.841260384930378e+00 2.803899406480843e+00 0.000000000000000e+00
2.859740047184435e+00 2.794229116442259e+00 0.000000000000000e+00
2.878001556761058e+00 2.784256380302802e+00 0.000000000000000e+00
2.897298927519366e+00 2.775146348507598e+00 0.000000000000000e+00
2.916510439870013e+00 2.767708342178042e+00 0.000000000000000e+00
2.936598404865514e+00 2.763002858410841e+00 0.000000000000000e+00
2.956257788947917e+00 2.761866639380397e+00 0.000000000000000e+00
2.976867129981912e+00 2.766032768502722e+00 0.000000000000000e+00
2.996044364168288e+00 2.773765193896181e+00 0.000000000000000e+00
3.014287573469784e+00 2.782978232779363e+00 0.000000000000000e+00
3.032476026293805e+00 2.794672948097646e+00 0.000000000000000e+00
3.049721547893064e+00 2.807489852964422e+00 0.000000000000000e+00
3.065238939595402e+00 2.821462405742885e+00 0.000000000000000e+00
3.080817495468484e+00 2.838159463537427e+00 0.000000000000000e+00
3.095041637036165e+00 2.853870688494298e+00 0.000000000000000e+00
3.109973967541027e+00 2.870409376797753e+00 0.000000000000000e+00
3.125138069837109e+00 2.886886630662808e+00 0.000000000000000e+00
3.140797952770970e+00 2.902616461044853e+00 0.000000000000000e+00
3.157920759466599e+00 2.917358530538194e+00 0.000000000000000e+00
3.174928731777371e+00 2.930416068460000e+00 0.000000000000000e+00
3.193397674554974e+00 2.943890764024232e+00 0.000000000000000e+00
3.211496463951596e+00 2.956193824977821e+00 0.000000000000000e+00
3.230773454706597e+00 2.967971564462153e+00 0.000000000000000e+00
3.250156654626104e+00 2.978613869023427e+00 0.000000000000000e+00
3.270494582808943e+00 2.989055902610634e+00 0.000000000000000e+00
3.290513549090997e+00 2.998592783032680e+00 0.000000000000000e+00
3.311198662197687e+00 3.007410668041865e+00 0.000000000000000e+00
3.333077061207248e+00 3.014941484591906e+00 0.000000000000000e+00
3.354712045288208e+00 3.021593376239782e+00 0.000000000000000e+00
3.375636895326372e+00 3.027482217465548e+00 0.000000000000000e+00
3.399149481680970e+00 3.030779004280252e+00 0.000000000000000e+00
3.421658270094028e+00 3.032672665709833e+00 0.000000000000000e+00
3.443951042648565e+00 3.033827048575006e+00 0.000000000000000e+00
3.466675388373149e+00 3.033892513004942e+00 0.000000000000000e+00
3.489452462550810e+00 3.032338641190411e+00 0.000000000000000e+00
3.511841222776537e+00 3.029669240965179e+00 0.000000000000000e+00
3.534293870905388e+00 3.027157339026958e+00 0.000000000000000e+00
3.557075361515861e+00 3.024408393369293e+00 0.000000000000000e+00
3.579791619980923e+00 3.021361047656594e+00 0.000000000000000e+00
3.602808094244116e+00 3.018362095794268e+00 0.000000000000000e+00
3.625116145661053e+00 3.016044628465620e+00 0.000000000000000e+00
3.648261730190899e+00 3.013390636748137e+00 0.000000000000000e+00
3.670933352107626e+00 3.010863273573416e+00 0.000000000000000e+00
3.693685441265156e+00 3.008694571157911e+00 0.000000000000000e+00
3.716954647769947e+00 3.006923820042266e+00 0.000000000000000e+00
3.739816544127254e+00 3.005920487321277e+00 0.000000000000000e+00
3.762333249561499e+00 3.005216158857096e+00 0.000000000000000e+00
3.785850519759735e+00 3.003943149081065e+00 0.000000000000000e+00
3.808914585563875e+00 3.003212181954269e+00 0.000000000000000e+00
3.831615116905427e+00 3.003586227056460e+00 0.000000000000000e+00
3.854436011985902e+00 3.003666551840278e+00 0.000000000000000e+00
3.877788116177807e+00 3.002515988478658e+00 0.000000000000000e+00
3.900481643586954e+00 3.002326788933588e+00 0.000000000000000e+00
3.923153105000651e+00 3.003613845878567e+00 0.000000000000000e+00
3.946069279649552e+00 3.001134340887525e+00 0.000000000000000e+00
3.968820741077755e+00 3.001094513276025e+00 0.000000000000000e+00

POINT_DATA   310
SCALARS fY_Lag double
LOOKUP_TABLE default

8.148407e+02 
-5.050020e+02 
1.072893e+03 
-1.319756e+03 
2.676728e+03 
-4.769995e+03 
6.037691e+03 
-6.589536e+03 
5.910117e+03 
-2.808228e+03 
3.027707e+03 
-1.707732e+03 
8.116636e+02 
-8.190430e+02 
-2.607897e+02 
7.998507e+02 
-8.077060e+02 
1.034267e+03 
-1.811130e+01 
4.778931e+02 
-2.859533e+02 
5.963729e+02 
-2.404141e+03 
3.003637e+03 
-2.855433e+03 
4.977909e+03 
-3.297332e+03 
2.925708e+03 
-5.422264e+03 
4.392284e+03 
-4.694752e+02 
-4.448041e+02 
-5.006976e+02 
1.032459e+03 
-7.590765e+02 
5.342921e+02 
8.808181e+02 
-2.483110e+02 
-1.884369e+03 
1.713569e+03 
-1.695324e+03 
2.691919e+03 
-1.644019e+03 
4.904113e+02 
6.988023e+02 
-2.014317e+03 
1.540549e+03 
7.503969e+02 
-2.497373e+02 
-2.044582e+02 
1.689118e-01 
-4.390889e+02 
3.502700e+02 
6.451848e+02 
-1.181086e+03 
1.546872e+02 
1.201399e+03 
-1.376291e+03 
-6.761237e+01 
3.366427e+02 
-1.690791e+02 
8.770854e+01 
-4.904109e+02 
4.101770e+02 
2.057756e+02 
-9.960117e+02 
4.638511e+02 
-3.920769e+02 
-8.042250e+01 
-7.704855e+02 
-3.522070e+02 
-6.239772e+01 
-2.191159e+03 
-4.848032e+02 
1.507957e+01 
1.022082e+03 
-3.860218e+03 
-9.400611e+02 
1.804657e+03 
-1.904043e+03 
5.696766e+03 
-7.489398e+03 
3.321067e+03 
5.660904e+03 
-6.783123e+03 
5.903651e+03 
-8.782007e+02 
2.707091e+03 
-4.180495e+02 
4.496030e+02 
-1.579569e+03 
3.084523e+02 
1.249571e+03 
1.520390e+02 
8.514124e+02 
2.696403e+03 
-1.514536e+02 
1.274425e+03 
6.260697e+03 
-2.916907e+03 
-9.494655e+02 
7.787572e+02 
-3.832256e+03 
-1.842390e+03 
-2.188998e+03 
-2.833321e+03 
8.391466e+02 
1.414601e+03 
-6.201655e+03 
1.102657e+03 
4.626675e+03 
-1.345812e+04 
1.479666e+04 
-7.750411e+03 
-3.420254e+02 
2.487918e+03 
-5.891076e+02 
8.709374e+03 
-7.892205e+03 
6.431220e+03 
-3.024539e+03 
3.366063e+03 
-2.765522e+03 
4.036277e+03 
-3.867886e+00 
2.541408e+02 
3.182222e+03 
3.489107e+03 
9.960035e+02 
3.274723e+03 
1.136615e+03 
1.784713e+03 
2.831021e+03 
1.139697e+03 
-3.298336e+02 
6.074102e+02 
4.267873e+02 
4.184195e+02 
-2.032013e+03 
1.161313e+03 
-7.449000e+02 
-5.603812e+02 
-3.529766e+02 
-1.542131e+03 
-6.231008e+02 
1.164369e+03 
-1.227440e+03 
-1.784667e+03 
4.848522e+02 
2.168482e+03 
-1.779089e+03 
-2.138031e+03 
5.938636e+03 
-3.989961e+03 
9.685523e+02 
-8.148407e+02 
5.050020e+02 
-1.072893e+03 
1.319756e+03 
-2.676728e+03 
4.769995e+03 
-6.037691e+03 
6.589536e+03 
-5.910117e+03 
2.808228e+03 
-3.027707e+03 
1.707732e+03 
-8.116636e+02 
8.190430e+02 
2.607897e+02 
-7.998507e+02 
8.077060e+02 
-1.034267e+03 
1.811130e+01 
-4.778931e+02 
2.859533e+02 
-5.963729e+02 
2.404141e+03 
-3.003637e+03 
2.855433e+03 
-4.977909e+03 
3.297332e+03 
-2.925708e+03 
5.422264e+03 
-4.392284e+03 
4.694752e+02 
4.448041e+02 
5.006976e+02 
-1.032459e+03 
7.590765e+02 
-5.342921e+02 
-8.808181e+02 
2.483110e+02 
1.884369e+03 
-1.713569e+03 
1.695324e+03 
-2.691919e+03 
1.644019e+03 
-4.904113e+02 
-6.988023e+02 
2.014317e+03 
-1.540549e+03 
-7.503969e+02 
2.497373e+02 
2.044582e+02 
-1.689118e-01 
4.390889e+02 
-3.502700e+02 
-6.451848e+02 
1.181086e+03 
-1.546872e+02 
-1.201399e+03 
1.376291e+03 
6.761237e+01 
-3.366427e+02 
1.690791e+02 
-8.770854e+01 
4.904109e+02 
-4.101770e+02 
-2.057756e+02 
9.960117e+02 
-4.638511e+02 
3.920769e+02 
8.042250e+01 
7.704855e+02 
3.522070e+02 
6.239772e+01 
2.191159e+03 
4.848032e+02 
-1.507957e+01 
-1.022082e+03 
3.860218e+03 
9.400611e+02 
-1.804657e+03 
1.904043e+03 
-5.696766e+03 
7.489398e+03 
-3.321067e+03 
-5.660904e+03 
6.783123e+03 
-5.903651e+03 
8.782007e+02 
-2.707091e+03 
4.180495e+02 
-4.496030e+02 
1.579569e+03 
-3.084523e+02 
-1.249571e+03 
-1.520390e+02 
-8.514124e+02 
-2.696403e+03 
1.514536e+02 
-1.274425e+03 
-6.260697e+03 
2.916907e+03 
9.494655e+02 
-7.787572e+02 
3.832256e+03 
1.842390e+03 
2.188998e+03 
2.833321e+03 
-8.391466e+02 
-1.414601e+03 
6.201655e+03 
-1.102657e+03 
-4.626675e+03 
1.345812e+04 
-1.479666e+04 
7.750411e+03 
3.420254e+02 
-2.487918e+03 
5.891076e+02 
-8.709374e+03 
7.892205e+03 
-6.431220e+03 
3.024539e+03 
-3.366063e+03 
2.765522e+03 
-4.036277e+03 
3.867886e+00 
-2.541408e+02 
-3.182222e+03 
-3.489107e+03 
-9.960035e+02 
-3.274723e+03 
-1.136615e+03 
-1.784713e+03 
-2.831021e+03 
-1.139697e+03 
3.298336e+02 
-6.074102e+02 
-4.267873e+02 
-4.184195e+02 
2.032013e+03 
-1.161313e+03 
7.449000e+02 
5.603812e+02 
3.529766e+02 
1.542131e+03 
6.231008e+02 
-1.164369e+03 
1.227440e+03 
1.784667e+03 
-4.848522e+02 
-2.168482e+03 
1.779089e+03 
2.138031e+03 
-5.938636e+03 
3.989961e+03 
-9.685523e+02 
