# vtk DataFile Version 2.0
fY_Lag
ASCII
DATASET UNSTRUCTURED_GRID

FIELD FieldData 1
TIME 1 1 double
0.15500000
POINTS 310 float
1.007662051948357e+00 2.000089348541985e+00 0.000000000000000e+00
1.027880091161686e+00 2.002719328112512e+00 0.000000000000000e+00
1.048201003136763e+00 2.003555344065112e+00 0.000000000000000e+00
1.068680485989567e+00 2.004613215555210e+00 0.000000000000000e+00
1.088462498842084e+00 2.007515293628451e+00 0.000000000000000e+00
1.109061272332523e+00 2.009579061592462e+00 0.000000000000000e+00
1.129412848237422e+00 2.010976470754919e+00 0.000000000000000e+00
1.149550141945213e+00 2.013450835958787e+00 0.000000000000000e+00
1.170011565502255e+00 2.015422046167047e+00 0.000000000000000e+00
1.189930743354423e+00 2.019450421261499e+00 0.000000000000000e+00
1.210480814077072e+00 2.021378991007831e+00 0.000000000000000e+00
1.230459748093590e+00 2.025221618632576e+00 0.000000000000000e+00
1.250859738122260e+00 2.027794103182698e+00 0.000000000000000e+00
1.270706174472006e+00 2.032194413465385e+00 0.000000000000000e+00
1.291237102615707e+00 2.035164232355933e+00 0.000000000000000e+00
1.310939980294959e+00 2.039330534025244e+00 0.000000000000000e+00
1.331503266583199e+00 2.043110885483088e+00 0.000000000000000e+00
1.351289597637832e+00 2.046586560884953e+00 0.000000000000000e+00
1.371509295063659e+00 2.051343805375746e+00 0.000000000000000e+00
1.391369039398858e+00 2.055638426390203e+00 0.000000000000000e+00
1.411201320687311e+00 2.060910048533258e+00 0.000000000000000e+00
1.431025285710122e+00 2.066051485459249e+00 0.000000000000000e+00
1.450986539655045e+00 2.071846752222629e+00 0.000000000000000e+00
1.470400343913532e+00 2.077050323155692e+00 0.000000000000000e+00
1.490428418377893e+00 2.082817214294101e+00 0.000000000000000e+00
1.509525446991051e+00 2.089192686495066e+00 0.000000000000000e+00
1.529372135782439e+00 2.096082820783360e+00 0.000000000000000e+00
1.548240701399928e+00 2.102543706687757e+00 0.000000000000000e+00
1.568123406713783e+00 2.109588404486927e+00 0.000000000000000e+00
1.587006373969536e+00 2.116117075148060e+00 0.000000000000000e+00
1.605888644810509e+00 2.124825351547530e+00 0.000000000000000e+00
1.625314895651470e+00 2.130947026874084e+00 0.000000000000000e+00
1.644045909057953e+00 2.139758714805686e+00 0.000000000000000e+00
1.661891908292279e+00 2.149416483792504e+00 0.000000000000000e+00
1.681050355524040e+00 2.157321119418341e+00 0.000000000000000e+00
1.699694264673732e+00 2.165545319105139e+00 0.000000000000000e+00
1.717389462364119e+00 2.176467442162051e+00 0.000000000000000e+00
1.737471962392422e+00 2.179677229607908e+00 0.000000000000000e+00
1.755345151160368e+00 2.189807975086102e+00 0.000000000000000e+00
1.773808621622117e+00 2.198928548924338e+00 0.000000000000000e+00
1.793391803350966e+00 2.205146729051154e+00 0.000000000000000e+00
1.811971419544634e+00 2.213157512017406e+00 0.000000000000000e+00
1.831378631017000e+00 2.221429634986193e+00 0.000000000000000e+00
1.850393716826487e+00 2.228238900617767e+00 0.000000000000000e+00
1.869814165880296e+00 2.234414372393370e+00 0.000000000000000e+00
1.890002871814760e+00 2.239064216946124e+00 0.000000000000000e+00
1.907667028885192e+00 2.249607283614636e+00 0.000000000000000e+00
1.928184915129819e+00 2.253443229851037e+00 0.000000000000000e+00
1.947428158990000e+00 2.259951705460061e+00 0.000000000000000e+00
1.966975525610248e+00 2.267060876199585e+00 0.000000000000000e+00
1.985655991784000e+00 2.275551330671402e+00 0.000000000000000e+00
2.005395522526338e+00 2.280895242178111e+00 0.000000000000000e+00
2.025107936238963e+00 2.287469337108757e+00 0.000000000000000e+00
2.044639295987980e+00 2.294873063433981e+00 0.000000000000000e+00
2.063384908668516e+00 2.303435235223806e+00 0.000000000000000e+00
2.083486656597446e+00 2.307453123802050e+00 0.000000000000000e+00
2.103759101991552e+00 2.313322685273823e+00 0.000000000000000e+00
2.122107648432277e+00 2.322018787796119e+00 0.000000000000000e+00
2.142454028482480e+00 2.326028524861347e+00 0.000000000000000e+00
2.163202581128881e+00 2.329233140177823e+00 0.000000000000000e+00
2.183823888097192e+00 2.333341572939397e+00 0.000000000000000e+00
2.203446475347854e+00 2.337489318576894e+00 0.000000000000000e+00
2.224273520474799e+00 2.339902159889169e+00 0.000000000000000e+00
2.245178314511163e+00 2.340022320131044e+00 0.000000000000000e+00
2.265885736551257e+00 2.342904493446187e+00 0.000000000000000e+00
2.286130561331764e+00 2.345948469187645e+00 0.000000000000000e+00
2.307235788301406e+00 2.346062880208186e+00 0.000000000000000e+00
2.327757220373881e+00 2.347558802729459e+00 0.000000000000000e+00
2.348484866902862e+00 2.350118137354103e+00 0.000000000000000e+00
2.368573685706817e+00 2.352450618079598e+00 0.000000000000000e+00
2.389989433634414e+00 2.352688495785941e+00 0.000000000000000e+00
2.410697457026109e+00 2.353537421822416e+00 0.000000000000000e+00
2.430768524959273e+00 2.356714229935175e+00 0.000000000000000e+00
2.451490207691266e+00 2.359409909653813e+00 0.000000000000000e+00
2.472469603822498e+00 2.360814896427700e+00 0.000000000000000e+00
2.493077115167995e+00 2.362339858637509e+00 0.000000000000000e+00
2.513482190678506e+00 2.364985109895869e+00 0.000000000000000e+00
2.534436535925998e+00 2.366567937184084e+00 0.000000000000000e+00
2.555265434095532e+00 2.366685273158656e+00 0.000000000000000e+00
2.575577637481101e+00 2.366720901390805e+00 0.000000000000000e+00
2.596376543216251e+00 2.366186548419947e+00 0.000000000000000e+00
2.617597431308950e+00 2.365920960088824e+00 0.000000000000000e+00
2.638301348147565e+00 2.362937184358909e+00 0.000000000000000e+00
2.658906259855848e+00 2.360382811959846e+00 0.000000000000000e+00
2.678991698275640e+00 2.359933753767350e+00 0.000000000000000e+00
2.700379216213951e+00 2.357262999851821e+00 0.000000000000000e+00
2.720496552027621e+00 2.353503262991484e+00 0.000000000000000e+00
2.741099442722938e+00 2.350423275367216e+00 0.000000000000000e+00
2.762058625716096e+00 2.348678073914535e+00 0.000000000000000e+00
2.782995100065802e+00 2.344997201736508e+00 0.000000000000000e+00
2.803547482985814e+00 2.342623800419438e+00 0.000000000000000e+00
2.823991975644914e+00 2.339990607674800e+00 0.000000000000000e+00
2.845010550893117e+00 2.337908279455574e+00 0.000000000000000e+00
2.865593577740746e+00 2.336231335103927e+00 0.000000000000000e+00
2.886490007759383e+00 2.333985620923693e+00 0.000000000000000e+00
2.907536699364778e+00 2.333724490205112e+00 0.000000000000000e+00
2.928664622955068e+00 2.333996837582502e+00 0.000000000000000e+00
2.948534126992418e+00 2.333314148166459e+00 0.000000000000000e+00
2.969768135926245e+00 2.334047096415824e+00 0.000000000000000e+00
2.990233248159179e+00 2.335288650130306e+00 0.000000000000000e+00
3.010876819942597e+00 2.337282931861131e+00 0.000000000000000e+00
3.032550408111491e+00 2.339413531868198e+00 0.000000000000000e+00
3.052982065833443e+00 2.340156349201062e+00 0.000000000000000e+00
3.073789775075425e+00 2.342109206239789e+00 0.000000000000000e+00
3.094792980795424e+00 2.344169419176922e+00 0.000000000000000e+00
3.115270385862796e+00 2.345776484676166e+00 0.000000000000000e+00
3.136423683761580e+00 2.346241383004521e+00 0.000000000000000e+00
3.155943155874854e+00 2.345377558456335e+00 0.000000000000000e+00
3.178016431539759e+00 2.346194151045434e+00 0.000000000000000e+00
3.198805148972010e+00 2.345710807356045e+00 0.000000000000000e+00
3.218648550565964e+00 2.344265374864798e+00 0.000000000000000e+00
3.240152497940482e+00 2.343548337485322e+00 0.000000000000000e+00
3.260831546855237e+00 2.343157477178545e+00 0.000000000000000e+00
3.281876786788174e+00 2.343585370825364e+00 0.000000000000000e+00
3.302424839003003e+00 2.342455762037233e+00 0.000000000000000e+00
3.322997341444950e+00 2.341088754537436e+00 0.000000000000000e+00
3.345202543047656e+00 2.341061966552106e+00 0.000000000000000e+00
3.366009677572056e+00 2.340773766846636e+00 0.000000000000000e+00
3.385965628733151e+00 2.340042733735338e+00 0.000000000000000e+00
3.407408321416404e+00 2.338536815426630e+00 0.000000000000000e+00
3.428012284937372e+00 2.336951102037133e+00 0.000000000000000e+00
3.448973913735832e+00 2.334523545357308e+00 0.000000000000000e+00
3.469049243845992e+00 2.331329163006043e+00 0.000000000000000e+00
3.490309214808677e+00 2.328745950065947e+00 0.000000000000000e+00
3.511652582361649e+00 2.325984308140333e+00 0.000000000000000e+00
3.531265496854151e+00 2.323245834534135e+00 0.000000000000000e+00
3.552177188657189e+00 2.321548967728936e+00 0.000000000000000e+00
3.573628246920914e+00 2.319597891014772e+00 0.000000000000000e+00
3.593529684560091e+00 2.316677305268323e+00 0.000000000000000e+00
3.615457124198846e+00 2.316005089149527e+00 0.000000000000000e+00
3.635061984819216e+00 2.312351392955682e+00 0.000000000000000e+00
3.657572624186580e+00 2.308252520659543e+00 0.000000000000000e+00
3.676733118879675e+00 2.304819095658723e+00 0.000000000000000e+00
3.697795214872707e+00 2.301258576496494e+00 0.000000000000000e+00
3.718420510706713e+00 2.299016079663034e+00 0.000000000000000e+00
3.738500319760863e+00 2.292009461692072e+00 0.000000000000000e+00
3.758741165967246e+00 2.286268232166186e+00 0.000000000000000e+00
3.778897841542908e+00 2.282314510900501e+00 0.000000000000000e+00
3.798875662092961e+00 2.276479000320337e+00 0.000000000000000e+00
3.817448033467522e+00 2.266442145695777e+00 0.000000000000000e+00
3.834425277193672e+00 2.254274013866547e+00 0.000000000000000e+00
3.851208780485359e+00 2.241589070397818e+00 0.000000000000000e+00
3.866283861219215e+00 2.226807337176601e+00 0.000000000000000e+00
3.879791043289755e+00 2.211201992384268e+00 0.000000000000000e+00
3.893645456373313e+00 2.196456938859347e+00 0.000000000000000e+00
3.906422429594646e+00 2.179542066915470e+00 0.000000000000000e+00
3.917655864671900e+00 2.160611768921631e+00 0.000000000000000e+00
3.929335586582657e+00 2.144514980357777e+00 0.000000000000000e+00
3.939410603469999e+00 2.125972039765395e+00 0.000000000000000e+00
3.947291930187237e+00 2.106341663425370e+00 0.000000000000000e+00
3.958286617176075e+00 2.088401411231574e+00 0.000000000000000e+00
3.969860199146186e+00 2.070617310014083e+00 0.000000000000000e+00
3.976793984540943e+00 2.051465173617749e+00 0.000000000000000e+00
3.981665555419819e+00 2.030235660799649e+00 0.000000000000000e+00
3.996355662783875e+00 2.014581445445855e+00 0.000000000000000e+00
1.007662051948358e+00 2.999910651458016e+00 0.000000000000000e+00
1.027880091161687e+00 2.997280671887490e+00 0.000000000000000e+00
1.048201003136763e+00 2.996444655934894e+00 0.000000000000000e+00
1.068680485989569e+00 2.995386784444793e+00 0.000000000000000e+00
1.088462498842083e+00 2.992484706371555e+00 0.000000000000000e+00
1.109061272332526e+00 2.990420938407548e+00 0.000000000000000e+00
1.129412848237420e+00 2.989023529245090e+00 0.000000000000000e+00
1.149550141945214e+00 2.986549164041226e+00 0.000000000000000e+00
1.170011565502255e+00 2.984577953832972e+00 0.000000000000000e+00
1.189930743354425e+00 2.980549578738525e+00 0.000000000000000e+00
1.210480814077074e+00 2.978621008992191e+00 0.000000000000000e+00
1.230459748093590e+00 2.974778381367446e+00 0.000000000000000e+00
1.250859738122263e+00 2.972205896817325e+00 0.000000000000000e+00
1.270706174472006e+00 2.967805586534645e+00 0.000000000000000e+00
1.291237102615711e+00 2.964835767644091e+00 0.000000000000000e+00
1.310939980294960e+00 2.960669465974787e+00 0.000000000000000e+00
1.331503266583201e+00 2.956889114516942e+00 0.000000000000000e+00
1.351289597637833e+00 2.953413439115074e+00 0.000000000000000e+00
1.371509295063660e+00 2.948656194624278e+00 0.000000000000000e+00
1.391369039398857e+00 2.944361573609823e+00 0.000000000000000e+00
1.411201320687315e+00 2.939089951466771e+00 0.000000000000000e+00
1.431025285710118e+00 2.933948514540773e+00 0.000000000000000e+00
1.450986539655048e+00 2.928153247777400e+00 0.000000000000000e+00
1.470400343913531e+00 2.922949676844332e+00 0.000000000000000e+00
1.490428418377892e+00 2.917182785705923e+00 0.000000000000000e+00
1.509525446991052e+00 2.910807313504961e+00 0.000000000000000e+00
1.529372135782437e+00 2.903917179216664e+00 0.000000000000000e+00
1.548240701399927e+00 2.897456293312265e+00 0.000000000000000e+00
1.568123406713782e+00 2.890411595513096e+00 0.000000000000000e+00
1.587006373969533e+00 2.883882924851961e+00 0.000000000000000e+00
1.605888644810508e+00 2.875174648452492e+00 0.000000000000000e+00
1.625314895651467e+00 2.869052973125935e+00 0.000000000000000e+00
1.644045909057952e+00 2.860241285194334e+00 0.000000000000000e+00
1.661891908292275e+00 2.850583516207518e+00 0.000000000000000e+00
1.681050355524036e+00 2.842678880581675e+00 0.000000000000000e+00
1.699694264673727e+00 2.834454680894881e+00 0.000000000000000e+00
1.717389462364115e+00 2.823532557837968e+00 0.000000000000000e+00
1.737471962392420e+00 2.820322770392115e+00 0.000000000000000e+00
1.755345151160363e+00 2.810192024913917e+00 0.000000000000000e+00
1.773808621622112e+00 2.801071451075677e+00 0.000000000000000e+00
1.793391803350961e+00 2.794853270948867e+00 0.000000000000000e+00
1.811971419544626e+00 2.786842487982612e+00 0.000000000000000e+00
1.831378631016995e+00 2.778570365013827e+00 0.000000000000000e+00
1.850393716826480e+00 2.771761099382250e+00 0.000000000000000e+00
1.869814165880290e+00 2.765585627606648e+00 0.000000000000000e+00
1.890002871814754e+00 2.760935783053898e+00 0.000000000000000e+00
1.907667028885187e+00 2.750392716385384e+00 0.000000000000000e+00
1.928184915129812e+00 2.746556770148977e+00 0.000000000000000e+00
1.947428158989996e+00 2.740048294539962e+00 0.000000000000000e+00
1.966975525610247e+00 2.732939123800438e+00 0.000000000000000e+00
1.985655991783996e+00 2.724448669328616e+00 0.000000000000000e+00
2.005395522526336e+00 2.719104757821909e+00 0.000000000000000e+00
2.025107936238961e+00 2.712530662891270e+00 0.000000000000000e+00
2.044639295987977e+00 2.705126936566042e+00 0.000000000000000e+00
2.063384908668515e+00 2.696564764776223e+00 0.000000000000000e+00
2.083486656597447e+00 2.692546876197976e+00 0.000000000000000e+00
2.103759101991551e+00 2.686677314726207e+00 0.000000000000000e+00
2.122107648432282e+00 2.677981212203917e+00 0.000000000000000e+00
2.142454028482482e+00 2.673971475138691e+00 0.000000000000000e+00
2.163202581128889e+00 2.670766859822227e+00 0.000000000000000e+00
2.183823888097193e+00 2.666658427060649e+00 0.000000000000000e+00
2.203446475347858e+00 2.662510681423157e+00 0.000000000000000e+00
2.224273520474803e+00 2.660097840110893e+00 0.000000000000000e+00
2.245178314511168e+00 2.659977679869017e+00 0.000000000000000e+00
2.265885736551259e+00 2.657095506553870e+00 0.000000000000000e+00
2.286130561331767e+00 2.654051530812414e+00 0.000000000000000e+00
2.307235788301409e+00 2.653937119791878e+00 0.000000000000000e+00
2.327757220373884e+00 2.652441197270601e+00 0.000000000000000e+00
2.348484866902864e+00 2.649881862645953e+00 0.000000000000000e+00
2.368573685706818e+00 2.647549381920459e+00 0.000000000000000e+00
2.389989433634418e+00 2.647311504214120e+00 0.000000000000000e+00
2.410697457026107e+00 2.646462578177637e+00 0.000000000000000e+00
2.430768524959278e+00 2.643285770064873e+00 0.000000000000000e+00
2.451490207691267e+00 2.640590090346239e+00 0.000000000000000e+00
2.472469603822502e+00 2.639185103572344e+00 0.000000000000000e+00
2.493077115167991e+00 2.637660141362531e+00 0.000000000000000e+00
2.513482190678512e+00 2.635014890104171e+00 0.000000000000000e+00
2.534436535925999e+00 2.633432062815958e+00 0.000000000000000e+00
2.555265434095534e+00 2.633314726841382e+00 0.000000000000000e+00
2.575577637481102e+00 2.633279098609233e+00 0.000000000000000e+00
2.596376543216252e+00 2.633813451580087e+00 0.000000000000000e+00
2.617597431308951e+00 2.634079039911214e+00 0.000000000000000e+00
2.638301348147563e+00 2.637062815641134e+00 0.000000000000000e+00
2.658906259855846e+00 2.639617188040196e+00 0.000000000000000e+00
2.678991698275639e+00 2.640066246232690e+00 0.000000000000000e+00
2.700379216213949e+00 2.642737000148222e+00 0.000000000000000e+00
2.720496552027619e+00 2.646496737008563e+00 0.000000000000000e+00
2.741099442722933e+00 2.649576724632829e+00 0.000000000000000e+00
2.762058625716095e+00 2.651321926085509e+00 0.000000000000000e+00
2.782995100065800e+00 2.655002798263534e+00 0.000000000000000e+00
2.803547482985810e+00 2.657376199580615e+00 0.000000000000000e+00
2.823991975644911e+00 2.660009392325250e+00 0.000000000000000e+00
2.845010550893113e+00 2.662091720544469e+00 0.000000000000000e+00
2.865593577740741e+00 2.663768664896120e+00 0.000000000000000e+00
2.886490007759380e+00 2.666014379076359e+00 0.000000000000000e+00
2.907536699364770e+00 2.666275509794940e+00 0.000000000000000e+00
2.928664622955066e+00 2.666003162417549e+00 0.000000000000000e+00
2.948534126992410e+00 2.666685851833601e+00 0.000000000000000e+00
2.969768135926244e+00 2.665952903584241e+00 0.000000000000000e+00
2.990233248159170e+00 2.664711349869761e+00 0.000000000000000e+00
3.010876819942591e+00 2.662717068138933e+00 0.000000000000000e+00
3.032550408111483e+00 2.660586468131873e+00 0.000000000000000e+00
3.052982065833438e+00 2.659843650799013e+00 0.000000000000000e+00
3.073789775075421e+00 2.657890793760291e+00 0.000000000000000e+00
3.094792980795415e+00 2.655830580823160e+00 0.000000000000000e+00
3.115270385862797e+00 2.654223515323913e+00 0.000000000000000e+00
3.136423683761573e+00 2.653758616995564e+00 0.000000000000000e+00
3.155943155874850e+00 2.654622441543756e+00 0.000000000000000e+00
3.178016431539756e+00 2.653805848954648e+00 0.000000000000000e+00
3.198805148972010e+00 2.654289192644032e+00 0.000000000000000e+00
3.218648550565954e+00 2.655734625135283e+00 0.000000000000000e+00
3.240152497940473e+00 2.656451662514762e+00 0.000000000000000e+00
3.260831546855234e+00 2.656842522821532e+00 0.000000000000000e+00
3.281876786788166e+00 2.656414629174707e+00 0.000000000000000e+00
3.302424839002998e+00 2.657544237962832e+00 0.000000000000000e+00
3.322997341444937e+00 2.658911245462638e+00 0.000000000000000e+00
3.345202543047654e+00 2.658938033447962e+00 0.000000000000000e+00
3.366009677572040e+00 2.659226233153436e+00 0.000000000000000e+00
3.385965628733144e+00 2.659957266264731e+00 0.000000000000000e+00
3.407408321416393e+00 2.661463184573439e+00 0.000000000000000e+00
3.428012284937374e+00 2.663048897962928e+00 0.000000000000000e+00
3.448973913735823e+00 2.665476454642755e+00 0.000000000000000e+00
3.469049243845980e+00 2.668670836994015e+00 0.000000000000000e+00
3.490309214808676e+00 2.671254049934104e+00 0.000000000000000e+00
3.511652582361640e+00 2.674015691859720e+00 0.000000000000000e+00
3.531265496854155e+00 2.676754165465915e+00 0.000000000000000e+00
3.552177188657187e+00 2.678451032271112e+00 0.000000000000000e+00
3.573628246920918e+00 2.680402108985278e+00 0.000000000000000e+00
3.593529684560095e+00 2.683322694731726e+00 0.000000000000000e+00
3.615457124198842e+00 2.683994910850516e+00 0.000000000000000e+00
3.635061984819222e+00 2.687648607044369e+00 0.000000000000000e+00
3.657572624186587e+00 2.691747479340502e+00 0.000000000000000e+00
3.676733118879683e+00 2.695180904341303e+00 0.000000000000000e+00
3.697795214872714e+00 2.698741423503522e+00 0.000000000000000e+00
3.718420510706728e+00 2.700983920336994e+00 0.000000000000000e+00
3.738500319760865e+00 2.707990538307961e+00 0.000000000000000e+00
3.758741165967260e+00 2.713731767833836e+00 0.000000000000000e+00
3.778897841542916e+00 2.717685489099494e+00 0.000000000000000e+00
3.798875662092977e+00 2.723520999679652e+00 0.000000000000000e+00
3.817448033467532e+00 2.733557854304218e+00 0.000000000000000e+00
3.834425277193676e+00 2.745725986133459e+00 0.000000000000000e+00
3.851208780485365e+00 2.758410929602189e+00 0.000000000000000e+00
3.866283861219220e+00 2.773192662823400e+00 0.000000000000000e+00
3.879791043289768e+00 2.788798007615737e+00 0.000000000000000e+00
3.893645456373314e+00 2.803543061140657e+00 0.000000000000000e+00
3.906422429594656e+00 2.820457933084531e+00 0.000000000000000e+00
3.917655864671909e+00 2.839388231078370e+00 0.000000000000000e+00
3.929335586582667e+00 2.855485019642225e+00 0.000000000000000e+00
3.939410603470002e+00 2.874027960234607e+00 0.000000000000000e+00
3.947291930187249e+00 2.893658336574632e+00 0.000000000000000e+00
3.958286617176094e+00 2.911598588768416e+00 0.000000000000000e+00
3.969860199146201e+00 2.929382689985920e+00 0.000000000000000e+00
3.976793984540946e+00 2.948534826382252e+00 0.000000000000000e+00
3.981665555419823e+00 2.969764339200353e+00 0.000000000000000e+00
3.996355662783879e+00 2.985418554554148e+00 0.000000000000000e+00

POINT_DATA   310
SCALARS fY_Lag double
LOOKUP_TABLE default

9.634127e+02 
-9.198114e+02 
1.634198e+02 
3.296216e+02 
4.248119e+02 
-5.725908e+02 
4.150929e+02 
1.085495e+02 
6.871832e+02 
-5.744693e+02 
5.677493e+02 
-2.316119e+02 
5.001066e+02 
1.894059e+01 
-4.562216e+02 
1.202458e+03 
-1.529654e+03 
1.982407e+03 
-1.138267e+03 
9.474934e+02 
-1.430176e+02 
1.122325e+03 
-2.052720e+03 
2.200652e+03 
-1.643558e+03 
2.989088e+03 
-3.472445e+03 
3.920105e+03 
-3.714121e+03 
3.982998e+03 
-2.851142e+03 
2.651984e+03 
-1.293708e+03 
8.464523e+02 
-1.149734e+03 
3.256691e+03 
-5.768241e+03 
4.350644e+03 
-4.223022e+02 
-1.936199e+03 
-3.441168e+02 
3.372024e+03 
-4.005141e+03 
3.290343e+02 
1.912416e+02 
2.911898e+03 
-3.253816e+03 
-5.453406e+01 
1.989722e+03 
-6.502233e+01 
-1.896310e+03 
1.519421e+03 
8.703829e+02 
-3.547219e+02 
-2.920774e+03 
2.590243e+03 
-8.168680e+02 
-1.390897e+03 
-3.788414e+02 
6.957744e+02 
-1.720818e+03 
3.399301e+02 
-1.608228e+03 
2.020595e+03 
-4.872837e+02 
-1.494696e+03 
7.190164e+02 
1.054312e+03 
-8.861633e+02 
-7.000935e+02 
3.302449e+02 
8.947653e+02 
5.848975e+02 
-9.029490e+02 
-2.623900e+02 
6.345036e+02 
-1.166240e+02 
-9.351572e+02 
8.888464e+01 
-2.725887e+02 
1.426928e+02 
-1.724684e+03 
5.679575e+02 
1.462767e+03 
-2.583644e+03 
7.520390e+02 
-1.706271e+02 
7.111011e+02 
-1.728651e+03 
1.652066e+03 
-3.276125e+01 
-1.841275e+02 
6.867783e+02 
-6.075115e+02 
1.612693e+03 
4.849471e+02 
-3.321254e+02 
8.312748e+02 
1.022923e+02 
6.165885e+02 
1.000033e+03 
-1.893477e+03 
1.026379e+03 
4.031948e+02 
-8.347416e+02 
-5.059847e+02 
-6.665979e+02 
1.235297e+03 
-1.432803e+03 
-8.898765e+01 
-3.874120e+02 
4.302801e+02 
4.820762e+02 
-9.647330e+02 
-7.675267e+01 
9.381380e+02 
-1.504931e+02 
-1.220914e+02 
-1.141513e+03 
3.136014e+02 
-1.046953e+03 
4.670586e+02 
-8.521563e+02 
-2.142277e+02 
2.093453e+03 
-6.465602e+02 
-5.732623e+02 
8.193170e+02 
3.030359e+02 
-4.296581e+02 
-5.154415e+03 
5.906920e+03 
-3.105841e+03 
1.611680e+03 
-4.727039e+03 
1.487224e+03 
2.335181e+03 
-1.812384e+03 
-4.596436e+03 
-7.173009e+02 
-1.358375e+03 
-2.499199e+03 
2.697340e+03 
3.793424e+03 
-8.724411e+03 
-7.868732e+03 
1.852003e+04 
-1.090072e+04 
-8.414159e+02 
1.970467e+03 
-1.380450e+03 
6.291696e+03 
-1.408631e+04 
8.525757e+03 
-4.375570e+02 
-9.634127e+02 
9.198114e+02 
-1.634198e+02 
-3.296216e+02 
-4.248119e+02 
5.725908e+02 
-4.150929e+02 
-1.085495e+02 
-6.871832e+02 
5.744693e+02 
-5.677493e+02 
2.316119e+02 
-5.001066e+02 
-1.894059e+01 
4.562216e+02 
-1.202458e+03 
1.529654e+03 
-1.982407e+03 
1.138267e+03 
-9.474934e+02 
1.430176e+02 
-1.122325e+03 
2.052720e+03 
-2.200652e+03 
1.643558e+03 
-2.989088e+03 
3.472445e+03 
-3.920105e+03 
3.714121e+03 
-3.982998e+03 
2.851142e+03 
-2.651984e+03 
1.293708e+03 
-8.464523e+02 
1.149734e+03 
-3.256691e+03 
5.768241e+03 
-4.350644e+03 
4.223022e+02 
1.936199e+03 
3.441168e+02 
-3.372024e+03 
4.005141e+03 
-3.290343e+02 
-1.912416e+02 
-2.911898e+03 
3.253816e+03 
5.453406e+01 
-1.989722e+03 
6.502233e+01 
1.896310e+03 
-1.519421e+03 
-8.703829e+02 
3.547219e+02 
2.920774e+03 
-2.590243e+03 
8.168680e+02 
1.390897e+03 
3.788414e+02 
-6.957744e+02 
1.720818e+03 
-3.399301e+02 
1.608228e+03 
-2.020595e+03 
4.872837e+02 
1.494696e+03 
-7.190164e+02 
-1.054312e+03 
8.861633e+02 
7.000935e+02 
-3.302449e+02 
-8.947653e+02 
-5.848975e+02 
9.029490e+02 
2.623900e+02 
-6.345036e+02 
1.166240e+02 
9.351572e+02 
-8.888464e+01 
2.725887e+02 
-1.426928e+02 
1.724684e+03 
-5.679575e+02 
-1.462767e+03 
2.583644e+03 
-7.520390e+02 
1.706271e+02 
-7.111011e+02 
1.728651e+03 
-1.652066e+03 
3.276125e+01 
1.841275e+02 
-6.867783e+02 
6.075115e+02 
-1.612693e+03 
-4.849471e+02 
3.321254e+02 
-8.312748e+02 
-1.022923e+02 
-6.165885e+02 
-1.000033e+03 
1.893477e+03 
-1.026379e+03 
-4.031948e+02 
8.347416e+02 
5.059847e+02 
6.665979e+02 
-1.235297e+03 
1.432803e+03 
8.898765e+01 
3.874120e+02 
-4.302801e+02 
-4.820762e+02 
9.647330e+02 
7.675267e+01 
-9.381380e+02 
1.504931e+02 
1.220914e+02 
1.141513e+03 
-3.136014e+02 
1.046953e+03 
-4.670586e+02 
8.521563e+02 
2.142277e+02 
-2.093453e+03 
6.465602e+02 
5.732623e+02 
-8.193170e+02 
-3.030359e+02 
4.296581e+02 
5.154415e+03 
-5.906920e+03 
3.105841e+03 
-1.611680e+03 
4.727039e+03 
-1.487224e+03 
-2.335181e+03 
1.812384e+03 
4.596436e+03 
7.173009e+02 
1.358375e+03 
2.499199e+03 
-2.697340e+03 
-3.793424e+03 
8.724411e+03 
7.868732e+03 
-1.852003e+04 
1.090072e+04 
8.414159e+02 
-1.970467e+03 
1.380450e+03 
-6.291696e+03 
1.408631e+04 
-8.525757e+03 
4.375570e+02 
