# vtk DataFile Version 2.0
fY_Lag
ASCII
DATASET UNSTRUCTURED_GRID

FIELD FieldData 1
TIME 1 1 double
0.13500000
POINTS 310 float
1.033109492268357e+00 2.003363090360892e+00 0.000000000000000e+00
1.055803581695958e+00 2.005846483316228e+00 0.000000000000000e+00
1.078070123081392e+00 2.010831755405618e+00 0.000000000000000e+00
1.100612617909398e+00 2.014548353421705e+00 0.000000000000000e+00
1.122628307978593e+00 2.019578692392400e+00 0.000000000000000e+00
1.144884652533541e+00 2.025127418355125e+00 0.000000000000000e+00
1.166768103648333e+00 2.030463738386554e+00 0.000000000000000e+00
1.188703239921653e+00 2.036522760234972e+00 0.000000000000000e+00
1.210603637714473e+00 2.041653027273058e+00 0.000000000000000e+00
1.232081052336918e+00 2.048913161360157e+00 0.000000000000000e+00
1.253940279187412e+00 2.054700494757680e+00 0.000000000000000e+00
1.275387744805948e+00 2.061617126286583e+00 0.000000000000000e+00
1.297462946500638e+00 2.066989985489460e+00 0.000000000000000e+00
1.318435514398268e+00 2.073954642048924e+00 0.000000000000000e+00
1.340636780843547e+00 2.079802314913986e+00 0.000000000000000e+00
1.361568783260185e+00 2.085871708599884e+00 0.000000000000000e+00
1.383761185359152e+00 2.090939363455738e+00 0.000000000000000e+00
1.405169685058969e+00 2.095584189273950e+00 0.000000000000000e+00
1.427268376307433e+00 2.101001307903594e+00 0.000000000000000e+00
1.449002095762306e+00 2.105163009898571e+00 0.000000000000000e+00
1.470679933849743e+00 2.109375289330766e+00 0.000000000000000e+00
1.492444586617599e+00 2.113123024979189e+00 0.000000000000000e+00
1.514692632710001e+00 2.117082027706766e+00 0.000000000000000e+00
1.536156920112723e+00 2.120126832248679e+00 0.000000000000000e+00
1.558279054964399e+00 2.124180948594348e+00 0.000000000000000e+00
1.579201528906585e+00 2.129199748687893e+00 0.000000000000000e+00
1.601650971260465e+00 2.134583199633304e+00 0.000000000000000e+00
1.622590245164607e+00 2.138339169894129e+00 0.000000000000000e+00
1.644601830958873e+00 2.142433181628243e+00 0.000000000000000e+00
1.665717408045151e+00 2.147276197173603e+00 0.000000000000000e+00
1.687158342913047e+00 2.154442170403082e+00 0.000000000000000e+00
1.708301273734645e+00 2.158151304446337e+00 0.000000000000000e+00
1.729422499684817e+00 2.165534375534618e+00 0.000000000000000e+00
1.749466453080146e+00 2.174040983784077e+00 0.000000000000000e+00
1.770697042948595e+00 2.180072020616027e+00 0.000000000000000e+00
1.791272701417357e+00 2.187334572884094e+00 0.000000000000000e+00
1.810541321999241e+00 2.198288866561180e+00 0.000000000000000e+00
1.831783046197757e+00 2.201416468832285e+00 0.000000000000000e+00
1.851411194018446e+00 2.212781172133136e+00 0.000000000000000e+00
1.870628168816983e+00 2.222837842702888e+00 0.000000000000000e+00
1.891181038965240e+00 2.229919841261984e+00 0.000000000000000e+00
1.910603820447037e+00 2.239620603779042e+00 0.000000000000000e+00
1.930274602297172e+00 2.250476495191140e+00 0.000000000000000e+00
1.949582500983144e+00 2.259800858425417e+00 0.000000000000000e+00
1.969990744344021e+00 2.267309121024782e+00 0.000000000000000e+00
1.991179892609942e+00 2.272987068919952e+00 0.000000000000000e+00
2.010048385859273e+00 2.284031086876759e+00 0.000000000000000e+00
2.031479592228180e+00 2.286878139985855e+00 0.000000000000000e+00
2.052760327295195e+00 2.291507689237037e+00 0.000000000000000e+00
2.074373285018387e+00 2.296811566343328e+00 0.000000000000000e+00
2.094240215451614e+00 2.303202626843077e+00 0.000000000000000e+00
2.116001687040984e+00 2.305535453463180e+00 0.000000000000000e+00
2.137785699307825e+00 2.308220158787254e+00 0.000000000000000e+00
2.159719398590759e+00 2.311409018597338e+00 0.000000000000000e+00
2.179802360223195e+00 2.315864400044902e+00 0.000000000000000e+00
2.201648830190849e+00 2.315947246052386e+00 0.000000000000000e+00
2.224077729512834e+00 2.317035556592204e+00 0.000000000000000e+00
2.244403293110242e+00 2.320913025166288e+00 0.000000000000000e+00
2.266429585255585e+00 2.320688686002585e+00 0.000000000000000e+00
2.288148847894333e+00 2.319542043364581e+00 0.000000000000000e+00
2.310335532166164e+00 2.319025649988669e+00 0.000000000000000e+00
2.331003544273019e+00 2.319525642288682e+00 0.000000000000000e+00
2.352899042794466e+00 2.318993555504401e+00 0.000000000000000e+00
2.375268075372027e+00 2.315279888851097e+00 0.000000000000000e+00
2.396390865600106e+00 2.314315178808662e+00 0.000000000000000e+00
2.417395315020871e+00 2.314114683738663e+00 0.000000000000000e+00
2.440153148954096e+00 2.310849444532954e+00 0.000000000000000e+00
2.461338040608242e+00 2.308518977626703e+00 0.000000000000000e+00
2.482779584569611e+00 2.306884981690142e+00 0.000000000000000e+00
2.504472317767421e+00 2.305555740923947e+00 0.000000000000000e+00
2.526923496033187e+00 2.302870023400079e+00 0.000000000000000e+00
2.548016795055900e+00 2.300471127315233e+00 0.000000000000000e+00
2.569313502608983e+00 2.299393965491403e+00 0.000000000000000e+00
2.591567630006634e+00 2.297250431992278e+00 0.000000000000000e+00
2.613521384772261e+00 2.294162258864062e+00 0.000000000000000e+00
2.634419700470926e+00 2.291365206159349e+00 0.000000000000000e+00
2.656056846988760e+00 2.289153741691081e+00 0.000000000000000e+00
2.678094714095458e+00 2.285999527696291e+00 0.000000000000000e+00
2.699639258972487e+00 2.282332907759153e+00 0.000000000000000e+00
2.720784220712808e+00 2.279175403031035e+00 0.000000000000000e+00
2.741508515947435e+00 2.275852963934849e+00 0.000000000000000e+00
2.764397989992620e+00 2.273200199773827e+00 0.000000000000000e+00
2.785299776962936e+00 2.268946936958263e+00 0.000000000000000e+00
2.806141670525278e+00 2.265286338002325e+00 0.000000000000000e+00
2.827791497028988e+00 2.263889286908698e+00 0.000000000000000e+00
2.849773796608105e+00 2.261514646564586e+00 0.000000000000000e+00
2.870655431061978e+00 2.259002436983038e+00 0.000000000000000e+00
2.892667643230189e+00 2.257702196837835e+00 0.000000000000000e+00
2.914189155614794e+00 2.258480921255522e+00 0.000000000000000e+00
2.935610007655128e+00 2.258280954720445e+00 0.000000000000000e+00
2.956985711689651e+00 2.259624249916245e+00 0.000000000000000e+00
2.978617003825359e+00 2.261049963232921e+00 0.000000000000000e+00
3.000484646139815e+00 2.264114765491851e+00 0.000000000000000e+00
3.020995433353459e+00 2.268095569714944e+00 0.000000000000000e+00
3.042090409680996e+00 2.271401046385146e+00 0.000000000000000e+00
3.063085236152492e+00 2.276712474110315e+00 0.000000000000000e+00
3.084238737018966e+00 2.282805928305536e+00 0.000000000000000e+00
3.104341565173527e+00 2.287865158437872e+00 0.000000000000000e+00
3.124884960306600e+00 2.294472933599127e+00 0.000000000000000e+00
3.145604149601470e+00 2.300811303731478e+00 0.000000000000000e+00
3.165768533660882e+00 2.307331645927780e+00 0.000000000000000e+00
3.185794941598533e+00 2.315053575978504e+00 0.000000000000000e+00
3.206166586006426e+00 2.322628655783818e+00 0.000000000000000e+00
3.225238227390792e+00 2.330845472249566e+00 0.000000000000000e+00
3.245552750604344e+00 2.339302492144676e+00 0.000000000000000e+00
3.264866890197220e+00 2.347358684876016e+00 0.000000000000000e+00
3.284620095048610e+00 2.356043622304611e+00 0.000000000000000e+00
3.304464090086271e+00 2.364384688459555e+00 0.000000000000000e+00
3.323275593333124e+00 2.373888478256355e+00 0.000000000000000e+00
3.343412770417116e+00 2.382814459453103e+00 0.000000000000000e+00
3.362997530822701e+00 2.391253172935460e+00 0.000000000000000e+00
3.382112529044081e+00 2.399707499151488e+00 0.000000000000000e+00
3.402864529918185e+00 2.407209358029021e+00 0.000000000000000e+00
3.422169908596913e+00 2.414409372289164e+00 0.000000000000000e+00
3.442878693391954e+00 2.421072839182817e+00 0.000000000000000e+00
3.463176211134857e+00 2.426679201638167e+00 0.000000000000000e+00
3.483625550550249e+00 2.432362230531570e+00 0.000000000000000e+00
3.504986642489193e+00 2.436936519251181e+00 0.000000000000000e+00
3.525278424112627e+00 2.440396966144852e+00 0.000000000000000e+00
3.546886061016819e+00 2.443483362167979e+00 0.000000000000000e+00
3.567727784207567e+00 2.446078585060766e+00 0.000000000000000e+00
3.589381562355315e+00 2.448161178054983e+00 0.000000000000000e+00
3.610130933681093e+00 2.449493679087116e+00 0.000000000000000e+00
3.631878811516036e+00 2.450886785434655e+00 0.000000000000000e+00
3.653665885224764e+00 2.451665881522174e+00 0.000000000000000e+00
3.673418302979373e+00 2.451598682890283e+00 0.000000000000000e+00
3.695664470320416e+00 2.451694499724999e+00 0.000000000000000e+00
3.718174926840966e+00 2.450346451487691e+00 0.000000000000000e+00
3.734662653376676e+00 2.447295346533642e+00 0.000000000000000e+00
3.757724642520590e+00 2.442630972455096e+00 0.000000000000000e+00
3.773817345116337e+00 2.436028259186257e+00 0.000000000000000e+00
3.793804340052936e+00 2.425984556215776e+00 0.000000000000000e+00
3.810565346985692e+00 2.414707714605766e+00 0.000000000000000e+00
3.826485643444252e+00 2.401159170526386e+00 0.000000000000000e+00
3.844226258856575e+00 2.386142255384568e+00 0.000000000000000e+00
3.857324876042668e+00 2.371088035312682e+00 0.000000000000000e+00
3.871398838300940e+00 2.355613705691965e+00 0.000000000000000e+00
3.885575433508011e+00 2.340836853089842e+00 0.000000000000000e+00
3.898627414864066e+00 2.323825256308880e+00 0.000000000000000e+00
3.910676600312571e+00 2.306303542217329e+00 0.000000000000000e+00
3.921834460006881e+00 2.288197151573970e+00 0.000000000000000e+00
3.932250674715487e+00 2.269989471233766e+00 0.000000000000000e+00
3.940439523101522e+00 2.250472591136075e+00 0.000000000000000e+00
3.949206712753710e+00 2.231609099673244e+00 0.000000000000000e+00
3.958566316358136e+00 2.213649281428050e+00 0.000000000000000e+00
3.966139598642478e+00 2.193464438307045e+00 0.000000000000000e+00
3.972611884132635e+00 2.172492377461138e+00 0.000000000000000e+00
3.979790236756340e+00 2.154814528094589e+00 0.000000000000000e+00
3.984066774077585e+00 2.134166483823779e+00 0.000000000000000e+00
3.987457474376121e+00 2.112783204976528e+00 0.000000000000000e+00
3.994110007069768e+00 2.092743393222348e+00 0.000000000000000e+00
3.998438642686280e+00 2.073149211656599e+00 0.000000000000000e+00
3.996628555223897e+00 2.051994260442659e+00 0.000000000000000e+00
3.994595842393701e+00 2.030764562037857e+00 0.000000000000000e+00
4.003526862928044e+00 2.012276288750671e+00 0.000000000000000e+00
1.033109492268359e+00 2.996636909639112e+00 0.000000000000000e+00
1.055803581695961e+00 2.994153516683778e+00 0.000000000000000e+00
1.078070123081394e+00 2.989168244594393e+00 0.000000000000000e+00
1.100612617909402e+00 2.985451646578305e+00 0.000000000000000e+00
1.122628307978595e+00 2.980421307607614e+00 0.000000000000000e+00
1.144884652533547e+00 2.974872581644890e+00 0.000000000000000e+00
1.166768103648334e+00 2.969536261613462e+00 0.000000000000000e+00
1.188703239921659e+00 2.963477239765043e+00 0.000000000000000e+00
1.210603637714475e+00 2.958346972726956e+00 0.000000000000000e+00
1.232081052336920e+00 2.951086838639857e+00 0.000000000000000e+00
1.253940279187417e+00 2.945299505242332e+00 0.000000000000000e+00
1.275387744805950e+00 2.938382873713428e+00 0.000000000000000e+00
1.297462946500642e+00 2.933010014510550e+00 0.000000000000000e+00
1.318435514398272e+00 2.926045357951091e+00 0.000000000000000e+00
1.340636780843552e+00 2.920197685086024e+00 0.000000000000000e+00
1.361568783260190e+00 2.914128291400128e+00 0.000000000000000e+00
1.383761185359156e+00 2.909060636544272e+00 0.000000000000000e+00
1.405169685058973e+00 2.904415810726058e+00 0.000000000000000e+00
1.427268376307438e+00 2.898998692096413e+00 0.000000000000000e+00
1.449002095762310e+00 2.894836990101438e+00 0.000000000000000e+00
1.470679933849750e+00 2.890624710669246e+00 0.000000000000000e+00
1.492444586617602e+00 2.886876975020818e+00 0.000000000000000e+00
1.514692632710010e+00 2.882917972293252e+00 0.000000000000000e+00
1.536156920112731e+00 2.879873167751334e+00 0.000000000000000e+00
1.558279054964405e+00 2.875819051405659e+00 0.000000000000000e+00
1.579201528906594e+00 2.870800251312119e+00 0.000000000000000e+00
1.601650971260473e+00 2.865416800366707e+00 0.000000000000000e+00
1.622590245164617e+00 2.861660830105881e+00 0.000000000000000e+00
1.644601830958882e+00 2.857566818371770e+00 0.000000000000000e+00
1.665717408045162e+00 2.852723802826411e+00 0.000000000000000e+00
1.687158342913060e+00 2.845557829596935e+00 0.000000000000000e+00
1.708301273734655e+00 2.841848695553677e+00 0.000000000000000e+00
1.729422499684831e+00 2.834465624465397e+00 0.000000000000000e+00
1.749466453080159e+00 2.825959016215943e+00 0.000000000000000e+00
1.770697042948610e+00 2.819927979383989e+00 0.000000000000000e+00
1.791272701417371e+00 2.812665427115922e+00 0.000000000000000e+00
1.810541321999256e+00 2.801711133438835e+00 0.000000000000000e+00
1.831783046197771e+00 2.798583531167739e+00 0.000000000000000e+00
1.851411194018458e+00 2.787218827866883e+00 0.000000000000000e+00
1.870628168816994e+00 2.777162157297127e+00 0.000000000000000e+00
1.891181038965253e+00 2.770080158738037e+00 0.000000000000000e+00
1.910603820447048e+00 2.760379396220979e+00 0.000000000000000e+00
1.930274602297185e+00 2.749523504808882e+00 0.000000000000000e+00
1.949582500983154e+00 2.740199141574603e+00 0.000000000000000e+00
1.969990744344037e+00 2.732690878975244e+00 0.000000000000000e+00
1.991179892609956e+00 2.727012931080084e+00 0.000000000000000e+00
2.010048385859288e+00 2.715968913123278e+00 0.000000000000000e+00
2.031479592228196e+00 2.713121860014180e+00 0.000000000000000e+00
2.052760327295211e+00 2.708492310763004e+00 0.000000000000000e+00
2.074373285018405e+00 2.703188433656713e+00 0.000000000000000e+00
2.094240215451629e+00 2.696797373156964e+00 0.000000000000000e+00
2.116001687040999e+00 2.694464546536867e+00 0.000000000000000e+00
2.137785699307842e+00 2.691779841212798e+00 0.000000000000000e+00
2.159719398590773e+00 2.688590981402702e+00 0.000000000000000e+00
2.179802360223212e+00 2.684135599955145e+00 0.000000000000000e+00
2.201648830190865e+00 2.684052753947662e+00 0.000000000000000e+00
2.224077729512850e+00 2.682964443407845e+00 0.000000000000000e+00
2.244403293110258e+00 2.679086974833759e+00 0.000000000000000e+00
2.266429585255596e+00 2.679311313997461e+00 0.000000000000000e+00
2.288148847894350e+00 2.680457956635476e+00 0.000000000000000e+00
2.310335532166176e+00 2.680974350011380e+00 0.000000000000000e+00
2.331003544273033e+00 2.680474357711367e+00 0.000000000000000e+00
2.352899042794482e+00 2.681006444495656e+00 0.000000000000000e+00
2.375268075372037e+00 2.684720111148962e+00 0.000000000000000e+00
2.396390865600116e+00 2.685684821191396e+00 0.000000000000000e+00
2.417395315020880e+00 2.685885316261396e+00 0.000000000000000e+00
2.440153148954108e+00 2.689150555467106e+00 0.000000000000000e+00
2.461338040608250e+00 2.691481022373353e+00 0.000000000000000e+00
2.482779584569615e+00 2.693115018309912e+00 0.000000000000000e+00
2.504472317767426e+00 2.694444259076109e+00 0.000000000000000e+00
2.526923496033193e+00 2.697129976599984e+00 0.000000000000000e+00
2.548016795055899e+00 2.699528872684821e+00 0.000000000000000e+00
2.569313502608986e+00 2.700606034508649e+00 0.000000000000000e+00
2.591567630006634e+00 2.702749568007782e+00 0.000000000000000e+00
2.613521384772262e+00 2.705837741135999e+00 0.000000000000000e+00
2.634419700470922e+00 2.708634793840708e+00 0.000000000000000e+00
2.656056846988759e+00 2.710846258308977e+00 0.000000000000000e+00
2.678094714095453e+00 2.714000472303770e+00 0.000000000000000e+00
2.699639258972489e+00 2.717667092240909e+00 0.000000000000000e+00
2.720784220712800e+00 2.720824596969030e+00 0.000000000000000e+00
2.741508515947430e+00 2.724147036065211e+00 0.000000000000000e+00
2.764397989992614e+00 2.726799800226234e+00 0.000000000000000e+00
2.785299776962929e+00 2.731053063041807e+00 0.000000000000000e+00
2.806141670525271e+00 2.734713661997746e+00 0.000000000000000e+00
2.827791497028980e+00 2.736110713091374e+00 0.000000000000000e+00
2.849773796608094e+00 2.738485353435490e+00 0.000000000000000e+00
2.870655431061972e+00 2.740997563017040e+00 0.000000000000000e+00
2.892667643230177e+00 2.742297803162248e+00 0.000000000000000e+00
2.914189155614786e+00 2.741519078744562e+00 0.000000000000000e+00
2.935610007655121e+00 2.741719045279637e+00 0.000000000000000e+00
2.956985711689640e+00 2.740375750083842e+00 0.000000000000000e+00
2.978617003825350e+00 2.738950036767164e+00 0.000000000000000e+00
3.000484646139805e+00 2.735885234508230e+00 0.000000000000000e+00
3.020995433353452e+00 2.731904430285137e+00 0.000000000000000e+00
3.042090409680989e+00 2.728598953614940e+00 0.000000000000000e+00
3.063085236152481e+00 2.723287525889764e+00 0.000000000000000e+00
3.084238737018959e+00 2.717194071694529e+00 0.000000000000000e+00
3.104341565173512e+00 2.712134841562189e+00 0.000000000000000e+00
3.124884960306590e+00 2.705527066400924e+00 0.000000000000000e+00
3.145604149601450e+00 2.699188696268567e+00 0.000000000000000e+00
3.165768533660864e+00 2.692668354072256e+00 0.000000000000000e+00
3.185794941598511e+00 2.684946424021528e+00 0.000000000000000e+00
3.206166586006401e+00 2.677371344216210e+00 0.000000000000000e+00
3.225238227390769e+00 2.669154527750457e+00 0.000000000000000e+00
3.245552750604315e+00 2.660697507855343e+00 0.000000000000000e+00
3.264866890197197e+00 2.652641315123994e+00 0.000000000000000e+00
3.284620095048575e+00 2.643956377695397e+00 0.000000000000000e+00
3.304464090086241e+00 2.635615311540449e+00 0.000000000000000e+00
3.323275593333086e+00 2.626111521743646e+00 0.000000000000000e+00
3.343412770417082e+00 2.617185540546892e+00 0.000000000000000e+00
3.362997530822665e+00 2.608746827064534e+00 0.000000000000000e+00
3.382112529044043e+00 2.600292500848502e+00 0.000000000000000e+00
3.402864529918148e+00 2.592790641970967e+00 0.000000000000000e+00
3.422169908596881e+00 2.585590627710830e+00 0.000000000000000e+00
3.442878693391913e+00 2.578927160817174e+00 0.000000000000000e+00
3.463176211134826e+00 2.573320798361829e+00 0.000000000000000e+00
3.483625550550214e+00 2.567637769468427e+00 0.000000000000000e+00
3.504986642489159e+00 2.563063480748824e+00 0.000000000000000e+00
3.525278424112596e+00 2.559603033855154e+00 0.000000000000000e+00
3.546886061016783e+00 2.556516637832038e+00 0.000000000000000e+00
3.567727784207536e+00 2.553921414939250e+00 0.000000000000000e+00
3.589381562355280e+00 2.551838821945040e+00 0.000000000000000e+00
3.610130933681055e+00 2.550506320912913e+00 0.000000000000000e+00
3.631878811516009e+00 2.549113214565374e+00 0.000000000000000e+00
3.653665885224725e+00 2.548334118477862e+00 0.000000000000000e+00
3.673418302979340e+00 2.548401317109751e+00 0.000000000000000e+00
3.695664470320377e+00 2.548305500275032e+00 0.000000000000000e+00
3.718174926840932e+00 2.549653548512341e+00 0.000000000000000e+00
3.734662653376635e+00 2.552704653466391e+00 0.000000000000000e+00
3.757724642520554e+00 2.557369027544937e+00 0.000000000000000e+00
3.773817345116299e+00 2.563971740813770e+00 0.000000000000000e+00
3.793804340052900e+00 2.574015443784244e+00 0.000000000000000e+00
3.810565346985666e+00 2.585292285394248e+00 0.000000000000000e+00
3.826485643444224e+00 2.598840829473622e+00 0.000000000000000e+00
3.844226258856549e+00 2.613857744615441e+00 0.000000000000000e+00
3.857324876042640e+00 2.628911964687313e+00 0.000000000000000e+00
3.871398838300926e+00 2.644386294308040e+00 0.000000000000000e+00
3.885575433507990e+00 2.659163146910156e+00 0.000000000000000e+00
3.898627414864040e+00 2.676174743691133e+00 0.000000000000000e+00
3.910676600312537e+00 2.693696457782683e+00 0.000000000000000e+00
3.921834460006846e+00 2.711802848426041e+00 0.000000000000000e+00
3.932250674715465e+00 2.730010528766248e+00 0.000000000000000e+00
3.940439523101501e+00 2.749527408863928e+00 0.000000000000000e+00
3.949206712753699e+00 2.768390900326767e+00 0.000000000000000e+00
3.958566316358115e+00 2.786350718571957e+00 0.000000000000000e+00
3.966139598642469e+00 2.806535561692962e+00 0.000000000000000e+00
3.972611884132624e+00 2.827507622538867e+00 0.000000000000000e+00
3.979790236756334e+00 2.845185471905417e+00 0.000000000000000e+00
3.984066774077577e+00 2.865833516176219e+00 0.000000000000000e+00
3.987457474376118e+00 2.887216795023480e+00 0.000000000000000e+00
3.994110007069765e+00 2.907256606777652e+00 0.000000000000000e+00
3.998438642686274e+00 2.926850788343407e+00 0.000000000000000e+00
3.996628555223890e+00 2.948005739557344e+00 0.000000000000000e+00
3.994595842393697e+00 2.969235437962147e+00 0.000000000000000e+00
4.003526862928045e+00 2.987723711249331e+00 0.000000000000000e+00

POINT_DATA   310
SCALARS fY_Lag double
LOOKUP_TABLE default

1.278184e+02 
3.790414e+03 
-1.420680e+03 
1.724027e+03 
1.805065e+03 
-1.273871e+03 
1.438396e+03 
-1.745037e+03 
3.294988e+03 
-2.182035e+03 
9.824012e+02 
-1.926985e+03 
4.520013e+02 
5.047357e+02 
-2.348064e+03 
7.215447e+02 
-2.054442e+03 
2.643823e+03 
-2.804100e+03 
-8.165399e+01 
-6.360815e+02 
9.826061e+02 
-2.250959e+03 
2.456204e+03 
-4.370738e+02 
3.457112e+03 
-5.171730e+03 
2.387038e+03 
-1.886330e+02 
5.335794e+03 
-6.894343e+03 
5.886935e+03 
-6.474038e+02 
-1.819736e+03 
1.207408e+03 
5.993376e+03 
-1.066747e+04 
1.322599e+04 
-6.080835e+03 
-3.052421e+03 
2.675957e+03 
4.539017e+03 
-5.917002e+03 
-9.849965e+02 
-1.555615e+03 
5.416701e+03 
-9.176369e+03 
1.942222e+03 
2.014292e+03 
-2.322498e+03 
-1.805683e+03 
3.172678e+02 
9.019626e+02 
-1.486207e+03 
-2.254070e+03 
1.355345e+03 
7.722445e+02 
-2.375422e+03 
-8.437442e+02 
8.524895e+02 
1.284289e+03 
-7.460164e+02 
-4.419124e+03 
4.827918e+03 
5.893569e+02 
-4.955473e+03 
3.068551e+03 
6.129479e+02 
2.391499e+02 
-2.324787e+03 
1.625079e+03 
9.829757e+02 
-1.845866e+03 
-1.029513e+03 
1.590862e+03 
-1.542114e+02 
-1.675298e+03 
-1.469646e+02 
1.219211e+03 
5.149006e+02 
-1.639137e+03 
2.494977e+02 
7.393257e+02 
1.522789e+03 
-1.358152e+03 
9.419064e+02 
4.177758e+02 
2.480683e+03 
-8.006850e+02 
1.414569e+03 
3.825271e+02 
2.307310e+03 
-8.938358e+02 
3.155389e+02 
2.524066e+03 
1.874637e+03 
-3.914212e+03 
3.178426e+03 
-5.190450e+01 
-1.125621e+03 
1.945301e+03 
1.051748e+03 
-2.766859e+03 
4.738085e+03 
-4.436132e+03 
2.788046e+03 
-4.553152e+02 
-6.661679e+02 
3.190048e+03 
-2.924853e+03 
-1.645606e+03 
2.759631e+03 
-4.932698e+03 
2.840488e+03 
-2.682837e+03 
4.498723e+02 
1.405054e+02 
-3.103148e+03 
1.339281e+03 
-1.444464e+03 
2.287258e+02 
-1.344560e+03 
6.485751e+02 
-6.752663e+02 
-9.936381e+02 
2.276298e+02 
-2.003483e+03 
5.659021e+03 
-1.163127e+04 
1.407774e+04 
-1.974391e+04 
8.803667e+03 
-5.677637e+03 
-1.609808e+04 
2.094204e+04 
-7.441302e+03 
3.639674e+03 
-7.782391e+03 
6.715153e+02 
-9.195789e+02 
1.951158e+03 
-2.460501e+03 
3.350001e+03 
5.290071e+03 
-1.236936e+04 
-4.263596e+03 
2.695788e+04 
-1.940642e+04 
-5.579463e+03 
6.142944e+03 
1.033314e+04 
-1.211601e+04 
-1.729080e+03 
1.035728e+04 
-4.009634e+03 
-1.278184e+02 
-3.790414e+03 
1.420680e+03 
-1.724027e+03 
-1.805065e+03 
1.273871e+03 
-1.438396e+03 
1.745037e+03 
-3.294988e+03 
2.182035e+03 
-9.824012e+02 
1.926985e+03 
-4.520013e+02 
-5.047357e+02 
2.348064e+03 
-7.215447e+02 
2.054442e+03 
-2.643823e+03 
2.804100e+03 
8.165399e+01 
6.360815e+02 
-9.826061e+02 
2.250959e+03 
-2.456204e+03 
4.370738e+02 
-3.457112e+03 
5.171730e+03 
-2.387038e+03 
1.886330e+02 
-5.335794e+03 
6.894343e+03 
-5.886935e+03 
6.474038e+02 
1.819736e+03 
-1.207408e+03 
-5.993376e+03 
1.066747e+04 
-1.322599e+04 
6.080835e+03 
3.052421e+03 
-2.675957e+03 
-4.539017e+03 
5.917002e+03 
9.849965e+02 
1.555615e+03 
-5.416701e+03 
9.176369e+03 
-1.942222e+03 
-2.014292e+03 
2.322498e+03 
1.805683e+03 
-3.172678e+02 
-9.019626e+02 
1.486207e+03 
2.254070e+03 
-1.355345e+03 
-7.722445e+02 
2.375422e+03 
8.437442e+02 
-8.524895e+02 
-1.284289e+03 
7.460164e+02 
4.419124e+03 
-4.827918e+03 
-5.893569e+02 
4.955473e+03 
-3.068551e+03 
-6.129479e+02 
-2.391499e+02 
2.324787e+03 
-1.625079e+03 
-9.829757e+02 
1.845866e+03 
1.029513e+03 
-1.590862e+03 
1.542114e+02 
1.675298e+03 
1.469646e+02 
-1.219211e+03 
-5.149006e+02 
1.639137e+03 
-2.494977e+02 
-7.393257e+02 
-1.522789e+03 
1.358152e+03 
-9.419064e+02 
-4.177758e+02 
-2.480683e+03 
8.006850e+02 
-1.414569e+03 
-3.825271e+02 
-2.307310e+03 
8.938358e+02 
-3.155389e+02 
-2.524066e+03 
-1.874637e+03 
3.914212e+03 
-3.178426e+03 
5.190450e+01 
1.125621e+03 
-1.945301e+03 
-1.051748e+03 
2.766859e+03 
-4.738085e+03 
4.436132e+03 
-2.788046e+03 
4.553152e+02 
6.661679e+02 
-3.190048e+03 
2.924853e+03 
1.645606e+03 
-2.759631e+03 
4.932698e+03 
-2.840488e+03 
2.682837e+03 
-4.498723e+02 
-1.405054e+02 
3.103148e+03 
-1.339281e+03 
1.444464e+03 
-2.287258e+02 
1.344560e+03 
-6.485751e+02 
6.752663e+02 
9.936381e+02 
-2.276298e+02 
2.003483e+03 
-5.659021e+03 
1.163127e+04 
-1.407774e+04 
1.974391e+04 
-8.803667e+03 
5.677637e+03 
1.609808e+04 
-2.094204e+04 
7.441302e+03 
-3.639674e+03 
7.782391e+03 
-6.715153e+02 
9.195789e+02 
-1.951158e+03 
2.460501e+03 
-3.350001e+03 
-5.290071e+03 
1.236936e+04 
4.263596e+03 
-2.695788e+04 
1.940642e+04 
5.579463e+03 
-6.142944e+03 
-1.033314e+04 
1.211601e+04 
1.729080e+03 
-1.035728e+04 
4.009634e+03 
